<?xml version="1.0"?>
<VTKFile type="UnstructuredGrid"  version="0.1"  >
<UnstructuredGrid>
<Piece  NumberOfPoints="28121" NumberOfCells="55200">
<Points>
<DataArray  type="Float64"  NumberOfComponents="3"  format="ascii">0 0 0  0.008260869565217391 0 0  0.01652173913043478 0 0  0.02478260869565217 0 0  0.03304347826086956 0 0  0.04130434782608695 0 0  0.04956521739130434 0 0  0.05782608695652174 0 0  0.06608695652173913 0 0  0.07434782608695652 0 0  0.08260869565217391 0 0  0.0908695652173913 0 0  0.09913043478260869 0 0  0.1073913043478261 0 0  0.1156521739130435 0 0  0.1239130434782609 0 0  0.1321739130434783 0 0  0.1404347826086956 0 0  0.148695652173913 0 0  0.1569565217391304 0 0  0.1652173913043478 0 0  0.1734782608695652 0 0  0.1817391304347826 0 0  0.19 0 0  0.1982608695652174 0 0  0.2065217391304348 0 0  0.2147826086956522 0 0  0.2230434782608696 0 0  0.2313043478260869 0 0  0.2395652173913043 0 0  0.2478260869565218 0 0  0.2560869565217391 0 0  0.2643478260869565 0 0  0.2726086956521739 0 0  0.2808695652173913 0 0  0.2891304347826087 0 0  0.2973913043478261 0 0  0.3056521739130434 0 0  0.3139130434782609 0 0  0.3221739130434783 0 0  0.3304347826086956 0 0  0.338695652173913 0 0  0.3469565217391304 0 0  0.3552173913043478 0 0  0.3634782608695652 0 0  0.3717391304347826 0 0  0.3799999999999999 0 0  0.3882608695652174 0 0  0.3965217391304348 0 0  0.4047826086956521 0 0  0.4130434782608696 0 0  0.4213043478260869 0 0  0.4295652173913043 0 0  0.4378260869565217 0 0  0.4460869565217391 0 0  0.4543478260869565 0 0  0.4626086956521739 0 0  0.4708695652173913 0 0  0.4791304347826086 0 0  0.4873913043478261 0 0  0.4956521739130435 0 0  0.5039130434782608 0 0  0.5121739130434783 0 0  0.5204347826086956 0 0  0.528695652173913 0 0  0.5369565217391304 0 0  0.5452173913043478 0 0  0.5534782608695652 0 0  0.5617391304347825 0 0  0.57 0 0  0.5782608695652174 0 0  0.5865217391304348 0 0  0.5947826086956521 0 0  0.6030434782608696 0 0  0.6113043478260869 0 0  0.6195652173913043 0 0  0.6278260869565218 0 0  0.6360869565217391 0 0  0.6443478260869565 0 0  0.6526086956521739 0 0  0.6608695652173913 0 0  0.6691304347826087 0 0  0.677391304347826 0 0  0.6856521739130435 0 0  0.6939130434782609 0 0  0.7021739130434783 0 0  0.7104347826086956 0 0  0.718695652173913 0 0  0.7269565217391304 0 0  0.7352173913043478 0 0  0.7434782608695653 0 0  0.7517391304347827 0 0  0.7599999999999999 0 0  0.7682608695652173 0 0  0.7765217391304348 0 0  0.7847826086956522 0 0  0.7930434782608695 0 0  0.8013043478260868 0 0  0.8095652173913043 0 0  0.8178260869565217 0 0  0.8260869565217391 0 0  0.8343478260869565 0 0  0.8426086956521739 0 0  0.8508695652173912 0 0  0.8591304347826086 0 0  0.8673913043478261 0 0  0.8756521739130434 0 0  0.8839130434782608 0 0  0.8921739130434783 0 0  0.9004347826086956 0 0  0.908695652173913 0 0  0.9169565217391303 0 0  0.9252173913043478 0 0  0.9334782608695652 0 0  0.9417391304347826 0 0  0.95 0 0  0.9582608695652173 0 0  0.9665217391304347 0 0  0.9747826086956521 0 0  0.9830434782608696 0 0  0.991304347826087 0 0  0.9995652173913042 0 0  1.007826086956522 0 0  1.016086956521739 0 0  1.024347826086957 0 0  1.032608695652174 0 0  1.040869565217391 0 0  1.049130434782609 0 0  1.057391304347826 0 0  1.065652173913043 0 0  1.073913043478261 0 0  1.082173913043478 0 0  1.090434782608696 0 0  1.098695652173913 0 0  1.10695652173913 0 0  1.115217391304348 0 0  1.123478260869565 0 0  1.131739130434783 0 0  1.14 0 0  1.148260869565217 0 0  1.156521739130435 0 0  1.164782608695652 0 0  1.17304347826087 0 0  1.181304347826087 0 0  1.189565217391304 0 0  1.197826086956522 0 0  1.206086956521739 0 0  1.214347826086956 0 0  1.222608695652174 0 0  1.230869565217391 0 0  1.239130434782609 0 0  1.247391304347826 0 0  1.255652173913044 0 0  1.263913043478261 0 0  1.272173913043478 0 0  1.280434782608696 0 0  1.288695652173913 0 0  1.296956521739131 0 0  1.305217391304348 0 0  1.313478260869565 0 0  1.321739130434783 0 0  1.33 0 0  1.338260869565217 0 0  1.346521739130435 0 0  1.354782608695652 0 0  1.36304347826087 0 0  1.371304347826087 0 0  1.379565217391304 0 0  1.387826086956522 0 0  1.396086956521739 0 0  1.404347826086957 0 0  1.412608695652174 0 0  1.420869565217391 0 0  1.429130434782609 0 0  1.437391304347826 0 0  1.445652173913043 0 0  1.453913043478261 0 0  1.462173913043478 0 0  1.470434782608696 0 0  1.478695652173913 0 0  1.486956521739131 0 0  1.495217391304348 0 0  1.503478260869565 0 0  1.511739130434782 0 0  1.52 0 0  1.528260869565217 0 0  1.536521739130435 0 0  1.544782608695652 0 0  1.55304347826087 0 0  1.561304347826087 0 0  1.569565217391304 0 0  1.577826086956522 0 0  1.586086956521739 0 0  1.594347826086957 0 0  1.602608695652174 0 0  1.610869565217391 0 0  1.619130434782609 0 0  1.627391304347826 0 0  1.635652173913043 0 0  1.643913043478261 0 0  1.652173913043478 0 0  1.660434782608696 0 0  1.668695652173913 0 0  1.67695652173913 0 0  1.685217391304348 0 0  1.693478260869565 0 0  1.701739130434782 0 0  1.71 0 0  1.718260869565217 0 0  1.726521739130435 0 0  1.734782608695652 0 0  1.743043478260869 0 0  1.751304347826087 0 0  1.759565217391304 0 0  1.767826086956522 0 0  1.776086956521739 0 0  1.784347826086957 0 0  1.792608695652174 0 0  1.800869565217391 0 0  1.809130434782608 0 0  1.817391304347826 0 0  1.825652173913043 0 0  1.833913043478261 0 0  1.842173913043478 0 0  1.850434782608696 0 0  1.858695652173913 0 0  1.86695652173913 0 0  1.875217391304348 0 0  1.883478260869565 0 0  1.891739130434782 0 0  1.9 0 0  1.908260869565217 0 0  1.916521739130435 0 0  1.924782608695652 0 0  1.933043478260869 0 0  1.941304347826087 0 0  1.949565217391304 0 0  1.957826086956522 0 0  1.966086956521739 0 0  1.974347826086956 0 0  1.982608695652174 0 0  1.990869565217391 0 0  1.999130434782608 0 0  2.007391304347826 0 0  2.015652173913043 0 0  2.023913043478261 0 0  2.032173913043478 0 0  2.040434782608695 0 0  2.048695652173913 0 0  2.05695652173913 0 0  2.065217391304348 0 0  2.073478260869565 0 0  2.081739130434782 0 0  2.09 0 0  2.098260869565217 0 0  2.106521739130435 0 0  2.114782608695652 0 0  2.12304347826087 0 0  2.131304347826087 0 0  2.139565217391304 0 0  2.147826086956522 0 0  2.156086956521739 0 0  2.164347826086956 0 0  2.172608695652174 0 0  2.180869565217391 0 0  2.189130434782609 0 0  2.197391304347826 0 0  2.205652173913043 0 0  2.213913043478261 0 0  2.222173913043478 0 0  2.230434782608695 0 0  2.238695652173913 0 0  2.24695652173913 0 0  2.255217391304348 0 0  2.263478260869565 0 0  2.271739130434783 0 0  2.28 0 0  2.288260869565217 0 0  2.296521739130434 0 0  2.304782608695652 0 0  2.31304347826087 0 0  2.321304347826087 0 0  2.329565217391304 0 0  2.337826086956521 0 0  2.346086956521739 0 0  2.354347826086956 0 0  2.362608695652174 0 0  2.370869565217391 0 0  2.379130434782609 0 0  2.387391304347826 0 0  2.395652173913044 0 0  2.403913043478261 0 0  2.412173913043478 0 0  2.420434782608695 0 0  2.428695652173913 0 0  2.43695652173913 0 0  2.445217391304348 0 0  2.453478260869565 0 0  2.461739130434782 0 0  2.47 0 0  2.478260869565217 0 0  2.486521739130435 0 0  2.494782608695652 0 0  2.503043478260869 0 0  2.511304347826087 0 0  2.519565217391305 0 0  2.527826086956522 0 0  2.536086956521739 0 0  2.544347826086956 0 0  2.552608695652174 0 0  2.560869565217391 0 0  2.569130434782608 0 0  2.577391304347826 0 0  2.585652173913043 0 0  2.593913043478261 0 0  2.602173913043478 0 0  2.610434782608696 0 0  2.618695652173913 0 0  2.62695652173913 0 0  2.635217391304348 0 0  2.643478260869565 0 0  2.651739130434783 0 0  2.66 0 0  2.668260869565217 0 0  2.676521739130435 0 0  2.684782608695652 0 0  2.693043478260869 0 0  2.701304347826087 0 0  2.709565217391304 0 0  2.717826086956522 0 0  2.726086956521739 0 0  2.734347826086956 0 0  2.742608695652174 0 0  2.750869565217391 0 0  2.759130434782609 0 0  2.767391304347826 0 0  2.775652173913044 0 0  2.783913043478261 0 0  2.792173913043478 0 0  2.800434782608696 0 0  2.808695652173913 0 0  2.81695652173913 0 0  2.825217391304347 0 0  2.833478260869565 0 0  2.841739130434783 0 0  2.85 0 0  2.858260869565217 0 0  2.866521739130435 0 0  2.874782608695652 0 0  2.88304347826087 0 0  2.891304347826087 0 0  2.899565217391304 0 0  2.907826086956522 0 0  2.916086956521739 0 0  2.924347826086957 0 0  2.932608695652174 0 0  2.940869565217391 0 0  2.949130434782608 0 0  2.957391304347826 0 0  2.965652173913043 0 0  2.973913043478261 0 0  2.982173913043478 0 0  2.990434782608696 0 0  2.998695652173913 0 0  3.006956521739131 0 0  3.015217391304348 0 0  3.023478260869565 0 0  3.031739130434782 0 0  3.04 0 0  3.048260869565218 0 0  3.056521739130435 0 0  3.064782608695652 0 0  3.073043478260869 0 0  3.081304347826087 0 0  3.089565217391304 0 0  3.097826086956522 0 0  3.106086956521739 0 0  3.114347826086956 0 0  3.122608695652174 0 0  3.130869565217391 0 0  3.139130434782609 0 0  3.147391304347826 0 0  3.155652173913043 0 0  3.163913043478261 0 0  3.172173913043478 0 0  3.180434782608696 0 0  3.188695652173913 0 0  3.19695652173913 0 0  3.205217391304347 0 0  3.213478260869565 0 0  3.221739130434782 0 0  3.23 0 0  3.238260869565217 0 0  3.246521739130435 0 0  3.254782608695652 0 0  3.26304347826087 0 0  3.271304347826087 0 0  3.279565217391304 0 0  3.287826086956521 0 0  3.296086956521739 0 0  3.304347826086957 0 0  3.312608695652174 0 0  3.320869565217391 0 0  3.329130434782608 0 0  3.337391304347826 0 0  3.345652173913043 0 0  3.353913043478261 0 0  3.362173913043478 0 0  3.370434782608696 0 0  3.378695652173913 0 0  3.386956521739131 0 0  3.395217391304348 0 0  3.403478260869565 0 0  3.411739130434782 0 0  3.419999999999999 0 0  3.428260869565217 0 0  3.436521739130435 0 0  3.444782608695652 0 0  3.453043478260869 0 0  3.461304347826087 0 0  3.469565217391304 0 0  3.477826086956522 0 0  3.486086956521739 0 0  3.494347826086956 0 0  3.502608695652174 0 0  3.510869565217391 0 0  3.519130434782609 0 0  3.527391304347826 0 0  3.535652173913043 0 0  3.54391304347826
[...]
<PointData  Scalars="rho_bar"> 
<DataArray  type="Float64"  Name="rho_bar"  format="ascii">9.8639066553336685e-01  9.8622467564258398e-01  9.8598938736911312e-01  9.8564784505272085e-01  9.8518840140688879e-01  9.8460631342772464e-01  9.8389944141866903e-01  9.8306712858391798e-01  9.8211040596457388e-01  9.8103214321766541e-01  9.7983757725728970e-01  9.7853451226086596e-01  9.7713390483029472e-01  9.7565001282633845e-01  9.7410099487566493e-01  9.7250889777572869e-01  9.7089979839597318e-01  9.6930308874840188e-01  9.6775092695881471e-01  9.6627732478385031e-01  9.6491804501143263e-01  9.6370995954043825e-01  9.6269034564875655e-01  9.6189418283037464e-01  9.6135077853644790e-01  9.6107937735918092e-01  9.6108610425039132e-01  9.6136234200424464e-01  9.6188598115330703e-01  9.6262390550880506e-01  9.6353583682183197e-01  9.6457707605410237e-01  9.6570070993164736e-01  9.6685795542274144e-01  9.6799806630880336e-01  9.6906724528747390e-01  9.7000751957079745e-01  9.7075399664590944e-01  9.7123085874327808e-01  9.7134408938624850e-01  9.7097138156498730e-01  9.6994719112267902e-01  9.6804427387275938e-01  9.6495794440961435e-01  9.6032077158512830e-01  9.5383541328978083e-01  9.4567014236298430e-01  9.3688623357663892e-01  9.2932478971804844e-01  9.2459484660955826e-01  9.2300348049757663e-01  9.2365690942305878e-01  9.2529863043800153e-01  9.2691953691512918e-01  9.2807639356759741e-01  9.2871451612776668e-01  9.2893005482275570e-01  9.2884265602132532e-01  9.2855867483330967e-01  9.2816021634727586e-01  9.2770400444857726e-01  9.2722350817647770e-01  9.2673514976880322e-01  9.2624405027892664e-01  9.2574880812652072e-01  9.2524349985525445e-01  9.2472016107596722e-01  9.2417070241894672e-01  9.2358948227588022e-01  9.2297432032206517e-01  9.2232767337582544e-01  9.2165585433604125e-01  9.2096846160653878e-01  9.2027651232221197e-01  9.1959139719473326e-01  9.1892331805689775e-01  9.1828105510207270e-01  9.1767115988265902e-01  9.1709854594271445e-01  9.1656615885238535e-01  9.1607582764047657e-01  9.1562815059130331e-01  9.1522316171500318e-01  9.1486003378779590e-01  9.1453760358288494e-01  9.1425380626518105e-01  9.1400617672341455e-01  9.1379126662711896e-01  9.1360540157756820e-01  9.1344468922024269e-01  9.1330597193078444e-01  9.1318670166278015e-01  9.1308551224374090e-01  9.1300154225271557e-01  9.1293477819317437e-01  9.1288517096357136e-01  9.1285292607789248e-01  9.1283781564494415e-01  9.1283943590249506e-01  9.1285660712919448e-01  9.1288780198292485e-01  9.1293062078757370e-01  9.1298250292288441e-01  9.1304037483827627e-01  9.1310157962757976e-01  9.1316386656850634e-01  9.1322621752996702e-01  9.1328850032433850e-01  9.1335169127737525e-01  9.1341674613463908e-01  9.1348469549881861e-01  9.1355599231048978e-01  9.1363136628361441e-01  9.1371153025914309e-01  9.1379715816193907e-01  9.1388741744959612e-01  9.1398013905079833e-01  9.1407269663581914e-01  9.1416486391461804e-01  9.1425932003878596e-01  9.1436103867860541e-01  9.1447443138182072e-01  9.1460190995022150e-01  9.1474277203122312e-01  9.1489401505455048e-01  9.1505063131274089e-01  9.1520728587180444e-01  9.1535889576292373e-01  9.1550204712637739e-01  9.1563477570510088e-01  9.1575672796945995e-01  9.1586832586000855e-01  9.1597110998911768e-01  9.1606743820924652e-01  9.1616147033129491e-01  9.1625860950078830e-01  9.1636497429089336e-01  9.1648467460318783e-01  9.1661792386849805e-01  9.1675974540960647e-01  9.1690149626766171e-01  9.1703272814342629e-01  9.1714483857370033e-01  9.1723351961575950e-01  9.1730146447085392e-01  9.1735837817059518e-01  9.1741957482366476e-01  9.1750153028625892e-01  9.1761749855919228e-01  9.1777285399874664e-01  9.1796304117915695e-01  9.1817215997359436e-01  9.1837503069120996e-01  9.1854113585267638e-01  9.1864151091627078e-01  9.1865448267434835e-01  9.1856982595652914e-01  9.1838874331380804e-01  9.1812222875541782e-01  9.1778666546809240e-01  9.1740047155490434e-01  9.1698107278399854e-01  9.1654442297284788e-01  9.1610517854399542e-01  9.1567922254888745e-01  9.1528631835673557e-01  9.1495394726123003e-01  9.1471874446668922e-01  9.1462700925841223e-01  9.1473158976574043e-01  9.1508690958450567e-01  9.1574104347375795e-01  9.1672873181463610e-01  9.1806554195607892e-01  9.1974608959308535e-01  9.2174348055114930e-01  9.2401104976095205e-01  9.2648343460731053e-01  9.2907844629612568e-01  9.3169834104059990e-01  9.3423307211946893e-01  9.3656474324037520e-01  9.3857594251350596e-01  9.4015913879071944e-01  9.4122656840358521e-01  9.4171605732892183e-01  9.4159357825907175e-01  9.4085274245275963e-01  9.3951452835949645e-01  9.3762681666889680e-01  9.3526497385083818e-01  9.3253053348188653e-01  9.2954849423443797e-01  9.2646088494493017e-01  9.2341788093382782e-01  9.2056494575537928e-01  9.1802889429702716e-01  9.1590347793851989e-01  9.1423842321889492e-01  9.1303049109173906e-01  9.1221949339114050e-01  9.1168821198673955e-01  9.1126979613643633e-01  9.1076093958668491e-01  9.0994009241575613e-01  9.0858510377875668e-01  9.0649175361545409e-01  9.0349297249856719e-01  8.9948207098931787e-01  8.9444188207253095e-01  8.8846681291483653e-01  8.8176177564087965e-01  8.7461188761866449e-01  8.6732842857410197e-01  8.6019584734525678e-01  8.5343871238273028e-01  8.4721446353238028e-01  8.4161284622330312e-01  8.3666567220349097e-01  8.3236722315303258e-01  8.2869630084404278e-01  8.2562295525388352e-01  8.2310519069173471e-01  8.2108087155517440e-01  8.1946784631747960e-01  8.1817311315268859e-01  8.1710907318409898e-01  8.1620391419631244e-01  8.1540595593294829e-01  8.1468075932380113e-01  8.1400782455775411e-01  8.1337503728892813e-01  8.1277587421607866e-01  8.1220618575410741e-01  8.1166404619083266e-01  8.1114949348177223e-01  8.1066682326104833e-01  8.1022409829219078e-01  8.0983200273685996e-01  8.0949895309909137e-01  8.0922860933087282e-01  8.0901778667250912e-01  8.0885937023181276e-01  8.0874523326579539e-01  8.0866981158688211e-01  8.0862980868575463e-01  8.0862438106770917e-01  8.0865272380755737e-01  8.0871544745736257e-01  8.0881704739712590e-01  8.0897052313682494e-01  8.0919717702213345e-01  8.0952350231062720e-01  8.0997211736370800e-01  8.1055336713333925e-01  8.1125761573984967e-01  8.1205570468615207e-01  8.1290485678521518e-01  8.1376037834700876e-01  8.1458426553859054e-01  8.1535059229576756e-01  8.1604447145503212e-01  8.1666056062807224e-01  8.1719911101458498e-01  8.1766472378090982e-01  8.1806449962085581e-01  8.1840918956404651e-01  8.1871429781658078e-01  8.1900424356126955e-01  8.1931513081512797e-01  8.1969746012174360e-01  8.2021157087633267e-01  8.2091866718596007e-01  8.2186777419494272e-01  8.2308719090189397e-01  8.2458007731380345e-01  8.2632855379704040e-01  8.2830209757748197e-01  8.3046678813032404e-01  8.3278363900903130e-01  8.3520442370071635e-01  8.3767164586701626e-01  8.4012569127102721e-01  8.4250915285707639e-01  8.4476573558484269e-01  8.4683005483437468e-01  8.4862132761611797e-01  8.5004774650899528e-01  8.5102276790710307e-01  8.5148071945324932e-01  8.5138219253332048e-01  8.5070094262648444e-01  8.4940713676352764e-01  8.4745603526905811e-01  8.4478883080542300e-01  8.4134109510890365e-01  8.3706065064587898e-01  8.3192977118698164e-01  8.2598703664949846e-01  8.1932965775774858e-01  8.1209366716248332e-01  8.0442710533576633e-01  7.9647076159464092e-01  7.8834144860536004e-01  7.8012536455105053e-01  7.7189067565168856e-01  7.6370762693519789e-01  7.5563852083393213e-01  7.4772804334739285e-01  7.4001303329442658e-01  7.3252698355095569e-01  7.2528632782384894e-01  7.1828460695935303e-01  7.1150367013926563e-01  7.0492659687625403e-01  6.9854654556899065e-01  6.9237519756645749e-01  6.8644649254273515e-01  6.8081838611214873e-01  6.7556538618532569e-01  6.7076692999364251e-01  6.6648656773998471e-01  6.6275556647200617e-01  6.5957001196233633e-01  6.5690080655389416e-01  6.5470216450410157e-01  6.5291830666141182e-01  6.5148577454222356e-01  6.5034279878551837e-01  6.4943758656823714e-01  6.4873375332114347e-01  6.4821049114407259e-01  6.4786228348634223e-01  6.4769073244294439e-01  6.4769755667875339e-01  6.4787859928914104e-01  6.4822481152431588e-01  6.4872329867057965e-01  6.4936152239982103e-01  6.5012888310746009e-01  6.5101902916045273e-01  6.5202639379977312e-01  6.5314405117883456e-01  6.5436110890002031e-01  6.5566554270493904e-01  6.5704667337931488e-01  6.5850163239764625e-01  6.6004115179513057e-01  6.6169827716908203e-01  6.6353136363835941e-01  6.6562199702546221e-01  6.6804731269839124e-01  6.7080926894791892e-01  6.7376254831074456e-01  6.7663639499395711e-01  6.7911608887334862e-01  6.8092128266006924e-01  6.8187109442866689e-01  6.8192573392251865e-01  6.8120582044828337e-01  6.7998112387850296e-01  6.7859857356708964e-01  6.7740152428882028e-01  6.7669734091744305e-01  6.7673509515874530e-01  6.7768197791643003e-01  6.7960810392651771e-01  6.8246305679930064e-01  6.8606287347453943e-01  6.9003361350841153e-01  6.9375905867403331e-01  6.9640144810138593e-01  6.9696937879474963e-01  6.9440497488995889e-01  6.8764121650267496e-01  6.7579679925465630e-01  6.5847110122780106e-01  6.3550090344298427e-01  6.0670340364960307e-01  5.7159749294790863e-01  5.2910520950564166e-01  4.7830368685065866e-01  4.1967189251682030e-01  3.5590763735394376e-01  2.9181863817205123e-01  2.3288802300529948e-01  1.8299043596433692e-01  1.4302204353551501e-01  1.1194301973358892e-01  8.8070820512713199e-02  6.9768695665847369e-02  5.5684151776526178e-02  4.4774542750149249e-02  3.6258804733948935e-02  2.9557558807079547e-02  2.4241407014227667e-02  1.9990941016025842e-02  1.6567163029515171e-02  1.3789983786436135e-02  1.1522668088177170e-02  9.6606052052898989e-03  8.1231197078267085e-03  6.8475044549664126e-03  5.7846194246236647e-03  4.8956530171054575e-03  4.1497056689823097e-03  3.5219899841510611e-03  2.9924756415471818e-03  2.5448661285938168e-03  2.1658180926647950e-03  1.8443442082659613e-03  1.5713508353544293e-03  1.3392773659572246e-03  1.1418140899628853e-03  9.7367472913716157e-04  8.3042085879685482e-04  7.0831249389321474e-04  6.0419444907906035e-04  5.1539683896023559e-04  4.3965667300845183e-04  3.7505086545016773e-04  3.1994233313704798e-04  2.7293506679914968e-04  2.3283918261747408e-04  1.9863888979707270e-04  1.6946852850173509e-04  1.4458878937519779e-04  1.2336930409014777e-04  1.0527174146863397e-04  8.9837089160705390e-05  7.6673486314566527e-05  6.5446710955604525e-05  5.5871450221510397e-05  4.7704557633925820e-05  4.0738488990188722e-05  3.4796389785696867e-05  2.9727388532773644e-05  2.5402866936050154e-05  2.1713223155080352e-05  1.8565004444031700e-05  1.5878626407244817e-05  1.3586232101240278e-05  1.1630040295925072e-05  9.9608825708415500e-06  8.5369118774004418e-06  7.3224936286357753e-06  6.2873483536083343e-06  5.4057465045848169e-06  4.6558799829791474e-06  4.0192214992843851e-06  3.4801247139916394e-06  3.0253945649294535e-06  2.6439652296750187e-06  2.3265758077324530e-06  2.0655749157208792e-06  1.8547097801188903e-06  1.6889984351494784e-06  1.5646004726349832e-06  1.4788591286714209e-06  1.4305842920616323e-06  1.4215501019094208e-06  9.8573230748564300e-01  9.8563262604646096e-01  9.8540326107209442e-01  9.8504832496856021e-01  9.8456517375868779e-01  9.8395106917954078e-01  9.8320406327785759e-01  9.8232346898329093e-01  9.8131005187831744e-01  9.8016663730656783e-01  9.7889839699730630e-01  9.7751345299605286e-01  9.7602307413710598e-01  9.7444230566541545e-01  9.7279018764210767e-01  9.7109030423574128e-01  9.6937049904879025e-01  9.6766248599530647e-01  9.6600065089414422e-01  9.6442147800263134e-01  9.6296298812391901e-01  9.6166497306029630e-01  9.6056788292865303e-01  9.5971061080783637e-01  9.5912592076050152e-01  9.5883581708669774e-01  9.5884732977958553e-01  9.5915116131972422e-01  9.5972263423975168e-01  9.6052541702414107e-01  9.6151542085477493e-01  9.6264470725189766e-01  9.6386328510580577e-01  9.6511987696785773e-01  9.6636118425807283e-01  9.6753128205044481e-01  9.6857017675261869e-01  9.6941191689134398e-01  9.6998020039034683e-01  9.7018190027190854e-01  9.6989683446272879e-01  9.6896444955476757e-01  9.6716692702389817e-01  9.6421616543219435e-01  9.5976785677322729e-01  9.5353125848454823e-01  9.4561293451713369e-01  9.3694416415699910e-01  9.2923695232891024e-01  9.2409180676918512e-01  9.2194772275035297e-01  9.2203609991425750e-01  9.2318387238571509e-01  9.2439536918421783e-01  9.2519881510591351e-01  9.2553696143662545e-01  9.2550334124705558e-01  9.2520911640526660e-01  9.2475313711817797e-01  9.2421233408506542e-01  9.2363852080598707e-01  9.2306041422704788e-01  9.2248929109966271e-01  9.2192668537617128e-01  9.2136807221050776e-01  9.2080507550792723e-01  9.2022689200237240e-01  9.1962334170425075e-01  9.1898683233648437e-01  9.1831448855694109e-01  9.1760837636230463e-01  9.1687564041109715e-01  9.1612671678900837e-01  9.1537400970836613e-01  9.1462980501332514e-01  9.1390543288269177e-01  9.1321003066045547e-01  9.1255078381499799e-01  9.1193248306465202e-01  9.1135835803151422e-01  9.1082995113341125e-01  9.1034796568765985e-01  9.0991211245859849e-01  9.0952171223326461e-01  9.0917523740682682e-01  9.0887077668976257e-01  9.0860537356580484e-01  9.0837551918881088e-01  9.0817683375837921e-01  9.0800512819008006e-01  9.0785662302259518e-01  9.0772880657635135e-01  9.0761997338953115e-01  9.0752958998036437e-01  9.0745744202652623e-01  9.0740387293305169e-01  9.0736894552455416e-01  9.0735270686005853e-01  9.0735453652601850e-01  9.0737345941382364e-01  9.0740754543154845e-01  9.0745446663072382e-01  9.0751106762535705e-01  9.0757418767617837e-01  9.0764054133605487e-01  9.0770776764738359e-01  9.0777447433281089e-01  9.0784089752514951e-01  9.0790804171412165e-01  9.0797744093368671e-01  9.0804990972104582e-01  9.0812609181687665e-01  9.0820645005048783e-01  9.0829216242903377e-01  9.0838415053271693e-01  9.0848194693987072e-01  9.0858235220353134e-01  9.0868185367964216e-01  9.0877939178369138e-01  9.0887859419472861e-01  9.0898558170579091e-01  9.0910611977924261e-01  9.0924284696472724e-01  9.0939514494281748e-01  9.0955916278166704e-01  9.0972936816985239e-01  9.0989924536516475e-01  9.1006326184907793e-01  9.1021741699008996e-01  9.1035994270160980e-01  9.1049039256177611e-01  9.1060953811366152e-01  9.1071864209056275e-01  9.1082032522110190e-01  9.1091870886048831e-01  9.1102029849310662e-01  9.1113237862752705e-01  9.1126058954960620e-01  9.1140532967138799e-01  9.1156112402105793e-01  9.1171743942064376e-01  9.1186206801579839e-01  9.1198418284696270e-01  9.1207849595622026e-01  9.1214741207732597e-01  9.1220227796717535e-01  9.1226092705543638e-01  9.1234333438185722e-01  9.1246519346561306e-01  9.1263371159843265e-01  9.1284413921778573e-01  9.1307917783361636e-01  9.1330983742713978e-01  9.1350091574976933e-01  9.1361847997803058e-01  9.1363794963459388e-01  9.1354786597269966e-01  9.1335076578386909e-01  9.1305982580513989e-01  9.1269462612164742e-01  9.1227586123617688e-01  9.1182289235998104e-01  9.1135242986105591e-01  9.1087969277386827e-01  9.1042023983845399e-01  9.0999426270512807e-01  9.0963005090868720e-01  9.0936708213442519e-01  9.0925564065574749e-01  9.0935456246829283e-01  9.0972466139068253e-01  9.1042041261854900e-01  9.1148056384057441e-01  9.1292268351413941e-01  9.1474043860162402e-01  9.1690466420765626e-01  9.1936455683756146e-01  9.2204991794754565e-01  9.2487215946108836e-01  9.2772615732737695e-01  9.3049213217178184e-01  9.3304092164350017e-01  9.3524198028991279e-01  9.3697555093691476e-01  9.3814378643448604e-01  9.3867845507546688e-01  9.3854264187970815e-01  9.3773016686828026e-01  9.3626412940100412e-01  9.3419724518004343e-01  9.3161191654673281e-01  9.2861999485514479e-01  9.2535897331978401e-01  9.2198574903799357e-01  9.1866623823172100e-01  9.1556202590350044e-01  9.1281371908042674e-01  9.1052609216152336e-01  9.0875521222213185e-01  9.0750002911506356e-01  9.0669649000429109e-01  9.0621763508900244e-01  9.0587998490773769e-01  9.0545930989265655e-01  9.0471027619336530e-01  9.0338683105127471e-01  9.0125965492562143e-01  8.9813764906629734e-01  8.9389417251562120e-01  8.8850127417238722e-01  8.8205910287745248e-01  8.7479968880295422e-01  8.6704848657138023e-01  8.5915807117806597e-01  8.5144298244157224e-01  8.4414628062152641e-01  8.3743602599863287e-01  8.3140635501474980e-01  8.2608505240704710e-01  8.2146065063161822e-01  8.1750901217053284e-01  8.1420153240767190e-01  8.1149654058495735e-01  8.0932920296191935e-01  8.0760802500546347e-01  8.0622833171584452e-01  8.0509187715712316e-01  8.0412109723285941e-01  8.0326096031344441e-01  8.0247663438169303e-01  8.0174719878762613e-01  8.0106136601977651e-01  8.0041242275816626e-01  7.9979643399676226e-01  7.9921045503276389e-01  7.9865419483353683e-01  7.9813132368885142e-01  7.9765156916614877e-01  7.9722715534484123e-01  7.9686877015159252e-01  7.9658022852216237e-01  7.9635754789717128e-01  7.9619110577235097e-01  7.9607157405102580e-01  7.9599221700206801e-01  7.9595033951187921e-01  7.9594507882805177e-01  7.9597598100099143e-01  7.9604192661061279e-01  7.9614644323184547e-01  7.9630244071678036e-01  7.9653441218868126e-01  7.9687306913722211e-01  7.9734666198225568e-01  7.9796842505502086e-01  7.9872910682557585e-01  7.9959488923414490e-01  8.0051653215137530e-01  8.0144236860937457e-01  8.0233065828238292e-01  8.0315334377872283e-01  8.0389605973135514e-01  8.0455375083339209e-01  8.0512809258298823e-01  8.0562404017805733e-01  8.0604950393504682e-01  8.0641487769641740e-01  8.0673594880347499e-01  8.0703683635294099e-01  8.0735575201004384e-01  8.0774731886127438e-01  8.0828028735077850e-01  8.0902459564683304e-01  8.1003713761372531e-01  8.1135003375607717e-01  8.1296663372192546e-01  8.1486414201327040e-01  8.1700713904166122e-01  8.1935897835200633e-01  8.2188040726866585e-01  8.2451924648562813e-01  8.2721182853530051e-01  8.2989173298456254e-01  8.3249828439668216e-01  8.3497406048745726e-01  8.3725245681385940e-01  8.3924497723887570e-01  8.4084831757951983e-01  8.4196308479512960e-01  8.4251674721107817e-01  8.4247046700614858e-01  8.4180267701222744e-01  8.4048512476677262e-01  8.3847123354530029e-01  8.3569571965468692e-01  8.3208597978492993e-01  8.2758001965848660e-01  8.2215321230879501e-01  8.1584443382258320e-01  8.0876195126761807e-01  8.0105584255445084e-01  7.9288821236094631e-01  7.8441180034699942e-01  7.7575401894162532e-01  7.6700361373620773e-01  7.5822849887105936e-01  7.4950641034637311e-01  7.4090971355333657e-01  7.3248434374120241e-01  7.2427067435285797e-01  7.1630915069538625e-01  7.0862263278958637e-01  7.0120207210610574e-01  6.9402635306003480e-01  6.8707442985042733e-01  6.8033736631726849e-01  6.7382462271799792e-01  6.6757106130814858e-01  6.6163698175571006e-01  6.5610297460028633e-01  6.5105565125030085e-01  6.4656564447681930e-01  6.4266368274391328e-01  6.3934180732653878e-01  6.3656468155997181e-01  6.3428291561573391e-01  6.3243643198429900e-01  6.3095724494516259e-01  6.2977729988899922e-01  6.2884172986148568e-01  6.2811140454446601e-01  6.2756531467024512e-01  6.2719876809677455e-01  6.2701650897004346e-01  6.2702089219397139e-01  6.2720830125027516e-01  6.2756802939414724e-01  6.2808632250449892e-01  6.2874881377091718e-01  6.2954504558189095e-01  6.3046882582666441e-01  6.3151660999720960e-01  6.3268132012968925e-01  6.3395236280590150e-01  6.3531612042734020e-01  6.3676098539153714e-01  6.3828178079263020e-01  6.3988839117910346e-01  6.4161340162139280e-01  6.4351868370296816e-01  6.4569393734468306e-01  6.4823956546340600e-01  6.5118169324691688e-01  6.5436983629103718e-01  6.5750062906737394e-01  6.6022578097477835e-01  6.6223397529566186e-01  6.6332751170126192e-01  6.6346139612361776e-01  6.6276772115658666e-01  6.6154813467944784e-01  6.6018926843544867e-01  6.5905724695724366e-01  6.5848090551665728e-01  6.5872731693071152e-01  6.5997286304333691e-01  6.6229535710481235e-01  6.6564912386578567e-01  6.69856896605