<?xml version="1.0"?>
<VTKFile type="UnstructuredGrid"  version="0.1"  >
<UnstructuredGrid>
<Piece  NumberOfPoints="28121" NumberOfCells="55200">
<Points>
<DataArray  type="Float64"  NumberOfComponents="3"  format="ascii">0 0 0  0.008260869565217391 0 0  0.01652173913043478 0 0  0.02478260869565217 0 0  0.03304347826086956 0 0  0.04130434782608695 0 0  0.04956521739130434 0 0  0.05782608695652174 0 0  0.06608695652173913 0 0  0.07434782608695652 0 0  0.08260869565217391 0 0  0.0908695652173913 0 0  0.09913043478260869 0 0  0.1073913043478261 0 0  0.1156521739130435 0 0  0.1239130434782609 0 0  0.1321739130434783 0 0  0.1404347826086956 0 0  0.148695652173913 0 0  0.1569565217391304 0 0  0.1652173913043478 0 0  0.1734782608695652 0 0  0.1817391304347826 0 0  0.19 0 0  0.1982608695652174 0 0  0.2065217391304348 0 0  0.2147826086956522 0 0  0.2230434782608696 0 0  0.2313043478260869 0 0  0.2395652173913043 0 0  0.2478260869565218 0 0  0.2560869565217391 0 0  0.2643478260869565 0 0  0.2726086956521739 0 0  0.2808695652173913 0 0  0.2891304347826087 0 0  0.2973913043478261 0 0  0.3056521739130434 0 0  0.3139130434782609 0 0  0.3221739130434783 0 0  0.3304347826086956 0 0  0.338695652173913 0 0  0.3469565217391304 0 0  0.3552173913043478 0 0  0.3634782608695652 0 0  0.3717391304347826 0 0  0.3799999999999999 0 0  0.3882608695652174 0 0  0.3965217391304348 0 0  0.4047826086956521 0 0  0.4130434782608696 0 0  0.4213043478260869 0 0  0.4295652173913043 0 0  0.4378260869565217 0 0  0.4460869565217391 0 0  0.4543478260869565 0 0  0.4626086956521739 0 0  0.4708695652173913 0 0  0.4791304347826086 0 0  0.4873913043478261 0 0  0.4956521739130435 0 0  0.5039130434782608 0 0  0.5121739130434783 0 0  0.5204347826086956 0 0  0.528695652173913 0 0  0.5369565217391304 0 0  0.5452173913043478 0 0  0.5534782608695652 0 0  0.5617391304347825 0 0  0.57 0 0  0.5782608695652174 0 0  0.5865217391304348 0 0  0.5947826086956521 0 0  0.6030434782608696 0 0  0.6113043478260869 0 0  0.6195652173913043 0 0  0.6278260869565218 0 0  0.6360869565217391 0 0  0.6443478260869565 0 0  0.6526086956521739 0 0  0.6608695652173913 0 0  0.6691304347826087 0 0  0.677391304347826 0 0  0.6856521739130435 0 0  0.6939130434782609 0 0  0.7021739130434783 0 0  0.7104347826086956 0 0  0.718695652173913 0 0  0.7269565217391304 0 0  0.7352173913043478 0 0  0.7434782608695653 0 0  0.7517391304347827 0 0  0.7599999999999999 0 0  0.7682608695652173 0 0  0.7765217391304348 0 0  0.7847826086956522 0 0  0.7930434782608695 0 0  0.8013043478260868 0 0  0.8095652173913043 0 0  0.8178260869565217 0 0  0.8260869565217391 0 0  0.8343478260869565 0 0  0.8426086956521739 0 0  0.8508695652173912 0 0  0.8591304347826086 0 0  0.8673913043478261 0 0  0.8756521739130434 0 0  0.8839130434782608 0 0  0.8921739130434783 0 0  0.9004347826086956 0 0  0.908695652173913 0 0  0.9169565217391303 0 0  0.9252173913043478 0 0  0.9334782608695652 0 0  0.9417391304347826 0 0  0.95 0 0  0.9582608695652173 0 0  0.9665217391304347 0 0  0.9747826086956521 0 0  0.9830434782608696 0 0  0.991304347826087 0 0  0.9995652173913042 0 0  1.007826086956522 0 0  1.016086956521739 0 0  1.024347826086957 0 0  1.032608695652174 0 0  1.040869565217391 0 0  1.049130434782609 0 0  1.057391304347826 0 0  1.065652173913043 0 0  1.073913043478261 0 0  1.082173913043478 0 0  1.090434782608696 0 0  1.098695652173913 0 0  1.10695652173913 0 0  1.115217391304348 0 0  1.123478260869565 0 0  1.131739130434783 0 0  1.14 0 0  1.148260869565217 0 0  1.156521739130435 0 0  1.164782608695652 0 0  1.17304347826087 0 0  1.181304347826087 0 0  1.189565217391304 0 0  1.197826086956522 0 0  1.206086956521739 0 0  1.214347826086956 0 0  1.222608695652174 0 0  1.230869565217391 0 0  1.239130434782609 0 0  1.247391304347826 0 0  1.255652173913044 0 0  1.263913043478261 0 0  1.272173913043478 0 0  1.280434782608696 0 0  1.288695652173913 0 0  1.296956521739131 0 0  1.305217391304348 0 0  1.313478260869565 0 0  1.321739130434783 0 0  1.33 0 0  1.338260869565217 0 0  1.346521739130435 0 0  1.354782608695652 0 0  1.36304347826087 0 0  1.371304347826087 0 0  1.379565217391304 0 0  1.387826086956522 0 0  1.396086956521739 0 0  1.404347826086957 0 0  1.412608695652174 0 0  1.420869565217391 0 0  1.429130434782609 0 0  1.437391304347826 0 0  1.445652173913043 0 0  1.453913043478261 0 0  1.462173913043478 0 0  1.470434782608696 0 0  1.478695652173913 0 0  1.486956521739131 0 0  1.495217391304348 0 0  1.503478260869565 0 0  1.511739130434782 0 0  1.52 0 0  1.528260869565217 0 0  1.536521739130435 0 0  1.544782608695652 0 0  1.55304347826087 0 0  1.561304347826087 0 0  1.569565217391304 0 0  1.577826086956522 0 0  1.586086956521739 0 0  1.594347826086957 0 0  1.602608695652174 0 0  1.610869565217391 0 0  1.619130434782609 0 0  1.627391304347826 0 0  1.635652173913043 0 0  1.643913043478261 0 0  1.652173913043478 0 0  1.660434782608696 0 0  1.668695652173913 0 0  1.67695652173913 0 0  1.685217391304348 0 0  1.693478260869565 0 0  1.701739130434782 0 0  1.71 0 0  1.718260869565217 0 0  1.726521739130435 0 0  1.734782608695652 0 0  1.743043478260869 0 0  1.751304347826087 0 0  1.759565217391304 0 0  1.767826086956522 0 0  1.776086956521739 0 0  1.784347826086957 0 0  1.792608695652174 0 0  1.800869565217391 0 0  1.809130434782608 0 0  1.817391304347826 0 0  1.825652173913043 0 0  1.833913043478261 0 0  1.842173913043478 0 0  1.850434782608696 0 0  1.858695652173913 0 0  1.86695652173913 0 0  1.875217391304348 0 0  1.883478260869565 0 0  1.891739130434782 0 0  1.9 0 0  1.908260869565217 0 0  1.916521739130435 0 0  1.924782608695652 0 0  1.933043478260869 0 0  1.941304347826087 0 0  1.949565217391304 0 0  1.957826086956522 0 0  1.966086956521739 0 0  1.974347826086956 0 0  1.982608695652174 0 0  1.990869565217391 0 0  1.999130434782608 0 0  2.007391304347826 0 0  2.015652173913043 0 0  2.023913043478261 0 0  2.032173913043478 0 0  2.040434782608695 0 0  2.048695652173913 0 0  2.05695652173913 0 0  2.065217391304348 0 0  2.073478260869565 0 0  2.081739130434782 0 0  2.09 0 0  2.098260869565217 0 0  2.106521739130435 0 0  2.114782608695652 0 0  2.12304347826087 0 0  2.131304347826087 0 0  2.139565217391304 0 0  2.147826086956522 0 0  2.156086956521739 0 0  2.164347826086956 0 0  2.172608695652174 0 0  2.180869565217391 0 0  2.189130434782609 0 0  2.197391304347826 0 0  2.205652173913043 0 0  2.213913043478261 0 0  2.222173913043478 0 0  2.230434782608695 0 0  2.238695652173913 0 0  2.24695652173913 0 0  2.255217391304348 0 0  2.263478260869565 0 0  2.271739130434783 0 0  2.28 0 0  2.288260869565217 0 0  2.296521739130434 0 0  2.304782608695652 0 0  2.31304347826087 0 0  2.321304347826087 0 0  2.329565217391304 0 0  2.337826086956521 0 0  2.346086956521739 0 0  2.354347826086956 0 0  2.362608695652174 0 0  2.370869565217391 0 0  2.379130434782609 0 0  2.387391304347826 0 0  2.395652173913044 0 0  2.403913043478261 0 0  2.412173913043478 0 0  2.420434782608695 0 0  2.428695652173913 0 0  2.43695652173913 0 0  2.445217391304348 0 0  2.453478260869565 0 0  2.461739130434782 0 0  2.47 0 0  2.478260869565217 0 0  2.486521739130435 0 0  2.494782608695652 0 0  2.503043478260869 0 0  2.511304347826087 0 0  2.519565217391305 0 0  2.527826086956522 0 0  2.536086956521739 0 0  2.544347826086956 0 0  2.552608695652174 0 0  2.560869565217391 0 0  2.569130434782608 0 0  2.577391304347826 0 0  2.585652173913043 0 0  2.593913043478261 0 0  2.602173913043478 0 0  2.610434782608696 0 0  2.618695652173913 0 0  2.62695652173913 0 0  2.635217391304348 0 0  2.643478260869565 0 0  2.651739130434783 0 0  2.66 0 0  2.668260869565217 0 0  2.676521739130435 0 0  2.684782608695652 0 0  2.693043478260869 0 0  2.701304347826087 0 0  2.709565217391304 0 0  2.717826086956522 0 0  2.726086956521739 0 0  2.734347826086956 0 0  2.742608695652174 0 0  2.750869565217391 0 0  2.759130434782609 0 0  2.767391304347826 0 0  2.775652173913044 0 0  2.783913043478261 0 0  2.792173913043478 0 0  2.800434782608696 0 0  2.808695652173913 0 0  2.81695652173913 0 0  2.825217391304347 0 0  2.833478260869565 0 0  2.841739130434783 0 0  2.85 0 0  2.858260869565217 0 0  2.866521739130435 0 0  2.874782608695652 0 0  2.88304347826087 0 0  2.891304347826087 0 0  2.899565217391304 0 0  2.907826086956522 0 0  2.916086956521739 0 0  2.924347826086957 0 0  2.932608695652174 0 0  2.940869565217391 0 0  2.949130434782608 0 0  2.957391304347826 0 0  2.965652173913043 0 0  2.973913043478261 0 0  2.982173913043478 0 0  2.990434782608696 0 0  2.998695652173913 0 0  3.006956521739131 0 0  3.015217391304348 0 0  3.023478260869565 0 0  3.031739130434782 0 0  3.04 0 0  3.048260869565218 0 0  3.056521739130435 0 0  3.064782608695652 0 0  3.073043478260869 0 0  3.081304347826087 0 0  3.089565217391304 0 0  3.097826086956522 0 0  3.106086956521739 0 0  3.114347826086956 0 0  3.122608695652174 0 0  3.130869565217391 0 0  3.139130434782609 0 0  3.147391304347826 0 0  3.155652173913043 0 0  3.163913043478261 0 0  3.172173913043478 0 0  3.180434782608696 0 0  3.188695652173913 0 0  3.19695652173913 0 0  3.205217391304347 0 0  3.213478260869565 0 0  3.221739130434782 0 0  3.23 0 0  3.238260869565217 0 0  3.246521739130435 0 0  3.254782608695652 0 0  3.26304347826087 0 0  3.271304347826087 0 0  3.279565217391304 0 0  3.287826086956521 0 0  3.296086956521739 0 0  3.304347826086957 0 0  3.312608695652174 0 0  3.320869565217391 0 0  3.329130434782608 0 0  3.337391304347826 0 0  3.345652173913043 0 0  3.353913043478261 0 0  3.362173913043478 0 0  3.370434782608696 0 0  3.378695652173913 0 0  3.386956521739131 0 0  3.395217391304348 0 0  3.403478260869565 0 0  3.411739130434782 0 0  3.419999999999999 0 0  3.428260869565217 0 0  3.436521739130435 0 0  3.444782608695652 0 0  3.453043478260869 0 0  3.461304347826087 0 0  3.469565217391304 0 0  3.477826086956522 0 0  3.486086956521739 0 0  3.494347826086956 0 0  3.502608695652174 0 0  3.510869565217391 0 0  3.519130434782609 0 0  3.527391304347826 0 0  3.535652173913043 0 0  3.54391304347826
[...]
<PointData  Scalars="rho_bar"> 
<DataArray  type="Float64"  Name="rho_bar"  format="ascii">9.9999991272114108e-01  1.0000000205322843e+00  1.0000001310146616e+00  1.0000001792724764e+00  9.9999996932967739e-01  9.9999941767180167e-01  9.9999886483286993e-01  9.9999929804538001e-01  1.0000015192618259e+00  1.0000036573808484e+00  1.0000000731678074e+00  9.9998969384752046e-01  9.9998874483707101e-01  1.0000147975140863e+00  1.0000423427962413e+00  1.0000138400790557e+00  9.9992734063861155e-01  9.9985841414041954e-01  9.9985905309520506e-01  9.9989493927412376e-01  9.9990788056809865e-01  9.9988881025742837e-01  9.9987369478658528e-01  9.9989503010603342e-01  9.9994791661184779e-01  9.9999913558649545e-01  1.0000222527339186e+00  1.0000175442209158e+00  1.0000020561721623e+00  9.9999074185211190e-01  9.9998851920620446e-01  9.9999261371706671e-01  9.9999765754859893e-01  1.0000000393214390e+00  9.9999981106582359e-01  9.9999909888082716e-01  9.9999910291627081e-01  9.9999942352036997e-01  9.9999956698314363e-01  9.9999961052314645e-01  9.9999965651326039e-01  9.9999970502597835e-01  9.9999974302474304e-01  9.9999959650051073e-01  9.9999991664962085e-01  9.9999977189134470e-01  9.9999771458283149e-01  1.0000020047761582e+00  1.0000065212001510e+00  9.9997868827520320e-01  9.9994678153661176e-01  1.0000033856679786e+00  1.0001482934301453e+00  1.0002784902477477e+00  1.0003404856903910e+00  1.0003582960239958e+00  1.0003590994814653e+00  1.0003498218181577e+00  1.0003314954538318e+00  1.0003077255727804e+00  1.0002844451757706e+00  1.0002659639994069e+00  1.0002535836355864e+00  1.0002472715539299e+00  1.0002467410274516e+00  1.0002511936183967e+00  1.0002591617314787e+00  1.0002688151221026e+00  1.0002781006672932e+00  1.0002850132077463e+00  1.0002885687606633e+00  1.0002896126374246e+00  1.0002902673451493e+00  1.0002924060348823e+00  1.0002967406070373e+00  1.0003030679433988e+00  1.0003109876425025e+00  1.0003204250659050e+00  1.0003313804554863e+00  1.0003430691587152e+00  1.0003538739599094e+00  1.0003624070055115e+00  1.0003682013210635e+00  1.0003714605664626e+00  1.0003727294372187e+00  1.0003728504034135e+00  1.0003727869645211e+00  1.0003732060737158e+00  1.0003743089190751e+00  1.0003760227784675e+00  1.0003781979488473e+00  1.0003806502469836e+00  1.0003831688002680e+00  1.0003855462627831e+00  1.0003876267882883e+00  1.0003893043943675e+00  1.0003904749688253e+00  1.0003910734553338e+00  1.0003912388175291e+00  1.0003913070560402e+00  1.0003915598307047e+00  1.0003921014550654e+00  1.0003929994118552e+00  1.0003943144963738e+00  1.0003959454183633e+00  1.0003976385250526e+00  1.0003991880796046e+00  1.0004005213573066e+00  1.0004016991920479e+00  1.0004028748600560e+00  1.0004041654388467e+00  1.0004056016310017e+00  1.0004072172767022e+00  1.0004090553648877e+00  1.0004110935789641e+00  1.0004132048648073e+00  1.0004151877537064e+00  1.0004168169542422e+00  1.0004178570191589e+00  1.0004180372635878e+00  1.0004171210691417e+00  1.0004150414869135e+00  1.0004119699245744e+00  1.0004083634308145e+00  1.0004048901461846e+00  1.0004019294785600e+00  1.0003991291542575e+00  1.0003955621695713e+00  1.0003904657354883e+00  1.0003841661065074e+00  1.0003780805975930e+00  1.0003735822777013e+00  1.0003712427962328e+00  1.0003710636888488e+00  1.0003727477856112e+00  1.0003755157131446e+00  1.0003783127597328e+00  1.0003804166544206e+00  1.0003815041484609e+00  1.0003813539974642e+00  1.0003797708110174e+00  1.0003765552376456e+00  1.0003717055759829e+00  1.0003659927526047e+00  1.0003606226524646e+00  1.0003559680700223e+00  1.0003517575152336e+00  1.0003480550162691e+00  1.0003448275691471e+00  1.0003414606651919e+00  1.0003373229735359e+00  1.0003320027809639e+00  1.0003252189263452e+00  1.0003171619408635e+00  1.0003085582316220e+00  1.0002999629963383e+00  1.0002912425406187e+00  1.0002817136293982e+00  1.0002704838651015e+00  1.0002570076222752e+00  1.0002418400300261e+00  1.0002263562829128e+00  1.0002118663016042e+00  1.0001996955351640e+00  1.0001906167556940e+00  1.0001832838721327e+00  1.0001746340783801e+00  1.0001608965433548e+00  1.0001369941606484e+00  1.0000971614465604e+00  1.0000377266146347e+00  9.9995897158003888e-01  9.9986358209272352e-01  9.9975678280300806e-01  9.9965568526453008e-01  9.9959549684242277e-01  9.9961575431925598e-01  9.9971594100396743e-01  9.9982282092264330e-01  9.9986885307662376e-01  9.9988236587996282e-01  9.9991295517110124e-01  9.9994962768671913e-01  9.9997160834981702e-01  9.9998444255644636e-01  9.9999187242941701e-01  9.9998864618419614e-01  9.9999253884424322e-01  1.0000216653326386e+00  1.0000066337871909e+00  9.9989929418985113e-01  9.9989038714901990e-01  1.0001587655587896e+00  1.0004340587517599e+00  1.0003063206596285e+00  9.9986144509062036e-01  9.9954880076917840e-01  9.9959650703329572e-01  9.9982287733426389e-01  9.9993343678137692e-01  9.9990346643875738e-01  9.9989781427856617e-01  9.9994006145457759e-01  9.9996564391662335e-01  9.9997306732085423e-01  9.9998269162119613e-01  9.9999134737121198e-01  9.9995891506736978e-01  9.9997517727643992e-01  1.0001179495287993e+00  9.9997180714063316e-01  9.9929639052930375e-01  9.9873901152618116e-01  9.9874579946480269e-01  9.9889377515486955e-01  9.9875637075160795e-01  9.9837536288751427e-01  9.9796754662351483e-01  9.9766427039018102e-01  9.9747889196490591e-01  9.9737925250037340e-01  9.9733240681464719e-01  9.9731430033749058e-01  9.9731178666238496e-01  9.9731912146628887e-01  9.9733422568709562e-01  9.9735558608184505e-01  9.9737850911167725e-01  9.9739535676144153e-01  9.9740027933627107e-01  9.9739336190962813e-01  9.9738069203370094e-01  9.9737041482436484e-01  9.9736664644647921e-01  9.9736731695049652e-01  9.9736892684902279e-01  9.9737096070120679e-01  9.9737477362460769e-01  9.9738128089467581e-01  9.9738979436973174e-01  9.9739872840006039e-01  9.9740716384827965e-01  9.9741529953256158e-01  9.9742369269430697e-01  9.9743279090310344e-01  9.9744281717633954e-01  9.9745383767439810e-01  9.9746580630339343e-01  9.9747871517782505e-01  9.9749263134497623e-01  9.9750777232488252e-01  9.9752453865894175e-01  9.9754363420793202e-01  9.9756605668804943e-01  9.9759228128202992e-01  9.9762101405470616e-01  9.9764988967128898e-01  9.9767697048257586e-01  9.9770102642912573e-01  9.9772144331005375e-01  9.9773843252883521e-01  9.9775260127320320e-01  9.9776436612131125e-01  9.9777429625042890e-01  9.9778391242414610e-01  9.9779546885870163e-01  9.9781140085704179e-01  9.9783418486901598e-01  9.9786630521199704e-01  9.9790950664936096e-01  9.9796356901226946e-01  9.9802584183204424e-01  9.9809177362338997e-01  9.9815600841335761e-01  9.9821387740148759e-01  9.9826156294229285e-01  9.9829533478370658e-01  9.9831186234081326e-01  9.9830964517505250e-01  9.9829124640162092e-01  9.9826637815418950e-01  9.9825479536064887e-01  9.9828808088003540e-01  9.9840794378776432e-01  9.9865859266187151e-01  9.9904313902671149e-01  9.9944835867263204e-01  9.9970654766558797e-01  9.9979786706433482e-01  9.9984202451203974e-01  9.9989657835474399e-01  9.9993824003364862e-01  9.9996018733279668e-01  9.9997302351780748e-01  9.9997943121592670e-01  9.9998265519000618e-01  9.9998774989479988e-01  9.9996743540811284e-01  9.9996186720958302e-01  1.0000891519378614e+00  9.9999742372393985e-01  9.9927240030263997e-01  9.9888535922359722e-01  9.9981430724307241e-01  1.0007743142295260e+00  1.0001649453851627e+00  9.9841388788795293e-01  9.9678106909730813e-01  9.9584818509032147e-01  9.9557655287388114e-01  9.9571846697974564e-01  9.9604226200176760e-01  9.9640910115444514e-01  9.9675897631706012e-01  9.9707479611437555e-01  9.9735578675112402e-01  9.9760174868979079e-01  9.9780534385986397e-01  9.9795120670647974e-01  9.9802374564969487e-01  9.9802452998744762e-01  9.9797645992111228e-01  9.9790893359803834e-01  9.9784301687850252e-01  9.9779001183467475e-01  9.9775973572619547e-01  9.9776095021656730e-01  9.9779061990979268e-01  9.9783550570524493e-01  9.9788280098293503e-01  9.9792360291949289e-01  9.9795299491273048e-01  9.9797201704943217e-01  9.9798542361650044e-01  9.9799765428036169e-01  9.9801166565909771e-01  9.9803055109751160e-01  9.9805681110822086e-01  9.9808971825616466e-01  9.9812508371743613e-01  9.9815877435423228e-01  9.9818775763291723e-01  9.9821031041205999e-01  9.9822733982026413e-01  9.9824234127268141e-01  9.9825867302537752e-01  9.9827757480374657e-01  9.9829640181928714e-01  9.9830910581054322e-01  9.9831039568216118e-01  9.9829880395684711e-01  9.9827437375717609e-01  9.9823546232426175e-01  9.9817823149239526e-01  9.9810240832528496e-01  9.9801457504257551e-01  9.9792340598810270e-01  9.9783882146060721e-01  9.9777620955738322e-01  9.9775442456375252e-01  9.9778535718068850e-01  9.9786023360387399e-01  9.9794936384842570e-01  9.9802017821392153e-01  9.9805008654076977e-01  9.9801463830830905e-01  9.9787867597278601e-01  9.9762481725777064e-01  9.9731683734877030e-01  9.9713930691308017e-01  9.9727176364857528e-01  9.9767315950752278e-01  9.9813904602315118e-01  9.9853883294408052e-01  9.9884078457219250e-01  9.9902777358084327e-01  9.9909402788138468e-01  9.9902816616126600e-01  9.9876718757548844e-01  9.9810381107209334e-01  9.9634005407813431e-01  9.9039788545408358e-01  9.6754461002688508e-01  8.6066636641387295e-01  4.8611233356451783e-01  1.4757748076664615e-01  3.8389958781630380e-02  1.1241492451493227e-02  3.5851950607114430e-03  1.3092907460326092e-03  5.2534417716143349e-04  2.1871022454744699e-04  1.0471171922286253e-04  5.1859637495505176e-05  2.7726196113937591e-05  1.6004919217992228e-05  9.6282383845832829e-06  6.1659766361104754e-06  4.1048196415657533e-06  2.8433297625934162e-06  2.0332385754183467e-06  1.4931255813244836e-06  1.1215334935387676e-06  8.5806994950984134e-07  6.6670416474767818e-07  5.2462998082393758e-07  4.1720198373777840e-07  3.3467431059513645e-07  2.7041775655669834e-07  2.1981187368475634e-07  1.7956837114197853e-07  1.4730183570425682e-07  1.2125094735246031e-07  1.0009504987198647e-07  8.2829132184353951e-08  6.8679385495550150e-08  5.7042493994860178e-08  4.7444102640138497e-08  3.9507416062203530e-08  3.2931063162985639e-08  2.7472255660042809e-08  2.2934402832173072e-08  1.9157384765671996e-08  1.6010360531845362e-08  1.3385844524078516e-08  1.1195502426256979e-08  9.3663128165901029e-09  7.8379537311509839e-09  6.5603553364544051e-09  5.4919899253461628e-09  4.5983136083531187e-09  3.8505687120757689e-09  3.2247839837925797e-09  2.7009759583923824e-09  2.2624539332115892e-09  1.8952956385371396e-09  1.5878638974280646e-09  1.3304201574785681e-09  1.1148307259637783e-09  9.3428442450814328e-10  7.8309490244250361e-10  6.5648612420164609e-10  5.5046739619347060e-10  4.6170271329580793e-10  3.8740355269839853e-10  3.2522876684825360e-10  2.7322350981462059e-10  2.2975492561812816e-10  1.9346306184084111e-10  1.6320556462183359e-10  1.3803398637138830e-10  1.1716037667429460e-10  9.9934148877091412e-11  8.5816040829984066e-11  7.4365730365250713e-11  6.5228201359452478e-11  5.8122750060166345e-11  5.2832798526499671e-11  4.9205532504916083e-11  4.7159947603031963e-11  4.6739819048768136e-11  1.0000000511897660e+00  9.9999980836106539e-01  9.9999960297454582e-01  9.9999937581241227e-01  9.9999947184678284e-01  1.0000002049535772e+00  1.0000014350086106e+00  1.0000018220130489e+00  9.9999916300710445e-01  9.9999368179228132e-01  9.9999316300036234e-01  1.0000081748143042e+00  1.0000260157632155e+00  1.0000023678774661e+00  9.9993332589731720e-01  9.9991906739172287e-01  1.0000453988795983e+00  1.0002228267000219e+00  1.0002884876773215e+00  1.0002281270458093e+00  1.0001621239647449e+00  1.0001676044086105e+00  1.0002083037001777e+00  1.0002038890161429e+00  1.0001236339593609e+00  1.0000132466031968e+00  9.9994054940192012e-01  9.9993113268559974e-01  9.9996132703612073e-01  9.9999489944813358e-01  1.0000117971370988e+00  1.0000112328021764e+00  1.0000027561917000e+00  9.9999638729212670e-01  9.9999585490651854e-01  9.9999822940682437e-01  9.9999960090129714e-01  9.9999953888661020e-01  9.9999940978493707e-01  9.9999955463435874e-01  9.9999964268128372e-01  9.9999969064561112e-01  9.9999965628453402e-01  9.9999971484210137e-01  9.9999988523893801e-01  9.9999871446013711e-01  1.0000007703250089e+00  1.0000019958849333e+00  9.9998510077520864e-01  9.9999717457438941e-01  1.0000763294455635e+00  1.0000668996822601e+00  9.9982836240060924e-01  9.9950167598097950e-01  9.9927807694535775e-01  9.9916819157385317e-01  9.9911162827472688e-01  9.9908501166136809e-01  9.9908830937177040e-01  9.9911872628488541e-01  9.9916396618617753e-01  9.9920969401704673e-01  9.9924752437306974e-01  9.9927432315410702e-01  9.9928888526925319e-01  9.9929131922704295e-01  9.9928360464478050e-01  9.9926908697212968e-01  9.9925176752822908e-01  9.9923611192857109e-01  9.9922573540476345e-01  9.9922115591705984e-01  9.9921929696971934e-01  9.9921590103554447e-01  9.9920835848983713e-01  9.9919626480417412e-01  9.9918029530112451e-01  9.9916089826430321e-01  9.9913787245944929e-01  9.9911175465501456e-01  9.9908517508941930e-01  9.9906156592161277e-01  9.9904295701286916e-01  9.9902968988214103e-01  9.9902121061747196e-01  9.9901633044556992e-01  9.9901325956469644e-01  9.9901028046216733e-01  9.9900648197604147e-01  9.9900168717580728e-01  9.9899600675977618e-01  9.9898966037734571e-01  9.9898296997871405e-01  9.9897632976079820e-01  9.9897011133676850e-01  9.9896459361293333e-01  9.9896001495941300e-01  9.9895663217913511e-01  9.9895446531708265e-01  9.9895302327840163e-01  9.9895161134626154e-01  9.9894982559227574e-01  9.9894747375994664e-01  9.9894430975691217e-01  9.9894025097207095e-01  9.9893564523304401e-01  9.9893096805348947e-01  9.9892649075308571e-01  9.9892224369873461e-01  9.9891800857067514e-01  9.9891347523710938e-01  9.9890849605740173e-01  9.9890298741819283e-01  9.9889679889900918e-01  9.9888983361797867e-01  9.9888218620657743e-01  9.9887414611917447e-01  9.9886611133362657e-01  9.9885851072899035e-01  9.9885185478312843e-01  9.9884673110689537e-01  9.9884356463554280e-01  9.9884237817112365e-01  9.9884272257045004e-01  9.9884355705287875e-01  9.9884375605770437e-01  9.9884327914214133e-01  9.9884346828604320e-01  9.9884617243305573e-01  9.9885202727353684e-01  9.9885921185642934e-01  9.9886489574981541e-01  9.9886749773052652e-01  9.9886693118014991e-01  9.9886363535950617e-01  9.9885853509031541e-01  9.9885332840727159e-01  9.9884943488095046e-01  9.9884724936655511e-01  9.9884678045020392e-01  9.9884811632781623e-01  9.9885146779725520e-01  9.9885715595129154e-01  9.9886471772779939e-01  9.9887207922228627e-01  9.9887767313863507e-01  9.9888207042676058e-01  9.9888577333052053e-01  9.9888848842547850e-01  9.9889091599141910e-01  9.9889438588461366e-01  9.9889969986157889e-01  9.9890740361468000e-01  9.9891760292717491e-01  9.9892920998511459e-01  9.9894072935853917e-01  9.9895178467504986e-01  9.9896334806159603e-01  9.9897706700393596e-01  9.9899453522434700e-01  9.9901584813469257e-01  9.9903877171290512e-01  9.9906057916427682e-01  9.9907899446760462e-01  9.9909160977873146e-01  9.9909872019590729e-01  9.9910502584765859e-01  9.9911678617682587e-01  9.9914161806329982e-01  9.9918980928363632e-01  9.9927036575368144e-01  9.9938587671368784e-01  9.9953213989716461e-01  9.9970311752750540e-01  9.9988285205408423e-01  1.0000239712989654e+00  1.0000547663056985e+00  9.9993361683306692e-01  9.9974775984028941e-01  9.9968482951244075e-01  9.9978042425104274e-01  9.9988654544900013e-01  9.9993432253036474e-01  9.9996176904975997e-01  9.9998095624864514e-01  9.9998590050262659e-01  9.9999369092340618e-01  1.0000094099469086e+00  9.9997789528851677e-01  9.9993026427676635e-01  1.0000600372002846e+00  1.0002567858038058e+00  9.9999035712911721e-01  9.9928762629501156e-01  9.9903639498205898e-01  9.9965267563655313e-01  1.0004244081488107e+00  1.0005604177577796e+00  1.0000868596215400e+00  9.9965909038161960e-01  9.9968918777794646e-01  9.9988225003814524e-01  9.9993731355014592e-01  9.9994574135284453e-01  9.9996932561309437e-01  9.9998280847299559e-01  9.9997124243118418e-01  9.9998170096824734e-01  1.0000478358875771e+00  9.9983992874082561e-01  9.9958806900720476e-01  1.0003143549668694e+00  1.0014381736335467e+00  1.0012333758626528e+00  9.9975478267725748e-01  9.9830922274485190e-01  9.9758881846938940e-01  9.9753931838832466e-01  9.9785864420817494e-01  9.9831182592138323e-01  9.9878014213110133e-01  9.9920655537217917e-01  9.9957235946034428e-01  9.9987494395290077e-01  1.0001151275711806e+00  1.0002947064271113e+00  1.0004166410924378e+00  1.0004909036025686e+00  1.0005392867792402e+00  1.0005886281273537e+00  1.0006578539252831e+00  1.0007499445915418e+00  1.0008533046167356e+00  1.0009528027526005e+00  1.0010428251689492e+00  1.0011275910528077e+00  1.0012099382327588e+00  1.0012875539721540e+00  1.0013565326777836e+00  1.0014152291615486e+00  1.0014659286731813e+00  1.0015124580481607e+00  1.0015571535660983e+00  1.0016006795233590e+00  1.0016429432912042e+00  1.0016836156475186e+00  1.0017223195317062e+00  1.0017588183510393e+00  1.0017929364882310e+00  1.0018245485606343e+00  1.0018535372508506e+00  1.0018797810809885e+00  1.0019029208231862e+00  1.0019221077768303e+00  1.0019361402715037e+00  1.0019457831998966e+00  1.0019542994201240e+00  1.0019640603993876e+00  1.0019751715164589e+00  1.0019870139799278e+00  1.0019985455210876e+00  1.0020084384400987e+00  1.0020162251079137e+00  1.0020225056620680e+00  1.0020269618122091e+00  1.0020275919113584e+00  1.0020219734266016e+00  1.0020078755551689e+00  1.0019828437349274e+00  1.0019443293635661e+00  1.0018914284926606e+00  1.0018266376520411e+00  1.0017553237003773e+00  1.0016845589009471e+00  1.0016207860375710e+00  1.0015683218239424e+00  1.0015311081900768e+00  1.0015137373568541e+00  1.0015193439484897e+00  1.0015466426285862e+00  1.0015851337873998e+00  1.0016102609677577e+00  1.0015803408802009e+00  1.0014379116344523e+00  1.0011196932196700e+00  1.0005893086781033e+00  9.9995886887378127e-01  9.9954897628412331e-01  9.9955083239192943e-01  9.9974621767509431e-01  9.9987040063229526e-01  9.9991795663451100e-01  9.9994862704055265e-01  9.9996693019473737e-01  9.9997519348666331e-01  9.9998130827409570e-01  9.9997787497200474e-01  9.9997482777756586e-01  1.0000197187905953e+00  9.9988682454618760e-01  9.9956843222580871e-01  1.0001833189437204e+00  1.0013047445165855e+00  9.9958084889888010e-01  9.9442638479532530e-01  9.8908557230015348e-01  9.8519116057589196e-01  9.8246844585386273e-01  9.8084531461149216e-01  9.8029769428027902e-01  9.8055346025082102e-01  9.8128013532149427e-01  9.8220465523959855e-01  9.8312016153229420e-01  9.8388036574228321e-01  9.8439676797271836e-01  9.8463456443635744e-01  9.8461007447641158e-01  9.8438468250529898e-01  9.8405653760600154e-01  9.8372817855369010e-01  9.8346779489051839e-01  9.8330489282496381e-01  9.8324823815169893e-01  9.8329661373719801e-01  9.8343209294644229e-01  9.8361006352227709e-01  9.8378308248747881e-01  9.8392947535498021e-01  9.8405063280800553e-01  9.8416085948988508e-01  9.8428484265400173e-01  9.8444759656083147e-01  9.8466541026226606e-01  9.8494529480755122e-01  9.8528707284648398e-01  9.8568122662221691e-01  9.8610886710250500e-01  9.8654834211466291e-01  9.8698459454774945e-01  9.8740941377814140e-01  9.8781864661509777e-01  9.8821148809121007e-01  9.8858712680606742e-01  9.8893999672942345e-01  9.8926253318576896e-01  9.8955019664387123e-01  9.8980645643629528e-01  9.9004619253027915e-01  9.9029161294684331e-01  9.9056129036748752e-01  9.9086770247077682e-01  9.9122156783947513e-01  9.9163579493639042e-01  9.9211972334678500e-01  9.9266382885370441e-01  9.9324057352129747e-01  9.9381395122199678e-01  9.9433358052715870e-01  9.9473355977958366e-01  9.9494798841697285e-01  9.9494350007822252e-01  9.9474523216038868e-01  9.9442330093611198e-01  9.9405511938891034e-01  9.9372351860987562e-01  9.9355365221321557e-01  9.9370567536911403e-01  9.94279747399