<?xml version="1.0"?>
<VTKFile type="UnstructuredGrid"  version="0.1"  >
<UnstructuredGrid>
<Piece  NumberOfPoints="28121" NumberOfCells="55200">
<Points>
<DataArray  type="Float64"  NumberOfComponents="3"  format="ascii">0 0 0  0.008260869565217391 0 0  0.01652173913043478 0 0  0.02478260869565217 0 0  0.03304347826086956 0 0  0.04130434782608695 0 0  0.04956521739130434 0 0  0.05782608695652174 0 0  0.06608695652173913 0 0  0.07434782608695652 0 0  0.08260869565217391 0 0  0.0908695652173913 0 0  0.09913043478260869 0 0  0.1073913043478261 0 0  0.1156521739130435 0 0  0.1239130434782609 0 0  0.1321739130434783 0 0  0.1404347826086956 0 0  0.148695652173913 0 0  0.1569565217391304 0 0  0.1652173913043478 0 0  0.1734782608695652 0 0  0.1817391304347826 0 0  0.19 0 0  0.1982608695652174 0 0  0.2065217391304348 0 0  0.2147826086956522 0 0  0.2230434782608696 0 0  0.2313043478260869 0 0  0.2395652173913043 0 0  0.2478260869565218 0 0  0.2560869565217391 0 0  0.2643478260869565 0 0  0.2726086956521739 0 0  0.2808695652173913 0 0  0.2891304347826087 0 0  0.2973913043478261 0 0  0.3056521739130434 0 0  0.3139130434782609 0 0  0.3221739130434783 0 0  0.3304347826086956 0 0  0.338695652173913 0 0  0.3469565217391304 0 0  0.3552173913043478 0 0  0.3634782608695652 0 0  0.3717391304347826 0 0  0.3799999999999999 0 0  0.3882608695652174 0 0  0.3965217391304348 0 0  0.4047826086956521 0 0  0.4130434782608696 0 0  0.4213043478260869 0 0  0.4295652173913043 0 0  0.4378260869565217 0 0  0.4460869565217391 0 0  0.4543478260869565 0 0  0.4626086956521739 0 0  0.4708695652173913 0 0  0.4791304347826086 0 0  0.4873913043478261 0 0  0.4956521739130435 0 0  0.5039130434782608 0 0  0.5121739130434783 0 0  0.5204347826086956 0 0  0.528695652173913 0 0  0.5369565217391304 0 0  0.5452173913043478 0 0  0.5534782608695652 0 0  0.5617391304347825 0 0  0.57 0 0  0.5782608695652174 0 0  0.5865217391304348 0 0  0.5947826086956521 0 0  0.6030434782608696 0 0  0.6113043478260869 0 0  0.6195652173913043 0 0  0.6278260869565218 0 0  0.6360869565217391 0 0  0.6443478260869565 0 0  0.6526086956521739 0 0  0.6608695652173913 0 0  0.6691304347826087 0 0  0.677391304347826 0 0  0.6856521739130435 0 0  0.6939130434782609 0 0  0.7021739130434783 0 0  0.7104347826086956 0 0  0.718695652173913 0 0  0.7269565217391304 0 0  0.7352173913043478 0 0  0.7434782608695653 0 0  0.7517391304347827 0 0  0.7599999999999999 0 0  0.7682608695652173 0 0  0.7765217391304348 0 0  0.7847826086956522 0 0  0.7930434782608695 0 0  0.8013043478260868 0 0  0.8095652173913043 0 0  0.8178260869565217 0 0  0.8260869565217391 0 0  0.8343478260869565 0 0  0.8426086956521739 0 0  0.8508695652173912 0 0  0.8591304347826086 0 0  0.8673913043478261 0 0  0.8756521739130434 0 0  0.8839130434782608 0 0  0.8921739130434783 0 0  0.9004347826086956 0 0  0.908695652173913 0 0  0.9169565217391303 0 0  0.9252173913043478 0 0  0.9334782608695652 0 0  0.9417391304347826 0 0  0.95 0 0  0.9582608695652173 0 0  0.9665217391304347 0 0  0.9747826086956521 0 0  0.9830434782608696 0 0  0.991304347826087 0 0  0.9995652173913042 0 0  1.007826086956522 0 0  1.016086956521739 0 0  1.024347826086957 0 0  1.032608695652174 0 0  1.040869565217391 0 0  1.049130434782609 0 0  1.057391304347826 0 0  1.065652173913043 0 0  1.073913043478261 0 0  1.082173913043478 0 0  1.090434782608696 0 0  1.098695652173913 0 0  1.10695652173913 0 0  1.115217391304348 0 0  1.123478260869565 0 0  1.131739130434783 0 0  1.14 0 0  1.148260869565217 0 0  1.156521739130435 0 0  1.164782608695652 0 0  1.17304347826087 0 0  1.181304347826087 0 0  1.189565217391304 0 0  1.197826086956522 0 0  1.206086956521739 0 0  1.214347826086956 0 0  1.222608695652174 0 0  1.230869565217391 0 0  1.239130434782609 0 0  1.247391304347826 0 0  1.255652173913044 0 0  1.263913043478261 0 0  1.272173913043478 0 0  1.280434782608696 0 0  1.288695652173913 0 0  1.296956521739131 0 0  1.305217391304348 0 0  1.313478260869565 0 0  1.321739130434783 0 0  1.33 0 0  1.338260869565217 0 0  1.346521739130435 0 0  1.354782608695652 0 0  1.36304347826087 0 0  1.371304347826087 0 0  1.379565217391304 0 0  1.387826086956522 0 0  1.396086956521739 0 0  1.404347826086957 0 0  1.412608695652174 0 0  1.420869565217391 0 0  1.429130434782609 0 0  1.437391304347826 0 0  1.445652173913043 0 0  1.453913043478261 0 0  1.462173913043478 0 0  1.470434782608696 0 0  1.478695652173913 0 0  1.486956521739131 0 0  1.495217391304348 0 0  1.503478260869565 0 0  1.511739130434782 0 0  1.52 0 0  1.528260869565217 0 0  1.536521739130435 0 0  1.544782608695652 0 0  1.55304347826087 0 0  1.561304347826087 0 0  1.569565217391304 0 0  1.577826086956522 0 0  1.586086956521739 0 0  1.594347826086957 0 0  1.602608695652174 0 0  1.610869565217391 0 0  1.619130434782609 0 0  1.627391304347826 0 0  1.635652173913043 0 0  1.643913043478261 0 0  1.652173913043478 0 0  1.660434782608696 0 0  1.668695652173913 0 0  1.67695652173913 0 0  1.685217391304348 0 0  1.693478260869565 0 0  1.701739130434782 0 0  1.71 0 0  1.718260869565217 0 0  1.726521739130435 0 0  1.734782608695652 0 0  1.743043478260869 0 0  1.751304347826087 0 0  1.759565217391304 0 0  1.767826086956522 0 0  1.776086956521739 0 0  1.784347826086957 0 0  1.792608695652174 0 0  1.800869565217391 0 0  1.809130434782608 0 0  1.817391304347826 0 0  1.825652173913043 0 0  1.833913043478261 0 0  1.842173913043478 0 0  1.850434782608696 0 0  1.858695652173913 0 0  1.86695652173913 0 0  1.875217391304348 0 0  1.883478260869565 0 0  1.891739130434782 0 0  1.9 0 0  1.908260869565217 0 0  1.916521739130435 0 0  1.924782608695652 0 0  1.933043478260869 0 0  1.941304347826087 0 0  1.949565217391304 0 0  1.957826086956522 0 0  1.966086956521739 0 0  1.974347826086956 0 0  1.982608695652174 0 0  1.990869565217391 0 0  1.999130434782608 0 0  2.007391304347826 0 0  2.015652173913043 0 0  2.023913043478261 0 0  2.032173913043478 0 0  2.040434782608695 0 0  2.048695652173913 0 0  2.05695652173913 0 0  2.065217391304348 0 0  2.073478260869565 0 0  2.081739130434782 0 0  2.09 0 0  2.098260869565217 0 0  2.106521739130435 0 0  2.114782608695652 0 0  2.12304347826087 0 0  2.131304347826087 0 0  2.139565217391304 0 0  2.147826086956522 0 0  2.156086956521739 0 0  2.164347826086956 0 0  2.172608695652174 0 0  2.180869565217391 0 0  2.189130434782609 0 0  2.197391304347826 0 0  2.205652173913043 0 0  2.213913043478261 0 0  2.222173913043478 0 0  2.230434782608695 0 0  2.238695652173913 0 0  2.24695652173913 0 0  2.255217391304348 0 0  2.263478260869565 0 0  2.271739130434783 0 0  2.28 0 0  2.288260869565217 0 0  2.296521739130434 0 0  2.304782608695652 0 0  2.31304347826087 0 0  2.321304347826087 0 0  2.329565217391304 0 0  2.337826086956521 0 0  2.346086956521739 0 0  2.354347826086956 0 0  2.362608695652174 0 0  2.370869565217391 0 0  2.379130434782609 0 0  2.387391304347826 0 0  2.395652173913044 0 0  2.403913043478261 0 0  2.412173913043478 0 0  2.420434782608695 0 0  2.428695652173913 0 0  2.43695652173913 0 0  2.445217391304348 0 0  2.453478260869565 0 0  2.461739130434782 0 0  2.47 0 0  2.478260869565217 0 0  2.486521739130435 0 0  2.494782608695652 0 0  2.503043478260869 0 0  2.511304347826087 0 0  2.519565217391305 0 0  2.527826086956522 0 0  2.536086956521739 0 0  2.544347826086956 0 0  2.552608695652174 0 0  2.560869565217391 0 0  2.569130434782608 0 0  2.577391304347826 0 0  2.585652173913043 0 0  2.593913043478261 0 0  2.602173913043478 0 0  2.610434782608696 0 0  2.618695652173913 0 0  2.62695652173913 0 0  2.635217391304348 0 0  2.643478260869565 0 0  2.651739130434783 0 0  2.66 0 0  2.668260869565217 0 0  2.676521739130435 0 0  2.684782608695652 0 0  2.693043478260869 0 0  2.701304347826087 0 0  2.709565217391304 0 0  2.717826086956522 0 0  2.726086956521739 0 0  2.734347826086956 0 0  2.742608695652174 0 0  2.750869565217391 0 0  2.759130434782609 0 0  2.767391304347826 0 0  2.775652173913044 0 0  2.783913043478261 0 0  2.792173913043478 0 0  2.800434782608696 0 0  2.808695652173913 0 0  2.81695652173913 0 0  2.825217391304347 0 0  2.833478260869565 0 0  2.841739130434783 0 0  2.85 0 0  2.858260869565217 0 0  2.866521739130435 0 0  2.874782608695652 0 0  2.88304347826087 0 0  2.891304347826087 0 0  2.899565217391304 0 0  2.907826086956522 0 0  2.916086956521739 0 0  2.924347826086957 0 0  2.932608695652174 0 0  2.940869565217391 0 0  2.949130434782608 0 0  2.957391304347826 0 0  2.965652173913043 0 0  2.973913043478261 0 0  2.982173913043478 0 0  2.990434782608696 0 0  2.998695652173913 0 0  3.006956521739131 0 0  3.015217391304348 0 0  3.023478260869565 0 0  3.031739130434782 0 0  3.04 0 0  3.048260869565218 0 0  3.056521739130435 0 0  3.064782608695652 0 0  3.073043478260869 0 0  3.081304347826087 0 0  3.089565217391304 0 0  3.097826086956522 0 0  3.106086956521739 0 0  3.114347826086956 0 0  3.122608695652174 0 0  3.130869565217391 0 0  3.139130434782609 0 0  3.147391304347826 0 0  3.155652173913043 0 0  3.163913043478261 0 0  3.172173913043478 0 0  3.180434782608696 0 0  3.188695652173913 0 0  3.19695652173913 0 0  3.205217391304347 0 0  3.213478260869565 0 0  3.221739130434782 0 0  3.23 0 0  3.238260869565217 0 0  3.246521739130435 0 0  3.254782608695652 0 0  3.26304347826087 0 0  3.271304347826087 0 0  3.279565217391304 0 0  3.287826086956521 0 0  3.296086956521739 0 0  3.304347826086957 0 0  3.312608695652174 0 0  3.320869565217391 0 0  3.329130434782608 0 0  3.337391304347826 0 0  3.345652173913043 0 0  3.353913043478261 0 0  3.362173913043478 0 0  3.370434782608696 0 0  3.378695652173913 0 0  3.386956521739131 0 0  3.395217391304348 0 0  3.403478260869565 0 0  3.411739130434782 0 0  3.419999999999999 0 0  3.428260869565217 0 0  3.436521739130435 0 0  3.444782608695652 0 0  3.453043478260869 0 0  3.461304347826087 0 0  3.469565217391304 0 0  3.477826086956522 0 0  3.486086956521739 0 0  3.494347826086956 0 0  3.502608695652174 0 0  3.510869565217391 0 0  3.519130434782609 0 0  3.527391304347826 0 0  3.535652173913043 0 0  3.54391304347826
[...]
<PointData  Scalars="rho"> 
<DataArray  type="Float64"  Name="rho"  format="ascii">9.9990490175800062e-01  9.9985630641851730e-01  9.9985391650759381e-01  9.9987484195946918e-01  9.9987243655190872e-01  9.9987071644923275e-01  9.9987037959423608e-01  9.9957307482044755e-01  9.9976977693652369e-01  9.9725231780900880e-01  9.9653145993835135e-01  9.9576019177975017e-01  9.9491486765899195e-01  9.9425874714303553e-01  9.9400675180938314e-01  9.9295905206863755e-01  9.8891783905726427e-01  9.7855708793074758e-01  9.7510978985571717e-01  9.7530093472561674e-01  9.7842964256851706e-01  9.8494119078090070e-01  9.9349279190108319e-01  9.9671790241592317e-01  9.9834907770613501e-01  9.9936558636162631e-01  9.9983359673347805e-01  1.0000000000000000e+00  1.0000000000000000e+00  1.0000000000000000e+00  1.0000000000000000e+00  1.0000000000000000e+00  1.0000000000000000e+00  1.0000000000000000e+00  1.0000000000000000e+00  1.0000000000000000e+00  1.0000000000000000e+00  1.0000000000000000e+00  1.0000000000000000e+00  1.0000000000000000e+00  1.0000000000000000e+00  9.9999607823810455e-01  9.9997705042203278e-01  9.9929589421132436e-01  9.9658291810070831e-01  7.5148688647290496e-01  4.8771680788968075e-01  3.7822098745867827e-01  5.0640199460214075e-01  8.2850449279119021e-01  9.8384672000323170e-01  9.8777099467167806e-01  9.9087149413596864e-01  9.8091094754967634e-01  9.9490220447880506e-01  9.9987805859784318e-01  9.9993279915629241e-01  9.9994642679351664e-01  9.9995575792582347e-01  9.9996119597033239e-01  9.9996964794905319e-01  9.9996386577037966e-01  9.9996296553368613e-01  9.9996163328865773e-01  9.9994983156851758e-01  9.9905436117000013e-01  9.9774351177982956e-01  9.9723908364426406e-01  9.9690780264712953e-01  9.9451964412288973e-01  9.9398811907286400e-01  9.9369132506153912e-01  9.9342560499864230e-01  9.9318861695409755e-01  9.9293872583136766e-01  9.9092942479078550e-01  9.9065613412125819e-01  9.9040056294689460e-01  9.9019169060725654e-01  9.9004657445231570e-01  9.9095515229535214e-01  9.9192703153201345e-01  9.8809225563843039e-01  9.8820145063605291e-01  9.8837226320763505e-01  9.8855393086778198e-01  9.8785486864842054e-01  9.8840857717691444e-01  9.8910423534711989e-01  9.8441573452525255e-01  9.8402018302285121e-01  9.8407373086505534e-01  9.8394647177814054e-01  9.8416866280762949e-01  9.8473085617414924e-01  9.8570330794478467e-01  9.8702740527606914e-01  9.8864259702144519e-01  9.9044787685375457e-01  9.9230305703190136e-01  9.9404062632764512e-01  9.9549547561921392e-01  9.9655053554765927e-01  9.9717033203799421e-01  9.9893315368496605e-01  9.9695544958897742e-01  9.9468853272075763e-01  9.9262150047828723e-01  9.9082972866340546e-01  9.8941607880501259e-01  9.8832252453379343e-01  9.8934363307354489e-01  9.9125221843233402e-01  9.9021987199466288e-01  9.8661454823544670e-01  9.8611165980109550e-01  9.8570672529844228e-01  9.8822206023346559e-01  9.8701797766417176e-01  9.8683592891496918e-01  9.8689717746898176e-01  9.8679593289220890e-01  9.8483055135377484e-01  9.8435949475314410e-01  9.8389386505878584e-01  9.8342372289300684e-01  9.8294332011299890e-01  9.8242615578230308e-01  9.8190777955076658e-01  9.8138603767047983e-01  9.7955816455717282e-01  9.7870879702008418e-01  9.7738676245094258e-01  9.7619275550869700e-01  9.7453330015480100e-01  9.8469836137666678e-01  9.8402187327140911e-01  9.8409092523669039e-01  9.8368842205545826e-01  9.8379941696630480e-01  9.8344945546937168e-01  9.8316216404792278e-01  9.8293556490400114e-01  9.8276182725080996e-01  9.8262927762355112e-01  9.8124002108102737e-01  9.8108669943671722e-01  9.7806808150061519e-01  9.7804223232119436e-01  9.7801134249478860e-01  9.7799016311242870e-01  9.7834120962133986e-01  9.7870426613195671e-01  9.7939207956195617e-01  9.8047415131524218e-01  9.8159907414931158e-01  9.8276206415169809e-01  9.8029751870367532e-01  9.8034153536449808e-01  9.8093842070813986e-01  9.8166437788601557e-01  9.8244307069468961e-01  9.8334863405462392e-01  9.7960246876502610e-01  9.8301791914758319e-01  9.8413382781672987e-01  9.8065603112643096e-01  9.8802906252691391e-01  9.8985374526054160e-01  9.9216919479987298e-01  9.9491868333147160e-01  9.8868419461092594e-01  9.8875243474766483e-01  9.8940830445011618e-01  9.9340066382705150e-01  9.9616146908246161e-01  9.9746927228514015e-01  9.9658914129855747e-01  9.7864490458955178e-01  9.9751458426479345e-01  9.8584676350822609e-01  9.7297715663163686e-01  9.5102756570870284e-01  8.7006121558930305e-01  8.8469399475620281e-01  9.0544465153711984e-01  9.4344753737726228e-01  9.7451748764046497e-01  9.9142676705324817e-01  9.9429073636086607e-01  9.9714967751447781e-01  9.9606617155647825e-01  9.9621344378035170e-01  9.9593013280393072e-01  9.9528123428870552e-01  9.8760264020241184e-01  9.7856443627438250e-01  9.7093569493134735e-01  9.6601541784376810e-01  9.6463833692470069e-01  9.6537692936209463e-01  9.3179630458334428e-01  9.5022430417919745e-01  9.0488104042391038e-01  9.0588538481167058e-01  9.0070841544269287e-01  8.9995059126510724e-01  8.7274744669631232e-01  8.6409694151298644e-01  8.6093694857113079e-01  8.4926170381605881e-01  8.3822760803237195e-01  8.8910280934251140e-01  9.4384804512559251e-01  9.5498009997708688e-01  9.6147439404980606e-01  9.7468237227095800e-01  9.7330280890612741e-01  9.7529581711945801e-01  9.7774458926245467e-01  9.7891099914230018e-01  9.7972918926256047e-01  9.8703607834534701e-01  9.9464598656894221e-01  9.9215694889896844e-01  9.9141945184195157e-01  9.9087270172347108e-01  9.9048982119056861e-01  9.8853754428265883e-01  9.8642494644230283e-01  9.8552915421969012e-01  9.8182506960869242e-01  9.8180054228646385e-01  9.8177704461788995e-01  9.8166616340301283e-01  9.8142824892417924e-01  9.8105794462429585e-01  9.8059701300460544e-01  9.7225164817594678e-01  9.7188688390331679e-01  9.7156164031782388e-01  9.7127253317744078e-01  9.7100634070186875e-01  9.7075573003565341e-01  9.7052381972517265e-01  9.7820777470016740e-01  9.7799486010756309e-01  9.7783889717897698e-01  9.7774908641872971e-01  9.7771259538564659e-01  9.7769121043650098e-01  9.7762364309709626e-01  9.7743496311682043e-01  9.7705584176101057e-01  9.7643849802385585e-01  9.7559757529393820e-01  9.7462308126495167e-01  9.7367456771285632e-01  9.6970524661504232e-01  9.6943875469963969e-01  9.6961911084221131e-01  9.7025788143691249e-01  9.7130757933395662e-01  9.7267385268472206e-01  9.7422728255201518e-01  9.7580645038697811e-01  9.7725493770006622e-01  9.7841282424672049e-01  9.6615315975972105e-01  9.6682988661313796e-01  9.6716884962799166e-01  9.8192413561252567e-01  9.7219097386243303e-01  9.7288339364510634e-01  9.7411874044889357e-01  9.6481892417011583e-01  9.6915247807048976e-01  9.8040107568606671e-01  9.8449636492652159e-01  9.8420920483623309e-01  9.8420547941448022e-01  9.8409554744735428e-01  9.9036457502622888e-01  9.9762593475797923e-01  9.9745348376289966e-01  9.7446745153214465e-01  9.4291609537889909e-01  9.2718613488162294e-01  8.5211620505265162e-01  8.6182181240135958e-01  8.6376247100407022e-01  8.5714739260861539e-01  8.5673888859770186e-01  8.6155172891560472e-01  8.9430359914047908e-01  8.8566259479261855e-01  8.8739176885045146e-01  8.8879764545098150e-01  9.0010848617717842e-01  8.9901605761722025e-01  8.9631903653084988e-01  8.5956756891253605e-01  8.0686609747809868e-01  8.6813800149372400e-01  9.2088685064762643e-01  9.1547976675810017e-01  9.8445271728752926e-01  9.8538296364561084e-01  9.8579235916380781e-01  9.8699871688998220e-01  9.8598221324067759e-01  9.8463877889906826e-01  9.8370712488176570e-01  9.8296003048601921e-01  9.8206753905367794e-01  9.8291137592514255e-01  9.8314008255229202e-01  9.8388599522568654e-01  9.8448188370386969e-01  9.7051244794177483e-01  9.7277030902652251e-01  9.7599786747673878e-01  9.7945836203559411e-01  9.8108897685201990e-01  9.8100252642300767e-01  9.8109914281607180e-01  9.7881314174946743e-01  9.8746875610803353e-01  9.8686469636214291e-01  9.8628084965727458e-01  9.8569864387902417e-01  9.8518428752477916e-01  9.7131986309204843e-01  9.7075259398778602e-01  9.7020584717079217e-01  9.6999956146992261e-01  9.6963605778177053e-01  9.6934517576394996e-01  9.6973027852392713e-01  9.7048112902666139e-01  9.7144436940666490e-01  9.7233709797071333e-01  9.7453408957826382e-01  9.7522436004547985e-01  9.7616670363570968e-01  9.7652198744682539e-01  9.7673335974452913e-01  9.7666358593014246e-01  9.7666987244801629e-01  9.7659481072172494e-01  9.7644275959859972e-01  9.7621095948402603e-01  9.7589611283789668e-01  9.7554739096826726e-01  9.7517178590200915e-01  9.7483523485923385e-01  9.7460502287718953e-01  9.7457056128678321e-01  9.7482217981050201e-01  9.7596391703928298e-01  9.7737266333702777e-01  9.7938938313564539e-01  9.8757769713894372e-01  9.8943248462608702e-01  9.9145675274768885e-01  9.9316255218972671e-01  9.9423465626697005e-01  9.9358126779125555e-01  9.9265087541898334e-01  9.9015589360708933e-01  9.8254377796153647e-01  9.1185963569310813e-01  9.2758100000435850e-01  9.0052844647293806e-01  8.9064852567296271e-01  7.0168956231909696e-01  6.2431587583985293e-01  6.2220465139150261e-01  4.1587725280358934e-01  4.0024297932312064e-01  3.8533714478244968e-01  3.5205090715188714e-01  3.4318431106447805e-01  2.8926922663247573e-01  2.3377785859790370e-01  6.4667012158471800e-04  0.0000000000000000e+00  0.0000000000000000e+00  0.0000000000000000e+00  0.0000000000000000e+00  0.0000000000000000e+00  0.0000000000000000e+00  5.2429617499799713e-03  7.4381466634505051e-03  8.1738892061195365e-03  7.7287635990323207e-03  1.1583354504314887e-02  9.9973510132697081e-03  8.4612137219297109e-03  4.8212960573004275e-03  6.2453387693989478e-03  3.8062198333164133e-03  4.2292705788973964e-03  3.4201172461642703e-03  2.5287323748959365e-03  1.7848324570567265e-03  1.3657610216964620e-03  4.6294480236055497e-04  2.9085401413183259e-04  1.8662823564569248e-04  1.4614578967902920e-04  1.1385963920243399e-04  6.2806739188169463e-05  2.7855598869830601e-05  1.9650951523734018e-05  1.3506102528953383e-05  8.4652707533216110e-06  4.5542899582616484e-06  1.6508733518477531e-06  1.5648135086241145e-07  6.9139482629834770e-08  4.1333423157338570e-08  6.6881244395074183e-09  0.0000000000000000e+00  0.0000000000000000e+00  0.0000000000000000e+00  0.0000000000000000e+00  0.0000000000000000e+00  0.0000000000000000e+00  0.0000000000000000e+00  0.0000000000000000e+00  0.0000000000000000e+00  0.0000000000000000e+00  0.0000000000000000e+00  0.0000000000000000e+00  0.0000000000000000e+00  0.0000000000000000e+00  0.0000000000000000e+00  0.0000000000000000e+00  0.0000000000000000e+00  0.0000000000000000e+00  0.0000000000000000e+00  0.0000000000000000e+00  0.0000000000000000e+00  0.0000000000000000e+00  0.0000000000000000e+00  0.0000000000000000e+00  0.0000000000000000e+00  0.0000000000000000e+00  0.0000000000000000e+00  0.0000000000000000e+00  0.0000000000000000e+00  0.0000000000000000e+00  0.0000000000000000e+00  0.0000000000000000e+00  0.0000000000000000e+00  0.0000000000000000e+00  0.0000000000000000e+00  0.0000000000000000e+00  0.0000000000000000e+00  0.0000000000000000e+00  9.9985063656204953e-01  9.9970331097300924e-01  9.9969839396444227e-01  9.9974118759833575e-01  9.9973547844610944e-01  9.9973092423888632e-01  9.9972906278409779e-01  9.9971618799455064e-01  9.9970791748896248e-01  9.9401228169568667e-01  9.9333165947479640e-01  9.9165271697981783e-01  9.8995294429572001e-01  9.8862481692725312e-01  9.8705289179397437e-01  9.8595603287259637e-01  9.7789178182769299e-01  9.5690572171933730e-01  9.5162235191349198e-01  9.4799906696962755e-01  9.5303102007867591e-01  9.6656542228865283e-01  9.8165555894232126e-01  9.9211927017813395e-01  9.9693052786085934e-01  9.9888446883335624e-01  9.9934104343153940e-01  1.0000000000000000e+00  1.0000000000000000e+00  1.0000000000000000e+00  1.0000000000000000e+00  1.0000000000000000e+00  1.0000000000000000e+00  1.0000000000000000e+00  1.0000000000000000e+00  1.0000000000000000e+00  1.0000000000000000e+00  1.0000000000000000e+00  1.0000000000000000e+00  1.0000000000000000e+00  1.0000000000000000e+00  9.9999819421685587e-01  9.9995289062298087e-01  9.9966556155191744e-01  9.9411572515488866e-01  8.2648623194269988e-01  3.2484225051328003e-01  2.1754092519292401e-01  2.2767313807087552e-01  5.4122672988480214e-01  9.6788131162728808e-01  9.6716314184975383e-01  9.5100391650611504e-01  9.3972556501300741e-01  9.8803000361627824e-01  9.9820447001911816e-01  9.9985998725307634e-01  9.9988981663968035e-01  9.9990997678478033e-01  9.9993457678822661e-01  9.9993857618647652e-01  9.9993877253621088e-01  9.9992418572752573e-01  9.9992091056441701e-01  9.9919524912576241e-01  9.9688532931364493e-01  9.9436273160566691e-01  9.9338297508794782e-01  9.9273107540009287e-01  9.8862006248420276e-01  9.8759975428478064e-01  9.8701878689346811e-01  9.8649666562830651e-01  9.8602635851054721e-01  9.8552288968675639e-01  9.8411896185996139e-01  9.8110955442235714e-01  9.8057469664015540e-01  9.8012527318546672e-01  9.7981862752671889e-01  9.8142580307511118e-01  9.8077539314151374e-01  9.7589203038367600e-01  9.7610773605755985e-01  9.7644573939990031e-01  9.7680467067313792e-01  9.7577739470018710e-01  9.7690806222517201e-01  9.7832158776392064e-01  9.7049529881368490e-01  9.7020781504810616e-01  9.7047238150910253e-01  9.7019587000699092e-01  9.7054863122150503e-01  9.7157110869649055e-01  9.7320341992699033e-01  9.7553935393118374e-01  9.7840796558782295e-01  9.8163960147179741e-01  9.8499942354423375e-01  9.8820041248301482e-01  9.9094623168021756e-01  9.9301509763165796e-01  9.9432686508116574e-01  9.9756183486385130e-01  9.9269273445527828e-01  9.8934742754279925e-01  9.8538181875180020e-01  9.8196505778084531e-01  9.7927286995549179e-01  9.7721700182785465e-01  9.7944931249237988e-01  9.8359272845161394e-01  9.8165976398247046e-01  9.7354778153045873e-01  9.7254806202117183e-01  9.7172432536806252e-01  9.7105637214559715e-01  9.7508638418318361e-01  9.7471283048725255e-01  9.7485140583159380e-01  9.7466579722068503e-01  9.7032873910366468e-01  9.6927443547432979e-01  9.6834032427689287e-01  9.6740039983342407e-01  9.6644520453107807e-01  9.6542362055679343e-01  9.6441421121791349e-01  9.6342285469383193e-01  9.6035777099022535e-01  9.5876035537093218e-01  9.5631391720022763e-01  9.5401673947152388e-01  9.5108453379870361e-01  9.7011811626417133e-01  9.6876886552231511e-01  9.6855969216634441e-01  9.6774255675415954e-01  9.6797059206627678e-01  9.6725296077245926e-01  9.6666204442839931e-01  9.6619497989156622e-01  9.6583666603737484e-01  9.6556340706839139e-01  9.6321502959613836e-01  9.6275482251025357e-01  9.5751136250714919e-01  9.5739426211365775e-01  9.5725299821783516e-01  9.5732427869959302e-01  9.5779171902807769e-01  9.5827417075043508e-01  9.5910880727462355e-01  9.6087109995880893e-01  9.6271378630836624e-01  9.6461856690675640e-01  9.6067199792625779e-01  9.6039288126028666e-01  9.6145826790842925e-01  9.6258683992579586e-01  9.6398712811348441e-01  9.6552414633416050e-01  9.5905220597728635e-01  9.6437272840356092e-01  9.6619784791838514e-01  9.6063495880153604e-01  9.7163209547963569e-01  9.7587982908837900e-01  9.7982424633750176e-01  9.8457815608866894e-01  9.7696121024259808e-01  9.7682217445714492e-01  9.7722051362033291e-01  9.8247214988164977e-01  9.8793521171712451e-01  9.9106315205962670e-01  9.9040731062152554e-01  9.4187018141876111e-01  9.9700437735347047e-01  9.7147658514371960e-01  9.4571664311348458e-01  8.5797248694885930e-01  7.5021796768406335e-01  7.7791764606001457e-01  8.1478338041793041e-01  8.9633915458842739e-01  9.5057765275892281e-01  9.8293455038795274e-01  9.8865799383327524e-01  9.9433686723324954e-01  9.9358895875161402e-01  9.9411739664188181e-01  9.9387386488093687e-01  9.9294401424625123e-01  9.8070099193726623e-01  9.6269667862530917e-01  9.4733411608427198e-01  9.3790754803315612e-01  9.3565781274259041e-01  8.5605291566555375e-01  8.6775348277223308e-01  9.0193431087934317e-01  8.6801226355449290e-01  8.7780900723945698e-01  8.7937158776629243e-01  8.8663954073330598e-01  8.4110243120879724e-01  8.3939310870922124e-01  8.1843502104928700e-01  7.8069571230413359e-01  7.3015163622453716e-01  7.6978903219834471e-01  9.0229036717461153e-01  9.4056302786114776e-01  9.1536032096601083e-01  9.2141407347058701e-01  9.4940779542447529e-01  9.5140916998760272e-01  9.5420148039730346e-01  9.5755489321798670e-01  9.5921477723561588e-01  9.6579773533527691e-01  9.8950588303065423e-01  9.8544223047873958e-01  9.8407753880657500e-01  9.8299431063613185e-01  9.7659360920296667e-01  9.7000894566440155e-01  9.6664193421491273e-01  9.6511336804493209e-01  9.5942748320511217e-01  9.5962435093986265e-01  9.5976957534199392e-01  9.5973121624262270e-01  9.5944193846871628e-01  9.5887459541320719e-01  9.4518022251224243e-01  9.4450175974872896e-01  9.4387147241734359e-01  9.4334124399507846e-01  9.4289808033328326e-01  9.4250492062429780e-01  9.4213952912182963e-01  9.4180316157141197e-01  9.4151460970862899e-01  9.4130025526044325e-01  9.5427173402087362e-01  9.5421682019233511e-01  9.5426938646363180e-01  9.5436476446273688e-01  9.5438986313194829e-01  9.5419723121417599e-01  9.5363930957754861e-01  9.5259702583245776e-01  9.4060114499896763e-01  9.3987939746582871e-01  9.3917815353956136e-01  9.3585421356350673e-01  9.3932013409064519e-01  9.3952655681162989e-01  9.4063927406026815e-01  9.4257634900756671e-01  9.4516412670685113e-01  9.4816177122880041e-01  9.5126193749017984e-01  9.5415519879916633e-01  9.5651075174544098e-01  9.3707335708799677e-01  9.3770218713769604e-01  9.3830867267240026e-01  9.6274847933310514e-01  9.4477327460097549e-01  9.4567138335210843e-01  9.4737690324540702e-01  9.3179690028620599e-01  9.3153262634927736e-01  9.6152288877225989e-01  9.6942263787564142e-01  9.6893999754339155e-01  9.6898395163587070e-01  9.6881494105518606e-01  9.7945867963861377e-01  9.9522432756332435e-01  9.9489991351040241e-01  9.4855896791314842e-01  9.0016696916977679e-01  8.7492998685268153e-01  7.8848762437094844e-01  8.0188218978118286e-01  8.1038131031277572e-01  7.9963289524416559e-01  8.0399899631035121e-01  8.1152130131584588e-01  8.5526150014488456e-01  8.6033936694511548e-01  8.6276889624101194e-01  8.6367769299309427e-01  8.6216940508860962e-01  8.7134395240468343e-01  8.6263525024550447e-01  7.7941954642926936e-01  6.7901058177188345e-01  7.1748863031620191e-01  8.4553570308119985e-01  8.2643214032798984e-01  8.8762281589241998e-01  9.7009560098513081e-01  9.7106043808902165e-01  9.5619791636202900e-01  9.7166481063630450e-01  9.6949139520548666e-01  9.6781205211674270e-01  9.6599146471417463e-01  9.6467202903055149e-01  9.6601524445183906e-01  9.6613551360538785e-01  9.6695955600369687e-01  9.5212354228385854e-01  9.2941475394472306e-01  9.3282272551103551e-01  9.3907874726658236e-01  9.4573162375155884e-01  9.5176010247499898e-01  9.5571619786293927e-01  9.5916836460146060e-01  9.5894443393316919e-01  9.7455868991388439e-01  9.7330217828336507e-01  9.7146990740826966e-01  9.6990622395845572e-01  9.6842584117738795e-01  9.4059551749090931e-01  9.3981037284229874e-01  9.3914649648978354e-01  9.3875653682872906e-01  9.3865265388563512e-01  9.3817980055549410e-01  9.3775172404620255e-01  9.4231295384635660e-01  9.4406916048919287e-01  9.4596802204593555e-01  9.5057371187077000e-01  9.5203063533581556e-01  9.5397901756839587e-01  9.5469507515722274e-01  9.5270338006035149e-01  9.5302987387505245e-01  9.5521711147895416e-01  9.5493287602215893e-01  9.5471198374210064e-01  9.5435770450656476e-01  9.5386684058736892e-01  9.5331779540004546e-01  9.5270633401844140e-01  9.5214580770844481e-01  9.5175708893533739e-01  9.5169783833878085e-01  9.5213356592870113e-01  9.5367300358525764e-01  9.5608324150389812e-01  9.5949147434247173e-01  9.7335461128699874e-01  9.7656911289626092e-01  9.8039518665622249e-01  9.8263221782219023e-01  9.8488576005801776e-01  9.8518995373719831e-01  9.8199596200456196e-0