<?xml version="1.0"?>
<VTKFile type="UnstructuredGrid"  version="0.1"  >
<UnstructuredGrid>
<Piece  NumberOfPoints="28121" NumberOfCells="55200">
<Points>
<DataArray  type="Float64"  NumberOfComponents="3"  format="ascii">0 0 0  0.008260869565217391 0 0  0.01652173913043478 0 0  0.02478260869565217 0 0  0.03304347826086956 0 0  0.04130434782608695 0 0  0.04956521739130434 0 0  0.05782608695652174 0 0  0.06608695652173913 0 0  0.07434782608695652 0 0  0.08260869565217391 0 0  0.0908695652173913 0 0  0.09913043478260869 0 0  0.1073913043478261 0 0  0.1156521739130435 0 0  0.1239130434782609 0 0  0.1321739130434783 0 0  0.1404347826086956 0 0  0.148695652173913 0 0  0.1569565217391304 0 0  0.1652173913043478 0 0  0.1734782608695652 0 0  0.1817391304347826 0 0  0.19 0 0  0.1982608695652174 0 0  0.2065217391304348 0 0  0.2147826086956522 0 0  0.2230434782608696 0 0  0.2313043478260869 0 0  0.2395652173913043 0 0  0.2478260869565218 0 0  0.2560869565217391 0 0  0.2643478260869565 0 0  0.2726086956521739 0 0  0.2808695652173913 0 0  0.2891304347826087 0 0  0.2973913043478261 0 0  0.3056521739130434 0 0  0.3139130434782609 0 0  0.3221739130434783 0 0  0.3304347826086956 0 0  0.338695652173913 0 0  0.3469565217391304 0 0  0.3552173913043478 0 0  0.3634782608695652 0 0  0.3717391304347826 0 0  0.3799999999999999 0 0  0.3882608695652174 0 0  0.3965217391304348 0 0  0.4047826086956521 0 0  0.4130434782608696 0 0  0.4213043478260869 0 0  0.4295652173913043 0 0  0.4378260869565217 0 0  0.4460869565217391 0 0  0.4543478260869565 0 0  0.4626086956521739 0 0  0.4708695652173913 0 0  0.4791304347826086 0 0  0.4873913043478261 0 0  0.4956521739130435 0 0  0.5039130434782608 0 0  0.5121739130434783 0 0  0.5204347826086956 0 0  0.528695652173913 0 0  0.5369565217391304 0 0  0.5452173913043478 0 0  0.5534782608695652 0 0  0.5617391304347825 0 0  0.57 0 0  0.5782608695652174 0 0  0.5865217391304348 0 0  0.5947826086956521 0 0  0.6030434782608696 0 0  0.6113043478260869 0 0  0.6195652173913043 0 0  0.6278260869565218 0 0  0.6360869565217391 0 0  0.6443478260869565 0 0  0.6526086956521739 0 0  0.6608695652173913 0 0  0.6691304347826087 0 0  0.677391304347826 0 0  0.6856521739130435 0 0  0.6939130434782609 0 0  0.7021739130434783 0 0  0.7104347826086956 0 0  0.718695652173913 0 0  0.7269565217391304 0 0  0.7352173913043478 0 0  0.7434782608695653 0 0  0.7517391304347827 0 0  0.7599999999999999 0 0  0.7682608695652173 0 0  0.7765217391304348 0 0  0.7847826086956522 0 0  0.7930434782608695 0 0  0.8013043478260868 0 0  0.8095652173913043 0 0  0.8178260869565217 0 0  0.8260869565217391 0 0  0.8343478260869565 0 0  0.8426086956521739 0 0  0.8508695652173912 0 0  0.8591304347826086 0 0  0.8673913043478261 0 0  0.8756521739130434 0 0  0.8839130434782608 0 0  0.8921739130434783 0 0  0.9004347826086956 0 0  0.908695652173913 0 0  0.9169565217391303 0 0  0.9252173913043478 0 0  0.9334782608695652 0 0  0.9417391304347826 0 0  0.95 0 0  0.9582608695652173 0 0  0.9665217391304347 0 0  0.9747826086956521 0 0  0.9830434782608696 0 0  0.991304347826087 0 0  0.9995652173913042 0 0  1.007826086956522 0 0  1.016086956521739 0 0  1.024347826086957 0 0  1.032608695652174 0 0  1.040869565217391 0 0  1.049130434782609 0 0  1.057391304347826 0 0  1.065652173913043 0 0  1.073913043478261 0 0  1.082173913043478 0 0  1.090434782608696 0 0  1.098695652173913 0 0  1.10695652173913 0 0  1.115217391304348 0 0  1.123478260869565 0 0  1.131739130434783 0 0  1.14 0 0  1.148260869565217 0 0  1.156521739130435 0 0  1.164782608695652 0 0  1.17304347826087 0 0  1.181304347826087 0 0  1.189565217391304 0 0  1.197826086956522 0 0  1.206086956521739 0 0  1.214347826086956 0 0  1.222608695652174 0 0  1.230869565217391 0 0  1.239130434782609 0 0  1.247391304347826 0 0  1.255652173913044 0 0  1.263913043478261 0 0  1.272173913043478 0 0  1.280434782608696 0 0  1.288695652173913 0 0  1.296956521739131 0 0  1.305217391304348 0 0  1.313478260869565 0 0  1.321739130434783 0 0  1.33 0 0  1.338260869565217 0 0  1.346521739130435 0 0  1.354782608695652 0 0  1.36304347826087 0 0  1.371304347826087 0 0  1.379565217391304 0 0  1.387826086956522 0 0  1.396086956521739 0 0  1.404347826086957 0 0  1.412608695652174 0 0  1.420869565217391 0 0  1.429130434782609 0 0  1.437391304347826 0 0  1.445652173913043 0 0  1.453913043478261 0 0  1.462173913043478 0 0  1.470434782608696 0 0  1.478695652173913 0 0  1.486956521739131 0 0  1.495217391304348 0 0  1.503478260869565 0 0  1.511739130434782 0 0  1.52 0 0  1.528260869565217 0 0  1.536521739130435 0 0  1.544782608695652 0 0  1.55304347826087 0 0  1.561304347826087 0 0  1.569565217391304 0 0  1.577826086956522 0 0  1.586086956521739 0 0  1.594347826086957 0 0  1.602608695652174 0 0  1.610869565217391 0 0  1.619130434782609 0 0  1.627391304347826 0 0  1.635652173913043 0 0  1.643913043478261 0 0  1.652173913043478 0 0  1.660434782608696 0 0  1.668695652173913 0 0  1.67695652173913 0 0  1.685217391304348 0 0  1.693478260869565 0 0  1.701739130434782 0 0  1.71 0 0  1.718260869565217 0 0  1.726521739130435 0 0  1.734782608695652 0 0  1.743043478260869 0 0  1.751304347826087 0 0  1.759565217391304 0 0  1.767826086956522 0 0  1.776086956521739 0 0  1.784347826086957 0 0  1.792608695652174 0 0  1.800869565217391 0 0  1.809130434782608 0 0  1.817391304347826 0 0  1.825652173913043 0 0  1.833913043478261 0 0  1.842173913043478 0 0  1.850434782608696 0 0  1.858695652173913 0 0  1.86695652173913 0 0  1.875217391304348 0 0  1.883478260869565 0 0  1.891739130434782 0 0  1.9 0 0  1.908260869565217 0 0  1.916521739130435 0 0  1.924782608695652 0 0  1.933043478260869 0 0  1.941304347826087 0 0  1.949565217391304 0 0  1.957826086956522 0 0  1.966086956521739 0 0  1.974347826086956 0 0  1.982608695652174 0 0  1.990869565217391 0 0  1.999130434782608 0 0  2.007391304347826 0 0  2.015652173913043 0 0  2.023913043478261 0 0  2.032173913043478 0 0  2.040434782608695 0 0  2.048695652173913 0 0  2.05695652173913 0 0  2.065217391304348 0 0  2.073478260869565 0 0  2.081739130434782 0 0  2.09 0 0  2.098260869565217 0 0  2.106521739130435 0 0  2.114782608695652 0 0  2.12304347826087 0 0  2.131304347826087 0 0  2.139565217391304 0 0  2.147826086956522 0 0  2.156086956521739 0 0  2.164347826086956 0 0  2.172608695652174 0 0  2.180869565217391 0 0  2.189130434782609 0 0  2.197391304347826 0 0  2.205652173913043 0 0  2.213913043478261 0 0  2.222173913043478 0 0  2.230434782608695 0 0  2.238695652173913 0 0  2.24695652173913 0 0  2.255217391304348 0 0  2.263478260869565 0 0  2.271739130434783 0 0  2.28 0 0  2.288260869565217 0 0  2.296521739130434 0 0  2.304782608695652 0 0  2.31304347826087 0 0  2.321304347826087 0 0  2.329565217391304 0 0  2.337826086956521 0 0  2.346086956521739 0 0  2.354347826086956 0 0  2.362608695652174 0 0  2.370869565217391 0 0  2.379130434782609 0 0  2.387391304347826 0 0  2.395652173913044 0 0  2.403913043478261 0 0  2.412173913043478 0 0  2.420434782608695 0 0  2.428695652173913 0 0  2.43695652173913 0 0  2.445217391304348 0 0  2.453478260869565 0 0  2.461739130434782 0 0  2.47 0 0  2.478260869565217 0 0  2.486521739130435 0 0  2.494782608695652 0 0  2.503043478260869 0 0  2.511304347826087 0 0  2.519565217391305 0 0  2.527826086956522 0 0  2.536086956521739 0 0  2.544347826086956 0 0  2.552608695652174 0 0  2.560869565217391 0 0  2.569130434782608 0 0  2.577391304347826 0 0  2.585652173913043 0 0  2.593913043478261 0 0  2.602173913043478 0 0  2.610434782608696 0 0  2.618695652173913 0 0  2.62695652173913 0 0  2.635217391304348 0 0  2.643478260869565 0 0  2.651739130434783 0 0  2.66 0 0  2.668260869565217 0 0  2.676521739130435 0 0  2.684782608695652 0 0  2.693043478260869 0 0  2.701304347826087 0 0  2.709565217391304 0 0  2.717826086956522 0 0  2.726086956521739 0 0  2.734347826086956 0 0  2.742608695652174 0 0  2.750869565217391 0 0  2.759130434782609 0 0  2.767391304347826 0 0  2.775652173913044 0 0  2.783913043478261 0 0  2.792173913043478 0 0  2.800434782608696 0 0  2.808695652173913 0 0  2.81695652173913 0 0  2.825217391304347 0 0  2.833478260869565 0 0  2.841739130434783 0 0  2.85 0 0  2.858260869565217 0 0  2.866521739130435 0 0  2.874782608695652 0 0  2.88304347826087 0 0  2.891304347826087 0 0  2.899565217391304 0 0  2.907826086956522 0 0  2.916086956521739 0 0  2.924347826086957 0 0  2.932608695652174 0 0  2.940869565217391 0 0  2.949130434782608 0 0  2.957391304347826 0 0  2.965652173913043 0 0  2.973913043478261 0 0  2.982173913043478 0 0  2.990434782608696 0 0  2.998695652173913 0 0  3.006956521739131 0 0  3.015217391304348 0 0  3.023478260869565 0 0  3.031739130434782 0 0  3.04 0 0  3.048260869565218 0 0  3.056521739130435 0 0  3.064782608695652 0 0  3.073043478260869 0 0  3.081304347826087 0 0  3.089565217391304 0 0  3.097826086956522 0 0  3.106086956521739 0 0  3.114347826086956 0 0  3.122608695652174 0 0  3.130869565217391 0 0  3.139130434782609 0 0  3.147391304347826 0 0  3.155652173913043 0 0  3.163913043478261 0 0  3.172173913043478 0 0  3.180434782608696 0 0  3.188695652173913 0 0  3.19695652173913 0 0  3.205217391304347 0 0  3.213478260869565 0 0  3.221739130434782 0 0  3.23 0 0  3.238260869565217 0 0  3.246521739130435 0 0  3.254782608695652 0 0  3.26304347826087 0 0  3.271304347826087 0 0  3.279565217391304 0 0  3.287826086956521 0 0  3.296086956521739 0 0  3.304347826086957 0 0  3.312608695652174 0 0  3.320869565217391 0 0  3.329130434782608 0 0  3.337391304347826 0 0  3.345652173913043 0 0  3.353913043478261 0 0  3.362173913043478 0 0  3.370434782608696 0 0  3.378695652173913 0 0  3.386956521739131 0 0  3.395217391304348 0 0  3.403478260869565 0 0  3.411739130434782 0 0  3.419999999999999 0 0  3.428260869565217 0 0  3.436521739130435 0 0  3.444782608695652 0 0  3.453043478260869 0 0  3.461304347826087 0 0  3.469565217391304 0 0  3.477826086956522 0 0  3.486086956521739 0 0  3.494347826086956 0 0  3.502608695652174 0 0  3.510869565217391 0 0  3.519130434782609 0 0  3.527391304347826 0 0  3.535652173913043 0 0  3.54391304347826
[...]
<PointData  Scalars="rho_bar"> 
<DataArray  type="Float64"  Name="rho_bar"  format="ascii">9.9999832146010004e-01  9.9999796777306149e-01  9.9999759503282160e-01  9.9999702877576246e-01  9.9999677921111796e-01  9.9999743831791943e-01  9.9999906196668564e-01  9.9999974754859855e-01  9.9999557323601596e-01  9.9998573490984843e-01  9.9998230579803327e-01  1.0000039774324299e+00  1.0000319407215037e+00  9.9999193707813039e-01  9.9986956841604191e-01  9.9982070685701840e-01  9.9999549095378748e-01  1.0002792134449627e+00  1.0004214941862510e+00  1.0003658380858771e+00  1.0002530809330539e+00  1.0001791892828102e+00  1.0001086501617744e+00  9.9998446598563273e-01  9.9982664978293290e-01  9.9971345782988830e-01  9.9969808509597957e-01  9.9976320226022508e-01  9.9985111328306409e-01  9.9991660390716353e-01  9.9994724540737001e-01  9.9995375159858702e-01  9.9995348102835158e-01  9.9995803834926711e-01  9.9996829468335147e-01  9.9997817227383146e-01  9.9998361936902636e-01  9.9998620875235389e-01  9.9998845398604352e-01  9.9999045525886121e-01  9.9999186492475911e-01  9.9999260483058849e-01  9.9999289012733705e-01  9.9999393955832361e-01  9.9999057964109805e-01  9.9999046441074202e-01  1.0000017587846124e+00  9.9996221389397510e-01  9.9991832417787418e-01  1.0000779900235777e+00  1.0002495295991833e+00  9.9992394920842398e-01  9.9916116070619754e-01  9.9846367483724074e-01  9.9801445339363626e-01  9.9770040556072659e-01  9.9745459477877296e-01  9.9729129015074480e-01  9.9722857369985840e-01  9.9725628175709935e-01  9.9734270344555875e-01  9.9745477377778757e-01  9.9756844381977150e-01  9.9766807362285448e-01  9.9774455980844612e-01  9.9779463618182562e-01  9.9781991683104609e-01  9.9782512705369819e-01  9.9781719064177266e-01  9.9780440116890601e-01  9.9779357553037984e-01  9.9778658414513000e-01  9.9778024233613238e-01  9.9776969658068837e-01  9.9775181758236964e-01  9.9772566605974555e-01  9.9769122878920924e-01  9.9764802107419481e-01  9.9759530402120800e-01  9.9753436394666739e-01  9.9746973657007365e-01  9.9740685235981119e-01  9.9734979710572802e-01  9.9730107273000079e-01  9.9726170779719847e-01  9.9723094405185864e-01  9.9720636058640733e-01  9.9718497099993886e-01  9.9716479321670592e-01  9.9714484788031921e-01  9.9712453167631465e-01  9.9710349453122105e-01  9.9708183045720522e-01  9.9705996286301624e-01  9.9703854072521003e-01  9.9701824543811834e-01  9.9699992637391666e-01  9.9698451519222986e-01  9.9697243530159463e-01  9.9696281807956488e-01  9.9695410742776236e-01  9.9694513952540731e-01  9.9693510132666341e-01  9.9692300870545314e-01  9.9690840357526633e-01  9.9689171344659144e-01  9.9687371269625247e-01  9.9685496418073460e-01  9.9683563200069270e-01  9.9681523083379620e-01  9.9679307660957406e-01  9.9676868864787127e-01  9.9674170227548409e-01  9.9671155680067913e-01  9.9667765965112898e-01  9.9663956037069701e-01  9.9659719423276960e-01  9.9655079303976757e-01  9.9650087766225959e-01  9.9644834326177445e-01  9.9639468907314555e-01  9.9634167044266164e-01  9.9629098899227120e-01  9.9624381389922056e-01  9.9619980337921266e-01  9.9615672181984738e-01  9.9611244413916422e-01  9.9606686760638019e-01  9.9602228345399324e-01  9.9598186415168188e-01  9.9594750627638373e-01  9.9591947032573103e-01  9.9589823822784052e-01  9.9588501842348398e-01  9.9588017547457497e-01  9.9588177058393224e-01  9.9588666501664813e-01  9.9589184424998933e-01  9.9589467872228143e-01  9.9589294946621343e-01  9.9588537199918747e-01  9.9587177724872766e-01  9.9585348858760048e-01  9.9583260374586047e-01  9.9581016660383459e-01  9.9578604941314408e-01  9.9576106150612942e-01  9.9573652338485097e-01  9.9571273336141286e-01  9.9568927024383647e-01  9.9566582136772586e-01  9.9564187398010995e-01  9.9561707436317470e-01  9.9559144828574098e-01  9.9556492332296487e-01  9.9553687801798774e-01  9.9550693881995778e-01  9.9547541339732926e-01  9.9544316700915392e-01  9.9541110267021171e-01  9.9537958476728916e-01  9.9534779667456386e-01  9.9531470873672023e-01  9.9527946589852412e-01  9.9524110342498273e-01  9.9519965211599826e-01  9.9515671523071136e-01  9.9511350826054212e-01  9.9507147885102620e-01  9.9503435481941571e-01  9.9500730432460993e-01  9.9499348022951006e-01  9.9499536597135074e-01  9.9502004995450410e-01  9.9506764667411285e-01  9.9511595624331561e-01  9.9512981721382909e-01  9.9506993251941067e-01  9.9504735632322550e-01  9.9550024390527525e-01  9.9664979431851963e-01  9.9793733021652320e-01  9.9879698129445504e-01  9.9929767517312862e-01  9.9960660490481246e-01  9.9976204541110791e-01  9.9985674731557228e-01  9.9990772741459044e-01  9.9983096716463649e-01  9.9977999613382929e-01  1.0000674330307080e+00  1.0003125580042378e+00  9.9960342886023057e-01  9.9819858594360655e-01  9.9759670332941341e-01  9.9823681461007774e-01  9.9881686517151091e-01  9.9819602821010089e-01  9.9674400635433535e-01  9.9594212314471553e-01  9.9660681975844967e-01  9.9782462858870447e-01  9.9861487438940877e-01  9.9907055805513656e-01  9.9940227156535566e-01  9.9954134018022955e-01  9.9956601965834513e-01  9.9976694079335604e-01  9.9950946935133178e-01  9.9833370852330505e-01  9.9842588536589649e-01  9.9985064109701938e-01  9.9778692647744005e-01  9.8994523718469274e-01  9.7911567175459890e-01  9.6867305055730968e-01  9.6074804877811526e-01  9.5626166764330511e-01  9.5489222482752645e-01  9.5564328150240263e-01  9.5751167196961584e-01  9.5977541819306611e-01  9.6201835618490883e-01  9.6403655467362226e-01  9.6574611597336268e-01  9.6712401265960501e-01  9.6818471968810871e-01  9.6897554118970475e-01  9.6957818272432750e-01  9.7009314707679906e-01  9.7061096041953598e-01  9.7118365246291016e-01  9.7181744468467701e-01  9.7248585370025042e-01  9.7315863504396427e-01  9.7381958181488204e-01  9.7446356968762837e-01  9.7508322009700721e-01  9.7566784875440515e-01  9.7620906232740201e-01  9.7670890848050462e-01  9.7717838894090947e-01  9.7763135336390428e-01  9.7807761600020104e-01  9.7852229299556359e-01  9.7896601178264553e-01  9.7940766424929770e-01  9.7984508947925775e-01  9.8027709316970901e-01  9.8070340282573820e-01  9.8112586604781482e-01  9.8154772130013990e-01  9.8197362140194000e-01  9.8240702096018362e-01  9.8284974140316383e-01  9.8330170151874086e-01  9.8375869675921968e-01  9.8420669624380219e-01  9.8462649243048816e-01  9.8500243781222685e-01  9.8532639377282250e-01  9.8559701652394438e-01  9.8582038434904296e-01  9.8600685089463025e-01  9.8616783214038306e-01  9.8631467197368139e-01  9.8646109854461339e-01  9.8662199611196388e-01  9.8681053586431711e-01  9.8703505460781515e-01  9.8729883864549051e-01  9.8759866721487066e-01  9.8792495349550047e-01  9.8826228597920474e-01  9.8859147589532548e-01  9.8889266098818651e-01  9.8915090033120989e-01  9.8935682751778731e-01  9.8950525977399706e-01  9.8959456453500494e-01  9.8962946678478969e-01  9.8962735486810727e-01  9.8962731873564047e-01  9.8969592505597359e-01  9.8991559558379472e-01  9.9031166993789421e-01  9.9088537657067699e-01  9.9192144281588990e-01  9.9376783907939858e-01  9.9596037572700669e-01  9.9758998104627039e-01  9.9849236395388363e-01  9.9901855871170986e-01  9.9933715667587419e-01  9.9950824239527492e-01  9.9956965637096484e-01  9.9957757321729923e-01  9.9969248148018441e-01  9.9945205476992005e-01  9.9823427000818232e-01  9.9795800142580127e-01  9.9921265985981877e-01  9.9469663903989258e-01  9.7835262366639630e-01  9.5276702747197461e-01  9.1997401995732342e-01  8.8386005277053314e-01  8.5400676268463638e-01  8.3656738765995398e-01  8.3083864384476569e-01  8.3303249119685874e-01  8.3942378600955181e-01  8.4736132631775118e-01  8.5518215304057699e-01  8.6192080930791115e-01  8.6707693786182916e-01  8.7047516734892605e-01  8.7217083961684017e-01  8.7240451967942068e-01  8.7155894144334090e-01  8.7010603585256441e-01  8.6852315932993363e-01  8.6720812457079977e-01  8.6641773416822165e-01  8.6625684569628381e-01  8.6668556172441946e-01  8.6755412719584413e-01  8.6865529551276788e-01  8.6980487584825306e-01  8.7089927318432547e-01  8.7193483211161293e-01  8.7298517955227639e-01  8.7416813385895342e-01  8.7559785751998698e-01  8.7735291029290885e-01  8.7945651439132211e-01  8.8187916324691185e-01  8.8454282993353117e-01  8.8734309801311140e-01  8.9017172383399656e-01  8.9294422855587963e-01  8.9560542122890952e-01  8.9812772151538001e-01  9.0049641985752371e-01  9.0270331826610184e-01  9.0474120598947705e-01  9.0661242252836993e-01  9.0833617300460756e-01  9.0995802045179131e-01  9.1154376598781883e-01  9.1316997092757413e-01  9.1490723000333440e-01  9.1681608010564863e-01  9.1893970799482549e-01  9.2129349710853570e-01  9.2384421678290163e-01  9.2650174308383926e-01  9.2911594929584862e-01  9.3148537274681864e-01  9.3337195364740877e-01  9.3454311454818828e-01  9.3483267856535901e-01  9.3420363220967262e-01  9.3276238536197187e-01  9.3073852763203124e-01  9.2848662197675169e-01  9.2653538567239324e-01  9.2561748115853537e-01  9.2663244784026966e-01  9.3044792002319487e-01  9.3736795733346256e-01  9.4655715161430976e-01  9.5637813674304095e-01  9.6532142400570686e-01  9.7231213622385715e-01  9.7667143720210925e-01  9.7822161950240205e-01  9.7666684084190936e-01  9.7057617116878825e-01  9.5543069371349321e-01  9.1620703568311523e-01  8.0711563771824746e-01  5.0321291799869494e-01  1.5787291905236511e-01  3.1612612335451006e-02  6.5900418174662740e-03  1.6271735206706255e-03  4.5275188334201698e-04  1.5167389356559932e-04  5.2465127768114400e-05  2.1136189600404776e-05  9.1769710518323070e-06  4.1811082668812740e-06  2.1247981694458146e-06  1.1356611447225694e-06  6.4803351607963773e-07  3.9429738150246191e-07  2.5079874642427054e-07  1.6743179852416638e-07  1.1589571768629604e-07  8.2871077762499234e-08  6.0868659607152960e-08  4.5713972000851678e-08  3.4977695725708689e-08  2.7176129904929210e-08  2.1385174956789582e-08  1.7006081594417904e-08  1.3642084343086363e-08  1.1022838177812660e-08  8.9600277655349005e-09  7.3196117522099791e-09  6.0043547009421233e-09  4.9424617232553992e-09  4.0800995911914209e-09  3.3763018664815114e-09  2.7995263094222615e-09  2.3251804067750970e-09  1.9339283571198166e-09  1.6104111467759372e-09  1.3423441830883782e-09  1.1198309239721341e-09  9.3485783915790709e-10  7.8089810418813288e-10  6.5261829711433426e-10  5.4563712238758186e-10  4.5635383925108512e-10  3.8179196222800858e-10  3.1949262375840894e-10  2.6741482491613588e-10  2.2386585310155408e-10  1.8743761701773329e-10  1.5695782019490025e-10  1.3144945356186141e-10  1.1009784065210138e-10  9.2222722009407060e-11  7.7256512694053327e-11  6.4724917365434047e-11  5.4230937525164881e-11  4.5443009949741113e-11  3.8083542574405845e-11  3.1920714376874185e-11  2.6759848337596686e-11  2.2438315433926285e-11  1.8820048778332090e-11  1.5791439679021002e-11  1.3257080412223486e-11  1.1137215950373091e-11  9.3653334772120773e-12  7.8860176561735331e-12  6.6526304731619933e-12  5.6265834958319658e-12  4.7757299876372323e-12  4.0735441518739074e-12  3.4980548903967550e-12  3.0313212855044518e-12  2.6588621451124958e-12  2.3692159435819197e-12  2.1535898852093231e-12  2.0057390725049411e-12  1.9223486861872743e-12  1.9052120507748979e-12  9.9999709427884675e-01  9.9999772210969606e-01  9.9999802253738590e-01  9.9999873441241371e-01  9.9999914722099192e-01  9.9999815149676652e-01  9.9999468702312344e-01  9.9999013828784344e-01  9.9999051584827137e-01  1.0000025542418027e+00  1.0000172787954777e+00  9.9999759734715754e-01  9.9992645974937433e-01  9.9990282375622819e-01  1.0000634085520441e+00  1.0002680062510980e+00  1.0001123452126017e+00  9.9951697508137871e-01  9.9894023927188913e-01  9.9874792065391405e-01  9.9880022253948175e-01  9.9882503296213643e-01  9.9881639548927148e-01  9.9894126965666952e-01  9.9925952523943173e-01  9.9963869312230902e-01  9.9989592968184959e-01  9.9996614403290740e-01  9.9992098503311755e-01  9.9986497493420212e-01  9.9985340113758991e-01  9.9988558213732148e-01  9.9993283552389778e-01  9.9996730861887173e-01  9.9997922122586458e-01  9.9997819132725607e-01  9.9997846819485947e-01  9.9998323408130485e-01  9.9998756959829638e-01  9.9998961418888277e-01  9.9999097994339803e-01  9.9999186506190640e-01  9.9999284703489799e-01  9.9999230245333026e-01  9.9999046220103438e-01  9.9999736253149474e-01  9.9997659193600374e-01  9.9996324765291111e-01  1.0000730239234776e+00  9.9996019786840984e-01  9.9938387179287813e-01  9.9924377278539667e-01  1.0001251674107905e+00  1.0011340094503638e+00  1.0014450990290402e+00  1.0011869986302393e+00  1.0007365013680103e+00  1.0002912126346577e+00  9.9991546732569325e-01  9.9962336751760250e-01  9.9941826562924119e-01  9.9929421931772389e-01  9.9923334315634482e-01  9.9921622040550218e-01  9.9922974258421537e-01  9.9926578766151641e-01  9.9931704827560075e-01  9.9937565408735007e-01  9.9943335450482851e-01  9.9948064329916619e-01  9.9950864321971600e-01  9.9951540273754169e-01  9.9950881478731923e-01  9.9950163677185511e-01  9.9950297462705817e-01  9.9951494513294770e-01  9.9953535095520574e-01  9.9956184870255216e-01  9.9959428695964991e-01  9.9963235220324320e-01  9.9967071550713582e-01  9.9970078785231997e-01  9.9971682708333898e-01  9.9971760355902894e-01  9.9970497766492750e-01  9.9968326078046799e-01  9.9965851361294000e-01  9.9963717715641842e-01  9.9962285659727912e-01  9.9961529341423216e-01  9.9961265446475289e-01  9.9961320558608224e-01  9.9961531230240153e-01  9.9961754774281120e-01  9.9961872976650967e-01  9.9961818423758630e-01  9.9961548633936326e-01  9.9961008377520699e-01  9.9960151845309697e-01  9.9959093286053380e-01  9.9958115029768635e-01  9.9957421297460858e-01  9.9957009961643184e-01  9.9956859836043443e-01  9.9956952171226476e-01  9.9957141002537386e-01  9.9957205644944236e-01  9.9957003006160683e-01  9.9956487474530720e-01  9.9955736684240049e-01  9.9954894330670874e-01  9.9954034778752121e-01  9.9953124848035102e-01  9.9952125660720159e-01  9.9951017396908337e-01  9.9949776780437272e-01  9.9948329273229009e-01  9.9946552678394218e-01  9.9944312537589541e-01  9.9941494664429154e-01  9.9937966327861338e-01  9.9933605327508934e-01  9.9928370749771189e-01  9.9922337670010042e-01  9.9915746957500262e-01  9.9909138973050027e-01  9.9903084752359683e-01  9.9897696528121693e-01  9.9892524302246855e-01  9.9886923170133035e-01  9.9880671318125724e-01  9.9874347610945025e-01  9.9868887435713638e-01  9.9864927263079772e-01  9.9862630541785502e-01  9.9861964294953820e-01  9.9862727819328345e-01  9.9864367160715461e-01  9.9866090207572644e-01  9.9867208676870212e-01  9.9867257552626809e-01  9.9865993614858550e-01  9.9863307426217129e-01  9.9859153567417758e-01  9.9853751636471233e-01  9.9847807595662919e-01  9.9841997868752386e-01  9.9836506760505317e-01  9.9831304468452009e-01  9.9826365687341601e-01  9.9821487973776424e-01  9.9816342922429102e-01  9.9810608122409317e-01  9.9803999412143418e-01  9.9796357345005804e-01  9.9787817479116747e-01  9.9778673137093177e-01  9.9769077531868844e-01  9.9758899582910621e-01  9.9747828048942677e-01  9.9735559051888301e-01  9.9722141285083732e-01  9.9708041892350163e-01  9.9693861712161591e-01  9.9680168959118443e-01  9.9667201311168285e-01  9.9654222490279021e-01  9.9639510789898589e-01  9.9620609091338952e-01  9.9594202720231639e-01  9.9556385455618812e-01  9.9503928361435034e-01  9.9435692258135933e-01  9.9352974685444218e-01  9.9260935534896433e-01  9.9175096018800013e-01  9.9124374202619614e-01  9.9148275478486658e-01  9.9281279341983186e-01  9.9487191809351683e-01  9.9650391913430614e-01  9.9738561059606468e-01  9.9824450178502944e-01  9.9908443061683294e-01  9.9952048162177176e-01  9.9972477571119367e-01  9.9982880496350701e-01  9.9981545755977386e-01  9.9988351626504690e-01  1.0001110820618027e+00  9.9988058336176733e-01  9.9896857017303020e-01  9.9896657711476333e-01  1.0009198747951706e+00  1.0024208755891966e+00  1.0005861472605573e+00  9.9643031103621849e-01  9.9324767462320640e-01  9.9293550864342262e-01  9.9483043610728139e-01  9.9651833677335422e-01  9.9715222770525125e-01  9.9792787466534050e-01  9.9883790813408158e-01  9.9926939236004497e-01  9.9942999757574502e-01  9.9962553251970654e-01  9.9951577906414457e-01  9.9893708400211267e-01  9.9984889203105942e-01  1.0001862355381690e+00  9.9381492204747102e-01  9.8402935732903241e-01  9.7688621361016748e-01  9.6931353334797477e-01  9.5863585600571266e-01  9.4784977716978869e-01  9.4033595498781997e-01  9.3694104786885068e-01  9.3663859718510978e-01  9.3805399080541862e-01  9.4018357203058034e-01  9.4243879114488571e-01  9.4453082753447115e-01  9.4634130834181995e-01  9.4783379761241149e-01  9.4901349927808776e-01  9.4991724036225056e-01  9.5060491571508898e-01  9.5115636160859596e-01  9.5165805405782689e-01  9.5218339223808945e-01  9.5276962346269267e-01  9.5341368765644863e-01  9.5408858971521482e-01  9.5476664748246820e-01  9.5543305907311216e-01  9.5608127814673571e-01  9.5670242744978340e-01  9.5728770208287983e-01  9.5783398677797837e-01  9.5834886990858559e-01  9.5884589875170423e-01  9.5933828811234589e-01  9.5983323305401247e-01  9.6033336355341004e-01  9.6083728334986129e-01  9.6134289373071424e-01  9.6184776993397936e-01  9.6235176252059840e-01  9.6285691815816898e-01  9.6336922623204924e-01  9.6389733461789373e-01  9.6445285355979549e-01  9.6504662737605207e-01  9.6568064745261450e-01  9.6633594749068807e-01  9.6697915791291289e-01  9.6757677564238909e-01  9.6810546188615221e-01  9.6855396287585005e-01  9.6892461840883037e-01  9.6922739455593665e-01  9.6947546208042534e-01  9.6968524158918745e-01  9.6988124313237023e-01  9.7009418857201590e-01  9.7035761813406007e-01  9.7070302213361082e-01  9.7115593509690834e-01  9.7172704677961430e-01  9.7240532542940239e-01  9.7315683047105750e-01  9.7393055075362645e-01  9.7466848427795660e-01  9.7531762018570467e-01  9.7583122620624485e-01  9.7616631040940161e-01  9.7628686492723660e-01  9.7617685517416752e-01  9.7585727961003421e-01  9.7540991581073333e-01  9.7500478739961138e-01  9.7493976294456464e-01  9.7566329600458457e-01  9.7775578107603844e-01  9.8173815970542877e-01  9.8721867738432445e-01  9.9221360651959567e-01  9.9511292219857217e-01  9.9664741711201954e-01  9.9789666099195373e-01  9.9876165876313061e-01  9.9918379311565908e-01  9.9939821519838712e-01  9.9950063329070249e-01  9.9956820348687869e-01  9.9939505617582824e-01  9.9886582159239679e-01  9.9941274607807495e-01  9.9988651492957414e-01  9.9343939389064329e-01  9.8201488139582804e-01  9.7450892566859837e-01  9.5655660473341919e-01  9.0810675046718869e-01  8.4533832641673234e-01  7.9701935960146986e-01  7.7233613440472437e-01  7.6643198259259859e-01  7.7188657037793729e-01  7.8284205078421021e-01  7.9550825307213335e-01  8.0764144001109495e-01  8.1798002058173025e-01  8.2590408597821718e-01  8.3121376895120103e-01  8.3398861838292082e-01  8.3452345301907827e-01  8.3331103112606542e-01  8.3102527178351715e-01  8.2844717630876241e-01  8.2626172688432764e-01  8.2490934342095645e-01  8.2455229569465149e-01  8.2513416242454429e-01  8.2644010836629778e-01  8.2814896606924715e-01  8.2993344328502672e-01  8.3160490182973990e-01  8.3313930718744500e-01  8.3464263879504053e-01  8.3629441654047576e-01  8.3828388643434260e-01  8.4073512312436105e-01  8.4368643664866261e-01  8.4709248749472643e-01  8.5084573781589901e-01  8.5479118116787922e-01  8.5876345171454838e-01  8.6262817207894904e-01  8.6630615709058589e-01  8.6975590320421370e-01  8.7296502007101306e-01  8.7593351950148490e-01  8.7866731510138474e-01  8.8117344630665029e-01  8.8347482437640956e-01  8.8561224890122081e-01  8.8765442765699654e-01  8.8969256754306747e-01  8.9182092194409746e-01  8.9411018419710075e-01  8.9660267570759278e-01  8.9930295729880727e-01  9.0218116842466978e-01  9.0515236868674265e-01  9.0806996200710188e-01  9.1074799127577521e-01  9.1298674172458039e-01  9.1458751268105798e-01  9.1537080706783813e-01  9.1519573410584742e-01  9.1402686175146808e-01  9.1200498037274647e-01  9.0945980135191307e-01  9.0687755998317177e-01  9.0497188939917184e-01  9.04718980876