<?xml version="1.0"?>
<VTKFile type="UnstructuredGrid"  version="0.1"  >
<UnstructuredGrid>
<Piece  NumberOfPoints="28121" NumberOfCells="55200">
<Points>
<DataArray  type="Float64"  NumberOfComponents="3"  format="ascii">0 0 0  0.008260869565217391 0 0  0.01652173913043478 0 0  0.02478260869565217 0 0  0.03304347826086956 0 0  0.04130434782608695 0 0  0.04956521739130434 0 0  0.05782608695652174 0 0  0.06608695652173913 0 0  0.07434782608695652 0 0  0.08260869565217391 0 0  0.0908695652173913 0 0  0.09913043478260869 0 0  0.1073913043478261 0 0  0.1156521739130435 0 0  0.1239130434782609 0 0  0.1321739130434783 0 0  0.1404347826086956 0 0  0.148695652173913 0 0  0.1569565217391304 0 0  0.1652173913043478 0 0  0.1734782608695652 0 0  0.1817391304347826 0 0  0.19 0 0  0.1982608695652174 0 0  0.2065217391304348 0 0  0.2147826086956522 0 0  0.2230434782608696 0 0  0.2313043478260869 0 0  0.2395652173913043 0 0  0.2478260869565218 0 0  0.2560869565217391 0 0  0.2643478260869565 0 0  0.2726086956521739 0 0  0.2808695652173913 0 0  0.2891304347826087 0 0  0.2973913043478261 0 0  0.3056521739130434 0 0  0.3139130434782609 0 0  0.3221739130434783 0 0  0.3304347826086956 0 0  0.338695652173913 0 0  0.3469565217391304 0 0  0.3552173913043478 0 0  0.3634782608695652 0 0  0.3717391304347826 0 0  0.3799999999999999 0 0  0.3882608695652174 0 0  0.3965217391304348 0 0  0.4047826086956521 0 0  0.4130434782608696 0 0  0.4213043478260869 0 0  0.4295652173913043 0 0  0.4378260869565217 0 0  0.4460869565217391 0 0  0.4543478260869565 0 0  0.4626086956521739 0 0  0.4708695652173913 0 0  0.4791304347826086 0 0  0.4873913043478261 0 0  0.4956521739130435 0 0  0.5039130434782608 0 0  0.5121739130434783 0 0  0.5204347826086956 0 0  0.528695652173913 0 0  0.5369565217391304 0 0  0.5452173913043478 0 0  0.5534782608695652 0 0  0.5617391304347825 0 0  0.57 0 0  0.5782608695652174 0 0  0.5865217391304348 0 0  0.5947826086956521 0 0  0.6030434782608696 0 0  0.6113043478260869 0 0  0.6195652173913043 0 0  0.6278260869565218 0 0  0.6360869565217391 0 0  0.6443478260869565 0 0  0.6526086956521739 0 0  0.6608695652173913 0 0  0.6691304347826087 0 0  0.677391304347826 0 0  0.6856521739130435 0 0  0.6939130434782609 0 0  0.7021739130434783 0 0  0.7104347826086956 0 0  0.718695652173913 0 0  0.7269565217391304 0 0  0.7352173913043478 0 0  0.7434782608695653 0 0  0.7517391304347827 0 0  0.7599999999999999 0 0  0.7682608695652173 0 0  0.7765217391304348 0 0  0.7847826086956522 0 0  0.7930434782608695 0 0  0.8013043478260868 0 0  0.8095652173913043 0 0  0.8178260869565217 0 0  0.8260869565217391 0 0  0.8343478260869565 0 0  0.8426086956521739 0 0  0.8508695652173912 0 0  0.8591304347826086 0 0  0.8673913043478261 0 0  0.8756521739130434 0 0  0.8839130434782608 0 0  0.8921739130434783 0 0  0.9004347826086956 0 0  0.908695652173913 0 0  0.9169565217391303 0 0  0.9252173913043478 0 0  0.9334782608695652 0 0  0.9417391304347826 0 0  0.95 0 0  0.9582608695652173 0 0  0.9665217391304347 0 0  0.9747826086956521 0 0  0.9830434782608696 0 0  0.991304347826087 0 0  0.9995652173913042 0 0  1.007826086956522 0 0  1.016086956521739 0 0  1.024347826086957 0 0  1.032608695652174 0 0  1.040869565217391 0 0  1.049130434782609 0 0  1.057391304347826 0 0  1.065652173913043 0 0  1.073913043478261 0 0  1.082173913043478 0 0  1.090434782608696 0 0  1.098695652173913 0 0  1.10695652173913 0 0  1.115217391304348 0 0  1.123478260869565 0 0  1.131739130434783 0 0  1.14 0 0  1.148260869565217 0 0  1.156521739130435 0 0  1.164782608695652 0 0  1.17304347826087 0 0  1.181304347826087 0 0  1.189565217391304 0 0  1.197826086956522 0 0  1.206086956521739 0 0  1.214347826086956 0 0  1.222608695652174 0 0  1.230869565217391 0 0  1.239130434782609 0 0  1.247391304347826 0 0  1.255652173913044 0 0  1.263913043478261 0 0  1.272173913043478 0 0  1.280434782608696 0 0  1.288695652173913 0 0  1.296956521739131 0 0  1.305217391304348 0 0  1.313478260869565 0 0  1.321739130434783 0 0  1.33 0 0  1.338260869565217 0 0  1.346521739130435 0 0  1.354782608695652 0 0  1.36304347826087 0 0  1.371304347826087 0 0  1.379565217391304 0 0  1.387826086956522 0 0  1.396086956521739 0 0  1.404347826086957 0 0  1.412608695652174 0 0  1.420869565217391 0 0  1.429130434782609 0 0  1.437391304347826 0 0  1.445652173913043 0 0  1.453913043478261 0 0  1.462173913043478 0 0  1.470434782608696 0 0  1.478695652173913 0 0  1.486956521739131 0 0  1.495217391304348 0 0  1.503478260869565 0 0  1.511739130434782 0 0  1.52 0 0  1.528260869565217 0 0  1.536521739130435 0 0  1.544782608695652 0 0  1.55304347826087 0 0  1.561304347826087 0 0  1.569565217391304 0 0  1.577826086956522 0 0  1.586086956521739 0 0  1.594347826086957 0 0  1.602608695652174 0 0  1.610869565217391 0 0  1.619130434782609 0 0  1.627391304347826 0 0  1.635652173913043 0 0  1.643913043478261 0 0  1.652173913043478 0 0  1.660434782608696 0 0  1.668695652173913 0 0  1.67695652173913 0 0  1.685217391304348 0 0  1.693478260869565 0 0  1.701739130434782 0 0  1.71 0 0  1.718260869565217 0 0  1.726521739130435 0 0  1.734782608695652 0 0  1.743043478260869 0 0  1.751304347826087 0 0  1.759565217391304 0 0  1.767826086956522 0 0  1.776086956521739 0 0  1.784347826086957 0 0  1.792608695652174 0 0  1.800869565217391 0 0  1.809130434782608 0 0  1.817391304347826 0 0  1.825652173913043 0 0  1.833913043478261 0 0  1.842173913043478 0 0  1.850434782608696 0 0  1.858695652173913 0 0  1.86695652173913 0 0  1.875217391304348 0 0  1.883478260869565 0 0  1.891739130434782 0 0  1.9 0 0  1.908260869565217 0 0  1.916521739130435 0 0  1.924782608695652 0 0  1.933043478260869 0 0  1.941304347826087 0 0  1.949565217391304 0 0  1.957826086956522 0 0  1.966086956521739 0 0  1.974347826086956 0 0  1.982608695652174 0 0  1.990869565217391 0 0  1.999130434782608 0 0  2.007391304347826 0 0  2.015652173913043 0 0  2.023913043478261 0 0  2.032173913043478 0 0  2.040434782608695 0 0  2.048695652173913 0 0  2.05695652173913 0 0  2.065217391304348 0 0  2.073478260869565 0 0  2.081739130434782 0 0  2.09 0 0  2.098260869565217 0 0  2.106521739130435 0 0  2.114782608695652 0 0  2.12304347826087 0 0  2.131304347826087 0 0  2.139565217391304 0 0  2.147826086956522 0 0  2.156086956521739 0 0  2.164347826086956 0 0  2.172608695652174 0 0  2.180869565217391 0 0  2.189130434782609 0 0  2.197391304347826 0 0  2.205652173913043 0 0  2.213913043478261 0 0  2.222173913043478 0 0  2.230434782608695 0 0  2.238695652173913 0 0  2.24695652173913 0 0  2.255217391304348 0 0  2.263478260869565 0 0  2.271739130434783 0 0  2.28 0 0  2.288260869565217 0 0  2.296521739130434 0 0  2.304782608695652 0 0  2.31304347826087 0 0  2.321304347826087 0 0  2.329565217391304 0 0  2.337826086956521 0 0  2.346086956521739 0 0  2.354347826086956 0 0  2.362608695652174 0 0  2.370869565217391 0 0  2.379130434782609 0 0  2.387391304347826 0 0  2.395652173913044 0 0  2.403913043478261 0 0  2.412173913043478 0 0  2.420434782608695 0 0  2.428695652173913 0 0  2.43695652173913 0 0  2.445217391304348 0 0  2.453478260869565 0 0  2.461739130434782 0 0  2.47 0 0  2.478260869565217 0 0  2.486521739130435 0 0  2.494782608695652 0 0  2.503043478260869 0 0  2.511304347826087 0 0  2.519565217391305 0 0  2.527826086956522 0 0  2.536086956521739 0 0  2.544347826086956 0 0  2.552608695652174 0 0  2.560869565217391 0 0  2.569130434782608 0 0  2.577391304347826 0 0  2.585652173913043 0 0  2.593913043478261 0 0  2.602173913043478 0 0  2.610434782608696 0 0  2.618695652173913 0 0  2.62695652173913 0 0  2.635217391304348 0 0  2.643478260869565 0 0  2.651739130434783 0 0  2.66 0 0  2.668260869565217 0 0  2.676521739130435 0 0  2.684782608695652 0 0  2.693043478260869 0 0  2.701304347826087 0 0  2.709565217391304 0 0  2.717826086956522 0 0  2.726086956521739 0 0  2.734347826086956 0 0  2.742608695652174 0 0  2.750869565217391 0 0  2.759130434782609 0 0  2.767391304347826 0 0  2.775652173913044 0 0  2.783913043478261 0 0  2.792173913043478 0 0  2.800434782608696 0 0  2.808695652173913 0 0  2.81695652173913 0 0  2.825217391304347 0 0  2.833478260869565 0 0  2.841739130434783 0 0  2.85 0 0  2.858260869565217 0 0  2.866521739130435 0 0  2.874782608695652 0 0  2.88304347826087 0 0  2.891304347826087 0 0  2.899565217391304 0 0  2.907826086956522 0 0  2.916086956521739 0 0  2.924347826086957 0 0  2.932608695652174 0 0  2.940869565217391 0 0  2.949130434782608 0 0  2.957391304347826 0 0  2.965652173913043 0 0  2.973913043478261 0 0  2.982173913043478 0 0  2.990434782608696 0 0  2.998695652173913 0 0  3.006956521739131 0 0  3.015217391304348 0 0  3.023478260869565 0 0  3.031739130434782 0 0  3.04 0 0  3.048260869565218 0 0  3.056521739130435 0 0  3.064782608695652 0 0  3.073043478260869 0 0  3.081304347826087 0 0  3.089565217391304 0 0  3.097826086956522 0 0  3.106086956521739 0 0  3.114347826086956 0 0  3.122608695652174 0 0  3.130869565217391 0 0  3.139130434782609 0 0  3.147391304347826 0 0  3.155652173913043 0 0  3.163913043478261 0 0  3.172173913043478 0 0  3.180434782608696 0 0  3.188695652173913 0 0  3.19695652173913 0 0  3.205217391304347 0 0  3.213478260869565 0 0  3.221739130434782 0 0  3.23 0 0  3.238260869565217 0 0  3.246521739130435 0 0  3.254782608695652 0 0  3.26304347826087 0 0  3.271304347826087 0 0  3.279565217391304 0 0  3.287826086956521 0 0  3.296086956521739 0 0  3.304347826086957 0 0  3.312608695652174 0 0  3.320869565217391 0 0  3.329130434782608 0 0  3.337391304347826 0 0  3.345652173913043 0 0  3.353913043478261 0 0  3.362173913043478 0 0  3.370434782608696 0 0  3.378695652173913 0 0  3.386956521739131 0 0  3.395217391304348 0 0  3.403478260869565 0 0  3.411739130434782 0 0  3.419999999999999 0 0  3.428260869565217 0 0  3.436521739130435 0 0  3.444782608695652 0 0  3.453043478260869 0 0  3.461304347826087 0 0  3.469565217391304 0 0  3.477826086956522 0 0  3.486086956521739 0 0  3.494347826086956 0 0  3.502608695652174 0 0  3.510869565217391 0 0  3.519130434782609 0 0  3.527391304347826 0 0  3.535652173913043 0 0  3.54391304347826
[...]
<PointData  Scalars="rho_bar"> 
<DataArray  type="Float64"  Name="rho_bar"  format="ascii">9.9999851538939855e-01  9.9999825011595911e-01  9.9999798192040046e-01  9.9999741269484987e-01  9.9999690357744087e-01  9.9999706522977949e-01  9.9999841661990607e-01  9.9999993925417952e-01  9.9999799684210966e-01  9.9998946556930846e-01  9.9998158632622214e-01  9.9999415940395420e-01  1.0000262219043889e+00  1.0000184588118450e+00  9.9991958597746089e-01  9.9981809587098480e-01  9.9988173985785345e-01  1.0001135538986858e+00  1.0003250084237112e+00  1.0003846623969062e+00  1.0003317372488423e+00  1.0002419546050172e+00  1.0001254629749217e+00  9.9997288289797293e-01  9.9981878169752847e-01  9.9972634873622424e-01  9.9972701811636344e-01  9.9979401917877753e-01  9.9987396616866053e-01  9.9992957882794853e-01  9.9995302528330421e-01  9.9995604293289908e-01  9.9995506640567533e-01  9.9996002746237012e-01  9.9997034316853395e-01  9.9997960085826854e-01  9.9998442610260563e-01  9.9998682802901473e-01  9.9998906583878522e-01  9.9999102302818088e-01  9.9999234425214534e-01  9.9999321024579968e-01  9.9999340029920181e-01  9.9999430408761891e-01  9.9999296744670396e-01  9.9998929604374220e-01  9.9999975078800818e-01  9.9998695958530648e-01  9.9992203679708536e-01  9.9997875483628518e-01  1.0002096995345033e+00  1.0002247739471675e+00  9.9977987599256346e-01  9.9916030056594873e-01  9.9867298046888797e-01  9.9834849702517725e-01  9.9813540692347058e-01  9.9801754305149537e-01  9.9798751067582803e-01  9.9802443938035013e-01  9.9809922658470873e-01  9.9818765949482413e-01  9.9827425405841197e-01  9.9834909664749250e-01  9.9840613987367044e-01  9.9844322866694912e-01  9.9846180768721426e-01  9.9846578138706110e-01  9.9846091713687402e-01  9.9845428546407911e-01  9.9845187784642397e-01  9.9845549010071211e-01  9.9846247466184546e-01  9.9846869793914206e-01  9.9847153925767862e-01  9.9847015620152713e-01  9.9846421507822603e-01  9.9845283901871562e-01  9.9843492736303729e-01  9.9841102766498224e-01  9.9838437169824690e-01  9.9835889405149436e-01  9.9833743312652623e-01  9.9832178136390382e-01  9.9831256423504933e-01  9.9830850433349083e-01  9.9830655471469176e-01  9.9830323732953352e-01  9.9829627350438577e-01  9.9828474651760879e-01  9.9826854557978761e-01  9.9824813794088840e-01  9.9822454753651868e-01  9.9819910621581298e-01  9.9817320883340910e-01  9.9814805021399999e-01  9.9812470500585437e-01  9.9810414063658426e-01  9.9808679954932034e-01  9.9807196056456282e-01  9.9805823596850596e-01  9.9804461949787615e-01  9.9803049252879716e-01  9.9801503778726042e-01  9.9799778465344802e-01  9.9797910234924780e-01  9.9795980788562921e-01  9.9794066114253788e-01  9.9792219246124714e-01  9.9790445280182805e-01  9.9788722913000516e-01  9.9787034726579349e-01  9.9785372654808513e-01  9.9783718621112549e-01  9.9782045252859419e-01  9.9780315725606528e-01  9.9778492356417225e-01  9.9776535935952682e-01  9.9774422433193033e-01  9.9772173198399572e-01  9.9769894274635218e-01  9.9767755058456797e-01  9.9765944753598368e-01  9.9764599936689091e-01  9.9763636954856849e-01  9.9762628375398421e-01  9.9761033154800260e-01  9.9758570496785903e-01  9.9755424000760451e-01  9.9752152328153010e-01  9.9749308809708803e-01  9.9747103437969076e-01  9.9745471411571041e-01  9.9744286152565975e-01  9.9743402722567553e-01  9.9742587671219263e-01  9.9741585430224988e-01  9.9740232226086600e-01  9.9738463566419122e-01  9.9736260418680145e-01  9.9733645791332604e-01  9.9730700937694516e-01  9.9727650056491368e-01  9.9724872036305623e-01  9.9722623043310654e-01  9.9720797481099410e-01  9.9719204738965983e-01  9.9717809185929485e-01  9.9716545553858249e-01  9.9715208841626546e-01  9.9713606321557402e-01  9.9711618514460199e-01  9.9709231706157264e-01  9.9706605287880323e-01  9.9703989390450853e-01  9.9701489958348644e-01  9.9699012858219760e-01  9.9696383662251953e-01  9.9693464372977247e-01  9.9690239848634388e-01  9.9686878376986388e-01  9.9683605338382553e-01  9.9680577259067082e-01  9.9677872461269035e-01  9.9675389060902919e-01  9.9672708479209149e-01  9.9669200564285654e-01  9.9664130447009358e-01  9.9656796246143720e-01  9.9647002844033405e-01  9.9635528438480203e-01  9.9623853170994869e-01  9.9613492416631122e-01  9.9605876547596561e-01  9.9602309769741626e-01  9.9603278307180132e-01  9.9608512412664885e-01  9.9623222192936278e-01  9.9666593444462925e-01  9.9748658805678847e-01  9.9837675335062737e-01  9.9897810184831715e-01  9.9934023988077947e-01  9.9960548691214191e-01  9.9977091953826502e-01  9.9984821372519395e-01  9.9990100038504437e-01  9.9994961543452210e-01  9.9990643137485224e-01  9.9979581312358956e-01  9.9993152634852622e-01  1.0003046924481185e+00  1.0001658000887752e+00  9.9911156094006104e-01  9.9796335232296962e-01  9.9760874500269558e-01  9.9773282836300270e-01  9.9754152373707738e-01  9.9717004587936264e-01  9.9740809482190951e-01  9.9820284510161628e-01  9.9882347172325703e-01  9.9915562210829345e-01  9.9942838068101325e-01  9.9962534193660257e-01  9.9972459882537201e-01  9.9971283807582145e-01  9.9977518199176407e-01  9.9993345070059059e-01  9.9933764451562679e-01  9.9822848180287727e-01  9.9843955787271044e-01  9.9955578125079347e-01  9.9903925800353344e-01  9.9621694780442649e-01  9.9244405421220416e-01  9.8908102955462263e-01  9.8680686211945678e-01  9.8569734304470957e-01  9.8548295425314236e-01  9.8581927172422390e-01  9.8642469555030377e-01  9.8711412644014762e-01  9.8778209075332268e-01  9.8837819622135092e-01  9.8888491547461232e-01  9.8929882499592181e-01  9.8961831645087772e-01  9.8984678165164641e-01  9.9000003859608354e-01  9.9010621281827449e-01  9.9019782891656094e-01  9.9030145714972140e-01  9.9042443311464379e-01  9.9055566928736538e-01  9.9068392913061543e-01  9.9080922188119469e-01  9.9093562806310864e-01  9.9106377044705940e-01  9.9118896879116702e-01  9.9130579313580813e-01  9.9141232251855427e-01  9.9151059020815735e-01  9.9160350490613847e-01  9.9169345207330339e-01  9.9178165753562131e-01  9.9186881161313323e-01  9.9195497783090758e-01  9.9204018623775336e-01  9.9212421424409836e-01  9.9220688494940412e-01  9.9228770157767088e-01  9.9236603660604028e-01  9.9244048846287869e-01  9.9251038648522760e-01  9.9257929034760106e-01  9.9265469969591946e-01  9.9273970466462402e-01  9.9283026125682228e-01  9.9292000968241345e-01  9.9300361980931084e-01  9.9307721245653846e-01  9.9314008302549905e-01  9.9319400615756359e-01  9.9324080798544367e-01  9.9328080090111970e-01  9.9331443243736783e-01  9.9334316254225608e-01  9.9336925240467300e-01  9.9339544987415096e-01  9.9342600900440614e-01  9.9346567156580412e-01  9.9351758896514075e-01  9.9358158547814135e-01  9.9365408893907781e-01  9.9372888662999026e-01  9.9379905719239225e-01  9.9385861365325567e-01  9.9390534957818000e-01  9.9394195823193165e-01  9.9397472683201604e-01  9.9400984512816981e-01  9.9404423950188114e-01  9.9405100402679347e-01  9.9398986944474854e-01  9.9387211167139100e-01  9.9387637159648623e-01  9.9437220742986321e-01  9.9554281936927913e-01  9.9696279415135480e-01  9.9802732009753425e-01  9.9863949372434635e-01  9.9902059347681760e-01  9.9927814450354990e-01  9.9943159933942560e-01  9.9950214020999772e-01  9.9953966334762234e-01  9.9962725396704155e-01  9.9952706927111401e-01  9.9867450079005082e-01  9.9761111197025099e-01  9.9795569770787595e-01  9.9876031942614529e-01  9.9582987331260819e-01  9.8699519127769264e-01  9.7432264063190221e-01  9.6093680390745406e-01  9.4906174249567166e-01  9.4005384289712712e-01  9.3436603312926636e-01  9.3166187776068798e-01  9.3122347021337259e-01  9.3226837281496133e-01  9.3408768765676764e-01  9.3610595691860443e-01  9.3790033749636825e-01  9.3920286510172057e-01  9.3988719428013379e-01  9.3995745752628534e-01  9.3952899097989773e-01  9.3879299245719117e-01  9.3796009313749829e-01  9.3721527918768954e-01  9.3669236593980465e-01  9.3646645309575305e-01  9.3654378213094269e-01  9.3686571365863691e-01  9.3733601375630504e-01  9.3786523001228228e-01  9.3839476236835473e-01  9.3890378693825427e-01  9.3940061245380535e-01  9.3990958393288038e-01  9.4045370100306702e-01  9.4104879291373689e-01  9.4170093388623799e-01  9.4241128459490342e-01  9.4317765898198092e-01  9.4399948038861381e-01  9.4487686134212268e-01  9.4580946245496011e-01  9.4679073569621996e-01  9.4780816388748290e-01  9.4884003633862202e-01  9.4985722951671681e-01  9.5082629378385641e-01  9.5172016822597683e-01  9.5252676703357997e-01  9.5325804943738257e-01  9.5394801893854808e-01  9.5464615378938655e-01  9.5540564913887593e-01  9.5627703654394025e-01  9.5729946704157320e-01  9.5849137779567761e-01  9.5983650445092383e-01  9.6128041313959678e-01  9.6273369462237479e-01  9.6408164984744549e-01  9.6519353924611662e-01  9.6593951231426201e-01  9.6621439561514988e-01  9.6597136994438848e-01  9.6523899251436884e-01  9.6411661212889976e-01  9.6277716101954436e-01  9.6150108874291074e-01  9.6069215251401030e-01  9.6082603533985877e-01  9.6228138139627684e-01  9.6506837717279048e-01  9.6878429898019169e-01  9.7297295513703008e-01  9.7719004587922575e-01  9.8074730768443819e-01  9.8296046241614454e-01  9.8351557267615097e-01  9.8207393092248307e-01  9.7762322909605681e-01  9.6732537272558194e-01  9.4141493227658457e-01  8.7171202299026507e-01  6.4896634744119874e-01  2.5852971322560042e-01  5.4727698349480575e-02  1.0616876388897236e-02  2.4939936118872721e-03  6.3566979229648097e-04  2.0420139220578835e-04  6.7257824931411846e-05  2.5622971951145117e-05  1.0914098386166933e-05  4.7872491844406496e-06  2.3791010404932753e-06  1.2512632304169990e-06  7.0085038457072428e-07  4.2221477343303863e-07  2.6578153185733613e-07  1.7615288131212462e-07  1.2122908032178727e-07  8.6283413045671866e-08  6.3152500094564051e-08  4.7295065736586381e-08  3.6108094596983479e-08  2.8005424632137798e-08  2.2007378420227730e-08  1.7481684140853760e-08  1.4011357460050816e-08  1.1313314113264575e-08  9.1910104043921514e-09  7.5049483230029615e-09  6.1541824520151926e-09  5.0643392762299217e-09  4.1797553178992932e-09  3.4581393521883100e-09  2.8669739053434123e-09  2.3809360531624077e-09  1.9801356906573834e-09  1.6487869769192883e-09  1.3742731805882666e-09  1.1464363576890631e-09  9.5705571320317474e-10  7.9943854716010226e-10  6.6811794706390032e-10  5.5860437558760219e-10  4.6720922097704798e-10  3.9088389141147086e-10  3.2711059016037027e-10  2.7379969795274492e-10  2.2921833852069354e-10  1.9192518777545021e-10  1.6072049884117408e-10  1.3460418565672636e-10  1.1274265301154750e-10  9.4439644530681134e-11  7.9114395633249122e-11  6.6281466015792296e-11  5.5534585699973041e-11  4.6534427231722328e-11  3.8996874848440847e-11  3.2684652427586100e-11  2.7398534615504626e-11  2.2971917938222189e-11  1.9265703034372840e-11  1.6163434523815410e-11  1.3567399551626947e-11  1.1395985383666102e-11  9.5811076818483911e-12  8.0659114500952368e-12  6.8027058709831195e-12  5.7518915517984289e-12  4.8805654412956950e-12  4.1615460497997899e-12  3.5723044124205670e-12  3.0944447815647483e-12  2.7131533387723366e-12  2.4166594572871074e-12  2.1959287193222165e-12  2.0445832017070948e-12  1.9592151542214729e-12  1.9416664587381471e-12  9.9999725609129730e-01  9.9999770269766353e-01  9.9999781354048334e-01  9.9999841459277217e-01  9.9999911378634976e-01  9.9999899287900329e-01  9.9999660205873631e-01  9.9999189758676033e-01  9.9998932787130002e-01  9.9999710929231711e-01  1.0000141139941101e+00  1.0000106665632993e+00  9.9995274144074253e-01  9.9989518048211334e-01  9.9998432648574120e-01  1.0002086195697399e+00  1.0002491999020984e+00  9.9986661330925319e-01  9.9929056007003469e-01  9.9891204710496495e-01  9.9880971166953492e-01  9.9883527542759876e-01  9.9892821186277336e-01  9.9913913770746954e-01  9.9946271468534875e-01  9.9977971654500952e-01  9.9996065542998824e-01  9.9998158577579854e-01  9.9992017288592117e-01  9.9986592784792294e-01  9.9985983140852475e-01  9.9989454332742000e-01  9.9994035193618513e-01  9.9997128181339190e-01  9.9998026627844538e-01  9.9997848578210824e-01  9.9997931241378224e-01  9.9998427371855914e-01  9.9998830455853804e-01  9.9999017300647963e-01  9.9999154554413983e-01  9.9999252098336811e-01  9.9999321727774515e-01  9.9999360742291876e-01  9.9999103930852751e-01  9.9999581977233365e-01  9.9998980464963239e-01  9.9995757541396224e-01  1.0000269009584797e+00  1.0000764446930164e+00  9.9967069160299937e-01  9.9915156410730743e-01  9.9937202359500377e-01  1.0001740113378865e+00  1.0007590041203389e+00  1.0008592425589498e+00  1.0006522297618690e+00  1.0003181618960364e+00  9.9995863094554760e-01  9.9963372705450326e-01  9.9938040796363792e-01  9.9920901837826814e-01  9.9910679327250940e-01  9.9905488709322332e-01  9.9903916707833362e-01  9.9905017853295019e-01  9.9907982910785242e-01  9.9912001029213571e-01  9.9916253147727607e-01  9.9919816637704839e-01  9.9921801765124463e-01  9.9921902885845237e-01  9.9920698345246683e-01  9.9919245747515595e-01  9.9918333290630001e-01  9.9918181080016333e-01  9.9918695536737590e-01  9.9919810908570683e-01  9.9921628344283497e-01  9.9924209616579263e-01  9.9927173509518719e-01  9.9929823864497758e-01  9.9931660643518272e-01  9.9932478532408120e-01  9.9932249601029299e-01  9.9931200814995746e-01  9.9929847168453101e-01  9.9928833843954301e-01  9.9928594448206076e-01  9.9929203246159592e-01  9.9930530536854767e-01  9.9932381904518686e-01  9.9934522948528381e-01  9.9936715686589273e-01  9.9938749221504264e-01  9.9940482241610340e-01  9.9941834066005353e-01  9.9942742934574125e-01  9.9943169912622098e-01  9.9943220363926355e-01  9.9943170282632465e-01  9.9943257150090170e-01  9.9943543633329512e-01  9.9944073970137248e-01  9.9944910018572464e-01  9.9945988678022413e-01  9.9947131388165145e-01  9.9948178964070122e-01  9.9949028862927380e-01  9.9949673008034223e-01  9.9950188207392554e-01  9.9950653600252770e-01  9.9951098463209276e-01  9.9951539338370121e-01  9.9951999781283185e-01  9.9952516094444399e-01  9.9953127012897058e-01  9.9953876392361940e-01  9.9954802168460966e-01  9.9955907988537018e-01  9.9957081635939959e-01  9.9958082536967996e-01  9.9958621316106588e-01  9.9958448853451964e-01  9.9957526853099299e-01  9.9956383159655438e-01  9.9956000200805240e-01  9.9957083632534383e-01  9.9959512751331647e-01  9.9962332616757343e-01  9.9964326296497330e-01  9.9964916631129364e-01  9.9964353184067523e-01  9.9963165917175811e-01  9.9961759675913475e-01  9.9960492533022172e-01  9.9959736514161368e-01  9.9959683704420610e-01  9.9960266339091008e-01  9.9961321712046847e-01  9.9962689115778325e-01  9.9964221152980026e-01  9.9965698117997559e-01  9.9966655198010113e-01  9.9966579275399403e-01  9.9965605963206117e-01  9.9964405579797477e-01  9.9963308194776901e-01  9.9962293250608336e-01  9.9961524119884526e-01  9.9961230375836641e-01  9.9961476240789771e-01  9.9962188625020854e-01  9.9963084848707329e-01  9.9963641663618441e-01  9.9963499834943426e-01  9.9962782989153998e-01  9.9961900879120325e-01  9.9961206470764508e-01  9.9960830911479504e-01  9.9960530352935095e-01  9.9959804800442509e-01  9.9958284684976495e-01  9.9955807382899020e-01  9.9952339915017352e-01  9.9948223236776479e-01  9.9944082734532025e-01  9.9940432892721831e-01  9.9937565329948641e-01  9.9935171049913318e-01  9.9931430127734822e-01  9.9923139148400819e-01  9.9907501669628651e-01  9.9883848253677898e-01  9.9854106261820663e-01  9.9824500218382661e-01  9.9807301258321357e-01  9.9815698994925506e-01  9.9840351530410820e-01  9.9842854484358956e-01  9.9826906573623120e-01  9.9850015887063925e-01  9.9909135920087089e-01  9.9951795653205266e-01  9.9971192138160592e-01  9.9983098921315450e-01  9.9989806483689980e-01  9.9987761873580561e-01  9.9987054110092055e-01  1.0000712213002259e+00  1.0001155259452235e+00  9.9940564622211692e-01  9.9873799171747157e-01  9.9967710611365601e-01  1.0016718626619550e+00  1.0023441361753009e+00  1.0009666868660181e+00  9.9926987187274352e-01  9.9871123008830143e-01  9.9865744997338901e-01  9.9822763540115800e-01  9.9815559705884871e-01  9.9880139934660161e-01  9.9932759292272466e-01  9.9953683332294241e-01  9.9964407168004166e-01  9.9972528724056309e-01  9.9982417886344721e-01  9.9939654303695957e-01  9.9918388374158029e-01  1.0005857512269931e+00  1.0003136739758265e+00  9.9490266405827232e-01  9.8743999311411523e-01  9.8142940916918608e-01  9.7671561978149890e-01  9.7282915444983775e-01  9.7013723335030222e-01  9.6889500197371325e-01  9.6888939248888450e-01  9.6968962377284995e-01  9.7089380814606185e-01  9.7220832557201986e-01  9.7344764762527569e-01  9.7450674304434648e-01  9.7533503970607649e-01  9.7592301418546923e-01  9.7630637487676375e-01  9.7655964373612680e-01  9.7676838055129978e-01  9.7699816294332698e-01  9.7727814621946874e-01  9.7759794804649591e-01  9.7793038368215701e-01  9.7826624940781526e-01  9.7861464265919529e-01  9.7897583211373185e-01  9.7933596535542888e-01  9.7967863040732939e-01  9.7999646676823338e-01  9.8029381299277396e-01  9.8058029161744331e-01  9.8086275969225933e-01  9.8114434266682582e-01  9.8142548659480677e-01  9.8170568413735182e-01  9.8198373089760926e-01  9.8225899976936748e-01  9.8253155347534260e-01  9.8280318187893778e-01  9.8307737240527171e-01  9.8335989331838147e-01  9.8365799294494471e-01  9.8398017573196828e-01  9.8433365929106675e-01  9.8471673621128719e-01  9.8510857460327628e-01  9.8547880043618175e-01  9.8580619656642965e-01  9.8608257329072169e-01  9.8630821291650261e-01  9.8649170691125199e-01  9.8664585380814340e-01  9.8678355268887041e-01  9.8691838555271882e-01  9.8706843970397284e-01  9.8725443135883706e-01  9.8749458723707451e-01  9.8780027957812067e-01  9.8817339969398665e-01  9.8860160204145953e-01  9.8905615438205052e-01  9.8949615511686873e-01  9.8987694599461018e-01  9.9015749874077386e-01  9.9030672360684491e-01  9.9030526247628081e-01  9.9014590124765056e-01  9.8983075926347330e-01  9.8936884402871506e-01  9.8878077938773468e-01  9.8811514882016771e-01  9.8747742611181333e-01  9.8708021314626315e-01  9.8727261203420813e-01  9.8843639359877045e-01  9.9067520605210857e-01  9.9340691050770025e-01  9.9551091031505701e-01  9.9653948462836284e-01  9.9720173835849479e-01  9.9801157664626683e-01  9.9870492282960099e-01  9.9909907068247272e-01  9.9930496849269757e-01  9.9941262558386368e-01  9.9944575633791866e-01  9.9927630940314205e-01  9.9885955040874752e-01  9.9902589153759991e-01  1.0000530845934368e+00  9.9854654238278984e-01  9.9122852605975587e-01  9.8167419552515223e-01  9.7446946822551705e-01  9.6647154743815089e-01  9.5367986733914412e-01  9.3864871278845796e-01  9.2588471136514494e-01  9.1737478723688515e-01  9.1291935063820806e-01  9.1152445870638465e-01  9.1214130972452934e-01  9.1388531212078306e-01  9.1606235161406191e-01  9.1816940105392231e-01  9.1988087891573311e-01  9.2102114839952542e-01  9.2153369653750505e-01  9.2145674334774519e-01  9.2090735006403412e-01  9.2008384795216602e-01  9.1921520187088324e-01  9.1849630084934852e-01  9.1804731609604451e-01  9.1791660791938468e-01  9.1809613813908530e-01  9.1852293402123508e-01  9.1908639038585815e-01  9.1968869021397481e-01  9.2027610744775146e-01  9.2083569101127383e-01  9.2138039715520703e-01  9.2194010748399202e-01  9.2254098102956383e-01  9.2319826358117618e-01  9.2391499274661260e-01  9.2469022576247084e-01  9.2551968672502805e-01  9.2639905033946945e-01  9.2732345557727647e-01  9.2829016896390604e-01  9.2928905163862485e-01  9.3030385433427820e-01  9.3131359385972745e-01  9.3229559468262679e-01  9.3322536836849956e-01  9.3408622462043389e-01  9.3487342636945092e-01  9.3560180361002065e-01  9.3630562206423507e-01  9.3703347762451072e-01  9.3783258967253669e-01  9.3874161401871781e-01  9.3978178772233834e-01  9.4095679228594764e-01  9.4224251530361958e-01  9.4357908925396827e-01  9.4487645838870782e-01  9.4602521922716720e-01  9.4690740866613143e-01  9.4742194223827358e-01  9.4750288425844265e-01  9.4713847598600720e-01  9.4638720681376987e-01  9.4538549170705466e-01  9.4432629129634293e-01  9.4347676108283007e-01  9.43232939454