<?xml version="1.0"?>
<VTKFile type="UnstructuredGrid"  version="0.1"  >
<UnstructuredGrid>
<Piece  NumberOfPoints="28121" NumberOfCells="55200">
<Points>
<DataArray  type="Float64"  NumberOfComponents="3"  format="ascii">0 0 0  0.008260869565217391 0 0  0.01652173913043478 0 0  0.02478260869565217 0 0  0.03304347826086956 0 0  0.04130434782608695 0 0  0.04956521739130434 0 0  0.05782608695652174 0 0  0.06608695652173913 0 0  0.07434782608695652 0 0  0.08260869565217391 0 0  0.0908695652173913 0 0  0.09913043478260869 0 0  0.1073913043478261 0 0  0.1156521739130435 0 0  0.1239130434782609 0 0  0.1321739130434783 0 0  0.1404347826086956 0 0  0.148695652173913 0 0  0.1569565217391304 0 0  0.1652173913043478 0 0  0.1734782608695652 0 0  0.1817391304347826 0 0  0.19 0 0  0.1982608695652174 0 0  0.2065217391304348 0 0  0.2147826086956522 0 0  0.2230434782608696 0 0  0.2313043478260869 0 0  0.2395652173913043 0 0  0.2478260869565218 0 0  0.2560869565217391 0 0  0.2643478260869565 0 0  0.2726086956521739 0 0  0.2808695652173913 0 0  0.2891304347826087 0 0  0.2973913043478261 0 0  0.3056521739130434 0 0  0.3139130434782609 0 0  0.3221739130434783 0 0  0.3304347826086956 0 0  0.338695652173913 0 0  0.3469565217391304 0 0  0.3552173913043478 0 0  0.3634782608695652 0 0  0.3717391304347826 0 0  0.3799999999999999 0 0  0.3882608695652174 0 0  0.3965217391304348 0 0  0.4047826086956521 0 0  0.4130434782608696 0 0  0.4213043478260869 0 0  0.4295652173913043 0 0  0.4378260869565217 0 0  0.4460869565217391 0 0  0.4543478260869565 0 0  0.4626086956521739 0 0  0.4708695652173913 0 0  0.4791304347826086 0 0  0.4873913043478261 0 0  0.4956521739130435 0 0  0.5039130434782608 0 0  0.5121739130434783 0 0  0.5204347826086956 0 0  0.528695652173913 0 0  0.5369565217391304 0 0  0.5452173913043478 0 0  0.5534782608695652 0 0  0.5617391304347825 0 0  0.57 0 0  0.5782608695652174 0 0  0.5865217391304348 0 0  0.5947826086956521 0 0  0.6030434782608696 0 0  0.6113043478260869 0 0  0.6195652173913043 0 0  0.6278260869565218 0 0  0.6360869565217391 0 0  0.6443478260869565 0 0  0.6526086956521739 0 0  0.6608695652173913 0 0  0.6691304347826087 0 0  0.677391304347826 0 0  0.6856521739130435 0 0  0.6939130434782609 0 0  0.7021739130434783 0 0  0.7104347826086956 0 0  0.718695652173913 0 0  0.7269565217391304 0 0  0.7352173913043478 0 0  0.7434782608695653 0 0  0.7517391304347827 0 0  0.7599999999999999 0 0  0.7682608695652173 0 0  0.7765217391304348 0 0  0.7847826086956522 0 0  0.7930434782608695 0 0  0.8013043478260868 0 0  0.8095652173913043 0 0  0.8178260869565217 0 0  0.8260869565217391 0 0  0.8343478260869565 0 0  0.8426086956521739 0 0  0.8508695652173912 0 0  0.8591304347826086 0 0  0.8673913043478261 0 0  0.8756521739130434 0 0  0.8839130434782608 0 0  0.8921739130434783 0 0  0.9004347826086956 0 0  0.908695652173913 0 0  0.9169565217391303 0 0  0.9252173913043478 0 0  0.9334782608695652 0 0  0.9417391304347826 0 0  0.95 0 0  0.9582608695652173 0 0  0.9665217391304347 0 0  0.9747826086956521 0 0  0.9830434782608696 0 0  0.991304347826087 0 0  0.9995652173913042 0 0  1.007826086956522 0 0  1.016086956521739 0 0  1.024347826086957 0 0  1.032608695652174 0 0  1.040869565217391 0 0  1.049130434782609 0 0  1.057391304347826 0 0  1.065652173913043 0 0  1.073913043478261 0 0  1.082173913043478 0 0  1.090434782608696 0 0  1.098695652173913 0 0  1.10695652173913 0 0  1.115217391304348 0 0  1.123478260869565 0 0  1.131739130434783 0 0  1.14 0 0  1.148260869565217 0 0  1.156521739130435 0 0  1.164782608695652 0 0  1.17304347826087 0 0  1.181304347826087 0 0  1.189565217391304 0 0  1.197826086956522 0 0  1.206086956521739 0 0  1.214347826086956 0 0  1.222608695652174 0 0  1.230869565217391 0 0  1.239130434782609 0 0  1.247391304347826 0 0  1.255652173913044 0 0  1.263913043478261 0 0  1.272173913043478 0 0  1.280434782608696 0 0  1.288695652173913 0 0  1.296956521739131 0 0  1.305217391304348 0 0  1.313478260869565 0 0  1.321739130434783 0 0  1.33 0 0  1.338260869565217 0 0  1.346521739130435 0 0  1.354782608695652 0 0  1.36304347826087 0 0  1.371304347826087 0 0  1.379565217391304 0 0  1.387826086956522 0 0  1.396086956521739 0 0  1.404347826086957 0 0  1.412608695652174 0 0  1.420869565217391 0 0  1.429130434782609 0 0  1.437391304347826 0 0  1.445652173913043 0 0  1.453913043478261 0 0  1.462173913043478 0 0  1.470434782608696 0 0  1.478695652173913 0 0  1.486956521739131 0 0  1.495217391304348 0 0  1.503478260869565 0 0  1.511739130434782 0 0  1.52 0 0  1.528260869565217 0 0  1.536521739130435 0 0  1.544782608695652 0 0  1.55304347826087 0 0  1.561304347826087 0 0  1.569565217391304 0 0  1.577826086956522 0 0  1.586086956521739 0 0  1.594347826086957 0 0  1.602608695652174 0 0  1.610869565217391 0 0  1.619130434782609 0 0  1.627391304347826 0 0  1.635652173913043 0 0  1.643913043478261 0 0  1.652173913043478 0 0  1.660434782608696 0 0  1.668695652173913 0 0  1.67695652173913 0 0  1.685217391304348 0 0  1.693478260869565 0 0  1.701739130434782 0 0  1.71 0 0  1.718260869565217 0 0  1.726521739130435 0 0  1.734782608695652 0 0  1.743043478260869 0 0  1.751304347826087 0 0  1.759565217391304 0 0  1.767826086956522 0 0  1.776086956521739 0 0  1.784347826086957 0 0  1.792608695652174 0 0  1.800869565217391 0 0  1.809130434782608 0 0  1.817391304347826 0 0  1.825652173913043 0 0  1.833913043478261 0 0  1.842173913043478 0 0  1.850434782608696 0 0  1.858695652173913 0 0  1.86695652173913 0 0  1.875217391304348 0 0  1.883478260869565 0 0  1.891739130434782 0 0  1.9 0 0  1.908260869565217 0 0  1.916521739130435 0 0  1.924782608695652 0 0  1.933043478260869 0 0  1.941304347826087 0 0  1.949565217391304 0 0  1.957826086956522 0 0  1.966086956521739 0 0  1.974347826086956 0 0  1.982608695652174 0 0  1.990869565217391 0 0  1.999130434782608 0 0  2.007391304347826 0 0  2.015652173913043 0 0  2.023913043478261 0 0  2.032173913043478 0 0  2.040434782608695 0 0  2.048695652173913 0 0  2.05695652173913 0 0  2.065217391304348 0 0  2.073478260869565 0 0  2.081739130434782 0 0  2.09 0 0  2.098260869565217 0 0  2.106521739130435 0 0  2.114782608695652 0 0  2.12304347826087 0 0  2.131304347826087 0 0  2.139565217391304 0 0  2.147826086956522 0 0  2.156086956521739 0 0  2.164347826086956 0 0  2.172608695652174 0 0  2.180869565217391 0 0  2.189130434782609 0 0  2.197391304347826 0 0  2.205652173913043 0 0  2.213913043478261 0 0  2.222173913043478 0 0  2.230434782608695 0 0  2.238695652173913 0 0  2.24695652173913 0 0  2.255217391304348 0 0  2.263478260869565 0 0  2.271739130434783 0 0  2.28 0 0  2.288260869565217 0 0  2.296521739130434 0 0  2.304782608695652 0 0  2.31304347826087 0 0  2.321304347826087 0 0  2.329565217391304 0 0  2.337826086956521 0 0  2.346086956521739 0 0  2.354347826086956 0 0  2.362608695652174 0 0  2.370869565217391 0 0  2.379130434782609 0 0  2.387391304347826 0 0  2.395652173913044 0 0  2.403913043478261 0 0  2.412173913043478 0 0  2.420434782608695 0 0  2.428695652173913 0 0  2.43695652173913 0 0  2.445217391304348 0 0  2.453478260869565 0 0  2.461739130434782 0 0  2.47 0 0  2.478260869565217 0 0  2.486521739130435 0 0  2.494782608695652 0 0  2.503043478260869 0 0  2.511304347826087 0 0  2.519565217391305 0 0  2.527826086956522 0 0  2.536086956521739 0 0  2.544347826086956 0 0  2.552608695652174 0 0  2.560869565217391 0 0  2.569130434782608 0 0  2.577391304347826 0 0  2.585652173913043 0 0  2.593913043478261 0 0  2.602173913043478 0 0  2.610434782608696 0 0  2.618695652173913 0 0  2.62695652173913 0 0  2.635217391304348 0 0  2.643478260869565 0 0  2.651739130434783 0 0  2.66 0 0  2.668260869565217 0 0  2.676521739130435 0 0  2.684782608695652 0 0  2.693043478260869 0 0  2.701304347826087 0 0  2.709565217391304 0 0  2.717826086956522 0 0  2.726086956521739 0 0  2.734347826086956 0 0  2.742608695652174 0 0  2.750869565217391 0 0  2.759130434782609 0 0  2.767391304347826 0 0  2.775652173913044 0 0  2.783913043478261 0 0  2.792173913043478 0 0  2.800434782608696 0 0  2.808695652173913 0 0  2.81695652173913 0 0  2.825217391304347 0 0  2.833478260869565 0 0  2.841739130434783 0 0  2.85 0 0  2.858260869565217 0 0  2.866521739130435 0 0  2.874782608695652 0 0  2.88304347826087 0 0  2.891304347826087 0 0  2.899565217391304 0 0  2.907826086956522 0 0  2.916086956521739 0 0  2.924347826086957 0 0  2.932608695652174 0 0  2.940869565217391 0 0  2.949130434782608 0 0  2.957391304347826 0 0  2.965652173913043 0 0  2.973913043478261 0 0  2.982173913043478 0 0  2.990434782608696 0 0  2.998695652173913 0 0  3.006956521739131 0 0  3.015217391304348 0 0  3.023478260869565 0 0  3.031739130434782 0 0  3.04 0 0  3.048260869565218 0 0  3.056521739130435 0 0  3.064782608695652 0 0  3.073043478260869 0 0  3.081304347826087 0 0  3.089565217391304 0 0  3.097826086956522 0 0  3.106086956521739 0 0  3.114347826086956 0 0  3.122608695652174 0 0  3.130869565217391 0 0  3.139130434782609 0 0  3.147391304347826 0 0  3.155652173913043 0 0  3.163913043478261 0 0  3.172173913043478 0 0  3.180434782608696 0 0  3.188695652173913 0 0  3.19695652173913 0 0  3.205217391304347 0 0  3.213478260869565 0 0  3.221739130434782 0 0  3.23 0 0  3.238260869565217 0 0  3.246521739130435 0 0  3.254782608695652 0 0  3.26304347826087 0 0  3.271304347826087 0 0  3.279565217391304 0 0  3.287826086956521 0 0  3.296086956521739 0 0  3.304347826086957 0 0  3.312608695652174 0 0  3.320869565217391 0 0  3.329130434782608 0 0  3.337391304347826 0 0  3.345652173913043 0 0  3.353913043478261 0 0  3.362173913043478 0 0  3.370434782608696 0 0  3.378695652173913 0 0  3.386956521739131 0 0  3.395217391304348 0 0  3.403478260869565 0 0  3.411739130434782 0 0  3.419999999999999 0 0  3.428260869565217 0 0  3.436521739130435 0 0  3.444782608695652 0 0  3.453043478260869 0 0  3.461304347826087 0 0  3.469565217391304 0 0  3.477826086956522 0 0  3.486086956521739 0 0  3.494347826086956 0 0  3.502608695652174 0 0  3.510869565217391 0 0  3.519130434782609 0 0  3.527391304347826 0 0  3.535652173913043 0 0  3.54391304347826
[...]
<PointData  Scalars="rho_bar"> 
<DataArray  type="Float64"  Name="rho_bar"  format="ascii">9.2093503463584503e-01  9.2032266555085540e-01  9.1958923661496872e-01  9.1858426370215074e-01  9.1726773230651337e-01  9.1563192823297590e-01  9.1368243372487268e-01  9.1143241407958564e-01  9.0890094756154716e-01  9.0611153259785837e-01  9.0309160171142244e-01  8.9987221798930916e-01  8.9648924671921371e-01  8.9298457714945345e-01  8.8940797815713857e-01  8.8581724314922228e-01  8.8227746300483045e-01  8.7885801550114995e-01  8.7562904982705936e-01  8.7265700247349154e-01  8.7000141078624726e-01  8.6771208944991973e-01  8.6582852713638669e-01  8.6437937048207258e-01  8.6338345211382272e-01  8.6285018028301630e-01  8.6278029204550066e-01  8.6316525555025192e-01  8.6398661513600961e-01  8.6521394156985065e-01  8.6680347625942655e-01  8.6869607184532160e-01  8.7081686486117993e-01  8.7307543859014158e-01  8.7536811813489246e-01  8.7758086729349860e-01  8.7959368095412616e-01  8.8128452765822518e-01  8.8253498038426770e-01  8.8323676459255951e-01  8.8329756179126773e-01  8.8263693413182454e-01  8.8118058987667325e-01  8.7886031826653543e-01  8.7562159331596257e-01  8.7144197912252319e-01  8.6636864947089420e-01  8.6055744365521802e-01  8.5424809913889055e-01  8.4765349381180544e-01  8.4087837610755856e-01  8.3397342331558111e-01  8.2703302949183799e-01  8.2022141461124487e-01  8.1374339148404817e-01  8.0778875012369178e-01  8.0251083109167842e-01  7.9802315261854107e-01  7.9439323231519521e-01  7.9163421838922954e-01  7.8970497395080308e-01  7.8851854536101595e-01  7.8795534942850687e-01  7.8787499758024260e-01  7.8812896846707159e-01  7.8857374849865247e-01  7.8908636802995702e-01  7.8957470347857728e-01  7.8997822769818682e-01  7.9026271579224872e-01  7.9041410544801949e-01  7.9043134337659704e-01  7.9032159710886418e-01  7.9009617316451397e-01  7.8976862203283515e-01  7.8935305121665045e-01  7.8886359963034935e-01  7.8831306905425391e-01  7.8771294950630855e-01  7.8707275102823238e-01  7.8640069790432543e-01  7.8570369912211513e-01  7.8498814000385830e-01  7.8425987008168818e-01  7.8352492834502385e-01  7.8278926359095558e-01  7.8205934628070972e-01  7.8134160024161703e-01  7.8064277486408273e-01  7.7996937833667190e-01  7.7932782934006428e-01  7.7872382258113582e-01  7.7816256913260218e-01  7.7764814459722709e-01  7.7718395053305256e-01  7.7677209156877380e-01  7.7641379295040713e-01  7.7610878695945396e-01  7.7585549097974948e-01  7.7565058424525202e-01  7.7548962242268094e-01  7.7536689420675298e-01  7.7527644410828678e-01  7.7521213017636104e-01  7.7516885013267001e-01  7.7514288118251784e-01  7.7513281126670674e-01  7.7513919794565500e-01  7.7516445784137955e-01  7.7521139338713452e-01  7.7528303125418940e-01  7.7538205716963193e-01  7.7551178711761726e-01  7.7567586398877864e-01  7.7587767309785272e-01  7.7611808046906794e-01  7.7639509867794010e-01  7.7670536061092921e-01  7.7704793608493727e-01  7.7742521148150801e-01  7.7784137255418584e-01  7.7829821058045978e-01  7.7879267566273613e-01  7.7931559489883917e-01  7.7985277301715894e-01  7.8038597756296790e-01  7.8089549375510969e-01  7.8136186754110160e-01  7.8176852413178777e-01  7.8210273695361432e-01  7.8235672481322283e-01  7.8252774701834960e-01  7.8261923252208476e-01  7.8264122419235216e-01  7.8261158782876694e-01  7.8255496818986980e-01  7.8250067480586061e-01  7.8247734846787620e-01  7.8250761622722032e-01  7.8260334123010955e-01  7.8276411017435787e-01  7.8297724283796255e-01  7.8322123183785952e-01  7.8347021400759120e-01  7.8370072099087995e-01  7.8389657269473756e-01  7.8405109072397194e-01  7.8416411255021268e-01  7.8423730877846554e-01  7.8426880596947235e-01  7.8425027853250173e-01  7.8416475220822113e-01  7.8398839530445086e-01  7.8369548222263963e-01  7.8326700103202163e-01  7.8269757354416891e-01  7.8199925966339934e-01  7.8120011545131252e-01  7.8034041326149084e-01  7.7946616983978867e-01  7.7862492702909158e-01  7.7786349176125458e-01  7.7722834006642039e-01  7.7676573796425175e-01  7.7652299429070892e-01  7.7654876298039532e-01  7.7689313178551223e-01  7.7760439069276732e-01  7.7872534226591716e-01  7.8028802753061588e-01  7.8230873544383395e-01  7.8478188126583837e-01  7.8767586353296126e-01  7.9093141202045958e-01  7.9446479024981764e-01  7.9817173453263623e-01  8.0193268136390727e-01  8.0561725708421295e-01  8.0909057491806524e-01  8.1222022887511069e-01  8.1488430180816984e-01  8.1697662093079693e-01  8.1841037313305876e-01  8.1911870813443655e-01  8.1905620669217649e-01  8.1820030787948927e-01  8.1655432083622359e-01  8.1414995582190630e-01  8.1104966915059351e-01  8.0734595964039502e-01  8.0315810292636791e-01  7.9862364743231029e-01  7.9388737537962439e-01  7.8908846391819853e-01  7.8435057228828620e-01  7.7977475249872941e-01  7.7543613024502200e-01  7.7138143092563238e-01  7.6762953341382001e-01  7.6417340938118372e-01  7.6098533252272327e-01  7.5802092571821666e-01  7.5521991540595679e-01  7.5250345941863295e-01  7.4977562795323216e-01  7.4692811827842298e-01  7.4384874794313516e-01  7.4043197559222074e-01  7.3659293747659005e-01  7.3228111482197733e-01  7.2749254967293620e-01  7.2227650420487344e-01  7.1673578410651617e-01  7.1101654180522977e-01  7.0528947146105170e-01  6.9972604578843078e-01  6.9447994255906376e-01  6.8967408192348889e-01  6.8539426871363152e-01  6.8168646371335873e-01  6.7855893146153712e-01  6.7598789666290748e-01  6.7392865431957771e-01  6.7232623051009932e-01  6.7112568519586990e-01  6.7027415168342752e-01  6.6971809731113785e-01  6.6940289281806653e-01  6.6927487993261836e-01  6.6928252452073289e-01  6.6937829781599067e-01  6.6952075664724897e-01  6.6967621284642220e-01  6.6981633283881026e-01  6.6991688053414244e-01  6.6995817578810390e-01  6.6992851441684798e-01  6.6982702733020250e-01  6.6966476720580370e-01  6.6946115423456809e-01  6.6924000999501743e-01  6.6902479200196741e-01  6.6883636864459117e-01  6.6869115435106430e-01  6.6860029003601407e-01  6.6856773906126143e-01  6.6859016986952202e-01  6.6865695182917173e-01  6.6875330032179758e-01  6.6886442112310196e-01  6.6898060305856488e-01  6.6909901865916865e-01  6.6922337701391044e-01  6.6936014541224820e-01  6.6951522683901710e-01  6.6969044331603578e-01  6.6988259114318938e-01  6.7008293876727398e-01  6.7027894114015418e-01  6.7045556644439763e-01  6.7059694792570745e-01  6.7068621133410078e-01  6.7070592464661982e-01  6.7063709236882951e-01  6.7045965225933168e-01  6.7015329970939119e-01  6.6970144135111942e-01  6.6909692630569051e-01  6.6835087030024876e-01  6.6749954253105959e-01  6.6660357742634335e-01  6.6573018827224828e-01  6.6493083845436596e-01  6.6422918569655010e-01  6.6362053411504640e-01  6.6307594382076340e-01  6.6255057699996789e-01  6.6199304777832613e-01  6.6135508082135452e-01  6.6059691587159586e-01  6.5969115970088721e-01  6.5862350958662907e-01  6.5739352798841422e-01  6.5601437641353533e-01  6.5450953260479061e-01  6.5290109103709593e-01  6.5119859436502503e-01  6.4939680215916329e-01  6.4748433945893591e-01  6.4545199088381222e-01  6.4329225873974516e-01  6.4099157726217482e-01  6.3852838514754295e-01  6.3587588954700502e-01  6.3300985922575581e-01  6.2991898767121945e-01  6.2662038372452422e-01  6.2317591206078315e-01  6.1969492805711013e-01  6.1629958997328194e-01  6.1307749529697897e-01  6.1006488097563571e-01  6.0725147776311572e-01  6.0459120772846930e-01  6.0201834866635229e-01  5.9947014448811631e-01  5.9690701905172561e-01  5.9430904251936489e-01  5.9166737496374322e-01  5.8898820019557951e-01  5.8629857228695548e-01  5.8363625271029151e-01  5.8103177438086351e-01  5.7849957690550069e-01  5.7603896914736408e-01  5.7363865186684604e-01  5.7128831945899849e-01  5.6899184426427396e-01  5.6677518060047760e-01  5.6468392444970739e-01  5.6277637790515056e-01  5.6111505753918201e-01  5.5975593795573575e-01  5.5873635781109721e-01  5.5807024900481028e-01  5.5774329325176497e-01  5.5769767740400000e-01  5.5781446218499597e-01  5.5792452358367328e-01  5.5785727489066161e-01  5.5749277288491528e-01  5.5677755055189337e-01  5.5572200234284808e-01  5.5439307639008795e-01  5.5290325086656977e-01  5.5138078920966960e-01  5.4993456247640449e-01  5.4863653020313874e-01  5.4751923985878181e-01  5.4658215488607198e-01  5.4580623180535681e-01  5.4517450616994401e-01  5.4469102160771621e-01  5.4436750072839868e-01  5.4419598119394230e-01  5.4415288262633177e-01  5.4421316486436400e-01  5.4435884636216469e-01  5.4458294322836365e-01  5.4488763525583261e-01  5.4527912789054966e-01  5.4575618378922219e-01  5.4629005454319879e-01  5.4678395643202082e-01  5.4703763881475431e-01  5.4680809416270704e-01  5.4593107568380028e-01  5.4434915598074574e-01  5.4208903183888824e-01  5.3921769607696601e-01  5.3581515764133070e-01  5.3197616968190564e-01  5.2783531334902734e-01  5.2361618514125585e-01  5.1967699452219307e-01  5.1643921068985243e-01  5.1401467433912562e-01  5.1199578733713835e-01  5.0984924744227800e-01  5.0706192528164395e-01  5.0319951734210944e-01  4.9805718563757861e-01  4.9163157463600576e-01  4.8373263651224863e-01  4.7418653798088056e-01  4.6323811937662646e-01  4.5150044516626869e-01  4.3931404470712354e-01  4.2656593221310879e-01  4.1282447730748023e-01  3.9750625852005389e-01  3.8003879113587552e-01  3.6002889134109178e-01  3.3742152979238937e-01  3.1263241317513774e-01  2.8660394053352084e-01  2.6056969970284316e-01  2.3546834361778471e-01  2.1183070350351202e-01  1.8988983557454842e-01  1.6969987983022780e-01  1.5122257901766270e-01  1.3438180272087139e-01  1.1909045986375874e-01  1.0525998989163836e-01  9.2802204335574040e-02  8.1628566981864326e-02  7.1649361886346630e-02  6.2773532844847740e-02  5.4909245814157813e-02  4.7965170698604863e-02  4.1851986481002149e-02  3.6483942121049738e-02  3.1780130802449041e-02  2.7665427476932354e-02  2.4070999463530231e-02  2.0934496193590491e-02  1.8199929542667595e-02  1.5817404407511733e-02  1.3742689158282900e-02  1.1936759988327442e-02  1.0365302091704087e-02  8.9982263097493371e-03  7.8092061244286791e-03  6.7752410294019023e-03  5.8762722717915061e-03  5.0948143372949121e-03  4.4156419779015953e-03  3.8255000559891616e-03  3.3128510947262406e-03  2.8676537597798115e-03  2.4811677802081024e-03  2.1457809232404454e-03  1.8548655534798850e-03  1.6026436503803576e-03  1.3840821547938097e-03  1.1947902572339709e-03  1.0309403440670463e-03  8.8919256482125587e-04  7.6663598728862444e-04  6.6073129933291741e-04  5.6926655683558081e-04  4.9031370791982067e-04  4.2219598681671221e-04  3.6345399753376638e-04  3.1281994916305250e-04  2.6919264749057734e-04  2.3161712276640041e-04  1.9926579346713185e-04  1.7142199804438070e-04  1.4746595661871764e-04  1.2686214376992892e-04  1.0914825978196033e-04  9.3925764312563034e-05  8.0851282399487328e-05  6.9629346857356619e-05  6.0006062414693640e-05  5.1763461204544206e-05  4.4714878826226431e-05  3.8700559036916658e-05  3.3584339727677036e-05  2.9250452814259985e-05  2.5601038816216630e-05  2.2553764435935724e-05  2.0040170445228188e-05  1.8003966387312035e-05  1.6400081972601764e-05  1.5193719561673146e-05  1.4360787376484125e-05  1.3890713579261571e-05  1.3800689860688294e-05  9.1807573646092622e-01  9.1775900553676126e-01  9.1707923357813859e-01  9.1606166744318751e-01  9.1470575731745207e-01  9.1301372848024565e-01  9.1099405831033231e-01  9.0866171517025884e-01  9.0603701055789110e-01  9.0314485976946324e-01  9.0001367358602735e-01  8.9667551621244579e-01  8.9316679262290455e-01  8.8953044102306233e-01  8.8581753963937582e-01  8.8208841087023626e-01  8.7841115253241353e-01  8.7485894782639562e-01  8.7150548628121138e-01  8.6842068000407424e-01  8.6566638360089487e-01  8.6329434682615580e-01  8.6134481717585509e-01  8.5984713355439035e-01  8.5882011683240933e-01  8.5827339257022350e-01  8.5820764772830260e-01  8.5861475957474809e-01  8.5947629747343968e-01  8.6076216248510096e-01  8.6242811499086225e-01  8.6441439368806083e-01  8.6664435452297728e-01  8.6902533906110235e-01  8.7145054855331627e-01  8.7380307384259537e-01  8.7596012430151748e-01  8.7779829986260594e-01  8.7919826460653139e-01  8.8005141211539062e-01  8.8026426422895387e-01  8.7975524954938411e-01  8.7844763600112363e-01  8.7626977966624797e-01  8.7316201925337600e-01  8.6909454485023341e-01  8.6410045249249323e-01  8.5831686428957732e-01  8.5197285160588276e-01  8.4528303613896261e-01  8.3836638489990822e-01  8.3127623566116071e-01  8.2410688014242972e-01  8.1702480516107101e-01  8.1024240930438429e-01  8.0396517973970705e-01  7.9836168881375202e-01  7.9355905918049352e-01  7.8963542514932528e-01  7.8661224515123507e-01  7.8445291062491540e-01  7.8307176702347292e-01  7.8234757644168951e-01  7.8213712369163479e-01  7.8228761950595571e-01  7.8265107050095251e-01  7.8309836200572924e-01  7.8353144697630017e-01  7.8388507379275996e-01  7.8412274844306729e-01  7.8422903385196663e-01  7.8420271598300773e-01  7.8405070019785417e-01  7.8378447781493821e-01  7.8341738281044559e-01  7.8296376472474116e-01  7.8243757395574109e-01  7.8185188839187303e-01  7.8121786822110639e-01  7.8054515050689477e-01  7.7984160730568930e-01  7.7911418011695965e-01  7.7836895301676023e-01  7.7761192055416284e-01  7.7684886247100771e-01  7.7608600935193950e-01  7.7532965309792856e-01  7.7458658428017968e-01  7.7386350274224880e-01  7.7316725236099337e-01  7.7250421996384078e-01  7.7188046971544311e-01  7.7130107662388814e-01  7.7077045542929845e-01  7.7029177663940374e-01  7.6986743052382745e-01  7.6949847194326570e-01  7.6918482814966616e-01  7.6892465160395074e-01  7.6871467552204142e-01  7.6854996820807042e-01  7.6842476627111156e-01  7.6833248519413955e-01  7.6826683631677795e-01  7.6822212312660854e-01  7.6819451469478017e-01  7.6818233671849423e-01  7.6818660704517627e-01  7.6820992139958977e-01  7.6825571111840618e-01  7.6832680862505787e-01  7.6842605575178791e-01  7.6855658698361107e-01  7.6872268753832151e-01  7.6892837216121279e-01  7.6917510822512125e-01  7.6945989970728490e-01  7.6977828467525411e-01  7.7012843010872312e-01  7.7051374622125302e-01  7.7093972214867390e-01  7.7140941628164739e-01  7.7191980394340065e-01  7.7246145676008859e-01  7.7301902111708098e-01  7.7357335488909784e-01  7.7410313896318761e-01  7.7458793493021039e-01  7.7501006756895152e-01  7.7535646480317744e-01  7.7561883925450059e-01  7.7579441206156696e-01  7.7588614070322592e-01  7.7590430239035346e-01  7.7586703468654994e-01  7.7580071128265304e-01  7.7573690693643371e-01  7.7570721987326852e-01  7.7573620511025665e-01  7.7583694395214742e-01  7.7600855915227263e-01  7.7623724447005171e-01  7.7649877212596019e-01  7.7676447465047238e-01  7.7700796664563421e-01  7.7721203352429868e-01  7.7737053863966110e-01  7.7748548279270091e-01  7.7756024120390288e-01  7.7759460899521315e-01  7.7758066135142934e-01  7.7750115190949320e-01  7.7732986113656755e-01  7.7703791830984215e-01  7.7660324510027490e-01  7.7601958575212604e-01  7.7529965437402415e-01  7.7447426474391889e-01  7.7358677729218295e-01  7.7268651894952411e-01  7.7182275475164785e-01  7.7104357747945118e-01  7.7039605642166586e-01  7.6992728079017814e-01  7.6968481877953199e-01  7.6971846499579444e-01  7.7007964983387356e-01  7.7081900812346871e-01  7.7198121369070472e-01  7.7360037642067137e-01  7.7569418349704877e-01  7.7825818769966026e-01  7.8126003428294366e-01  7.8463848960902138e-01  7.8830628660641289e-01  7.9215558786263707e-01  7.9606230143821843e-01  7.9989110237272287e-01  8.0350093408098655e-01  8.0675341790243371e-01  8.0952089423021512e-01  8.1169314420431571e-01  8.1317989787867939e-01  8.1391203306785287e-01  8.1384189810551288e-01  8.1294563133318409e-01  8.1122584607166193e-01  8.0871533868957257e-01  8.0547917520126766e-01  8.0161520973551448e-01  7.9724992682234830e-01  7.9253031828232312e-01  7.8761057052330341e-01  7.8263855287951545e-01  7.7774441466279542e-01  7.7303443972524810e-01  7.6858739825656430e-01  7.6445329725751177e-01  7.6065285296955265e-01  7.5718057140693484e-01  7.5400824146210832e-01  7.5108906026455691e-01  7.4835768533942437e-01  7.4572906465966582e-01  7.4309922799526618e-01  7.4035110214202438e-01  7.3736238403625443e-01  7.3401766523339185e-01  7.3022234991971779e-01  7.2591816020627020e-01  7.2109569140974106e-01  7.1580277677838422e-01  7.1014481504958216e-01  7.0427562984417313e-01  6.9837542945230024e-01  6.9262520815232431e-01  6.8718609740880821e-01  6.8218751664207233e-01  6.7772034454872787e-01  6.7383501701647253e-01  6.7054253346223569e-01  6.6782053451109147e-01  6.6562293856202348e-01  6.6389363336541385e-01  6.6257739896571533e-01  6.6162323607116713e-01  6.6097822657251915e-01  6.6058724282500025e-01  6.6039498106257144e-01  6.6034880346780644e-01  6.6039959546828852e-01  6.6050496810776549e-01  6.6063019437739223e-01  6.6074652221068586e-01  6.6082796524833998e-01  6.6085260743351482e-01  6.6080604498521334e-01  6.6068647017631088e-01  6.6050495632541539e-01  6.6028237069091678e-01  6.6004370146753499e-01  6.5981351302777524e-01  6.5961297089088045e-01  6.5945922474613028e-01  6.5936364572839534e-01  6.5933070725336118e-01  6.5935650754402719e-01  6.5942965498050377e-01  6.5953330927552978e-01  6.5965096084974295e-01  6.5977162814809409e-01  6.5989283101737517e-01  6.6001904413757728e-01  6.6015834115398264e-01  6.6031733186717156e-01  6.6049861522051634e-01  6.6069875356754870e-01  6.6090872228449871e-01  6.6111499972499388e-01  6.6130211456921817e-01  6.6145348564458317e-01  6.6155233966963600e-01  6.6158099858242014e-01  6.6152084512384979e-01  6.6135143058395862e-01  6.6105195188989352e-01  6.6060417981148511e-01  6.5999913365654972e-01  6.5924573098991968e-01  6.5838120255850696e-01  6.5747178987866794e-01  6.5659316597296391e-01  6.5580110307833495e-01  6.5512006412882784e-01  6.5454351609974104e-01  6.5404001992661243e-01  6.5356089659571359e-01  6.5305135196887432e-01  6.5245973608445551e-01  6.5174444966606171e-01  6.5087665400726336e-01  6.4984160749626663e-01  6.4863806452374240e-01  6.4727982375316773e-01  6.4579255931332924e-01  6.4420159636125585e-01  6.4251614602346474e-01  6.4072817260166370e-01  6.3882237216108673e-01  6.3678873486612786e-01  6.3462126312985423e-01  6.3230708505946731e-01  6.2982359592651260e-01  6.2714305688477789e-01  6.2423932694554740e-01  6.2109879488165787e-01  6.1773497297738045e-01  6.1420904703574775e-01  6.1063845070292500e-01  6.0715869647521092e-01  6.0386240621964238e-01  6.0078636784526351e-01  5.9791940812784372e-01  5.9521457689323687e-01  5.9260156745819403e-01  5.9001231990040581e-01  5.8740650792232774e-01  5.8476580513827225e-01  5.8207885997029374e-01  5.7934935247671793e-01  5.7660527637917536e-01  5.7388911456769942e-01  5.7123357808063235e-01  5.6865367571126313e-01  5.6614808092069790e-01  5.6370383166503413e-01  5.6130722153235613e-01  5.5896029521686263e-01  5.5668862547209397e-01  5.5453959908969208e-01  5.5257318210152562e-01  5.5085520650189979e-01  5.4944491160864650e-01  5.4838119973139388e-01  5.4767789766894703e-01  5.4732448069723527e-01  5.4726870868594335e-01  5.4739234063891773e-01  5.4751573966071099e-01  5.4745532346764336e-01  5.4708632759067821e-01  5.4635595179867191e-01  5.4527528188775964e-01  5.4391279650814006e-01  5.4238632738238790e-01  5.4083339693783539e-01  5.3936811421076392e-01  5.3806528224760009e-01  5.3695781483276162e-01  5.3604445355595065e-01  5.3530327817118151e-01  5.3471256150417157e-01  5.3427356840520457e-01  5.3400096190680546e-01  5.3388485228222715e-01  5.3389858705689897e-01  5.3401502609787965e-01  5.3421552838294317e-01  5.3449231405617637e-01  5.3484712698181014e-01  5.3528482558397106e-01  5.3580408801174750e-01  5.3638001904426869e-01  5.3692924477189985e-01  5.3725726800920537e-01  5.3710832331680747e-01  5.3631556779304512e-01  5.3482747256189778e-01  5.3267987457758603e-01  5.2994900794367561e-01  5.2671414123792937e-01  5.2306816333845396e-01  5.1914469858814993e-01  5.1516191759923480e-01  5.1146620179915225e-01  5.0845679643252661e-01  5.0628857763305657e-01  5.0457913091880835e-01  5.02796762609