<?xml version="1.0"?>
<VTKFile type="UnstructuredGrid"  version="0.1"  >
<UnstructuredGrid>
<Piece  NumberOfPoints="28121" NumberOfCells="55200">
<Points>
<DataArray  type="Float64"  NumberOfComponents="3"  format="ascii">0 0 0  0.008260869565217391 0 0  0.01652173913043478 0 0  0.02478260869565217 0 0  0.03304347826086956 0 0  0.04130434782608695 0 0  0.04956521739130434 0 0  0.05782608695652174 0 0  0.06608695652173913 0 0  0.07434782608695652 0 0  0.08260869565217391 0 0  0.0908695652173913 0 0  0.09913043478260869 0 0  0.1073913043478261 0 0  0.1156521739130435 0 0  0.1239130434782609 0 0  0.1321739130434783 0 0  0.1404347826086956 0 0  0.148695652173913 0 0  0.1569565217391304 0 0  0.1652173913043478 0 0  0.1734782608695652 0 0  0.1817391304347826 0 0  0.19 0 0  0.1982608695652174 0 0  0.2065217391304348 0 0  0.2147826086956522 0 0  0.2230434782608696 0 0  0.2313043478260869 0 0  0.2395652173913043 0 0  0.2478260869565218 0 0  0.2560869565217391 0 0  0.2643478260869565 0 0  0.2726086956521739 0 0  0.2808695652173913 0 0  0.2891304347826087 0 0  0.2973913043478261 0 0  0.3056521739130434 0 0  0.3139130434782609 0 0  0.3221739130434783 0 0  0.3304347826086956 0 0  0.338695652173913 0 0  0.3469565217391304 0 0  0.3552173913043478 0 0  0.3634782608695652 0 0  0.3717391304347826 0 0  0.3799999999999999 0 0  0.3882608695652174 0 0  0.3965217391304348 0 0  0.4047826086956521 0 0  0.4130434782608696 0 0  0.4213043478260869 0 0  0.4295652173913043 0 0  0.4378260869565217 0 0  0.4460869565217391 0 0  0.4543478260869565 0 0  0.4626086956521739 0 0  0.4708695652173913 0 0  0.4791304347826086 0 0  0.4873913043478261 0 0  0.4956521739130435 0 0  0.5039130434782608 0 0  0.5121739130434783 0 0  0.5204347826086956 0 0  0.528695652173913 0 0  0.5369565217391304 0 0  0.5452173913043478 0 0  0.5534782608695652 0 0  0.5617391304347825 0 0  0.57 0 0  0.5782608695652174 0 0  0.5865217391304348 0 0  0.5947826086956521 0 0  0.6030434782608696 0 0  0.6113043478260869 0 0  0.6195652173913043 0 0  0.6278260869565218 0 0  0.6360869565217391 0 0  0.6443478260869565 0 0  0.6526086956521739 0 0  0.6608695652173913 0 0  0.6691304347826087 0 0  0.677391304347826 0 0  0.6856521739130435 0 0  0.6939130434782609 0 0  0.7021739130434783 0 0  0.7104347826086956 0 0  0.718695652173913 0 0  0.7269565217391304 0 0  0.7352173913043478 0 0  0.7434782608695653 0 0  0.7517391304347827 0 0  0.7599999999999999 0 0  0.7682608695652173 0 0  0.7765217391304348 0 0  0.7847826086956522 0 0  0.7930434782608695 0 0  0.8013043478260868 0 0  0.8095652173913043 0 0  0.8178260869565217 0 0  0.8260869565217391 0 0  0.8343478260869565 0 0  0.8426086956521739 0 0  0.8508695652173912 0 0  0.8591304347826086 0 0  0.8673913043478261 0 0  0.8756521739130434 0 0  0.8839130434782608 0 0  0.8921739130434783 0 0  0.9004347826086956 0 0  0.908695652173913 0 0  0.9169565217391303 0 0  0.9252173913043478 0 0  0.9334782608695652 0 0  0.9417391304347826 0 0  0.95 0 0  0.9582608695652173 0 0  0.9665217391304347 0 0  0.9747826086956521 0 0  0.9830434782608696 0 0  0.991304347826087 0 0  0.9995652173913042 0 0  1.007826086956522 0 0  1.016086956521739 0 0  1.024347826086957 0 0  1.032608695652174 0 0  1.040869565217391 0 0  1.049130434782609 0 0  1.057391304347826 0 0  1.065652173913043 0 0  1.073913043478261 0 0  1.082173913043478 0 0  1.090434782608696 0 0  1.098695652173913 0 0  1.10695652173913 0 0  1.115217391304348 0 0  1.123478260869565 0 0  1.131739130434783 0 0  1.14 0 0  1.148260869565217 0 0  1.156521739130435 0 0  1.164782608695652 0 0  1.17304347826087 0 0  1.181304347826087 0 0  1.189565217391304 0 0  1.197826086956522 0 0  1.206086956521739 0 0  1.214347826086956 0 0  1.222608695652174 0 0  1.230869565217391 0 0  1.239130434782609 0 0  1.247391304347826 0 0  1.255652173913044 0 0  1.263913043478261 0 0  1.272173913043478 0 0  1.280434782608696 0 0  1.288695652173913 0 0  1.296956521739131 0 0  1.305217391304348 0 0  1.313478260869565 0 0  1.321739130434783 0 0  1.33 0 0  1.338260869565217 0 0  1.346521739130435 0 0  1.354782608695652 0 0  1.36304347826087 0 0  1.371304347826087 0 0  1.379565217391304 0 0  1.387826086956522 0 0  1.396086956521739 0 0  1.404347826086957 0 0  1.412608695652174 0 0  1.420869565217391 0 0  1.429130434782609 0 0  1.437391304347826 0 0  1.445652173913043 0 0  1.453913043478261 0 0  1.462173913043478 0 0  1.470434782608696 0 0  1.478695652173913 0 0  1.486956521739131 0 0  1.495217391304348 0 0  1.503478260869565 0 0  1.511739130434782 0 0  1.52 0 0  1.528260869565217 0 0  1.536521739130435 0 0  1.544782608695652 0 0  1.55304347826087 0 0  1.561304347826087 0 0  1.569565217391304 0 0  1.577826086956522 0 0  1.586086956521739 0 0  1.594347826086957 0 0  1.602608695652174 0 0  1.610869565217391 0 0  1.619130434782609 0 0  1.627391304347826 0 0  1.635652173913043 0 0  1.643913043478261 0 0  1.652173913043478 0 0  1.660434782608696 0 0  1.668695652173913 0 0  1.67695652173913 0 0  1.685217391304348 0 0  1.693478260869565 0 0  1.701739130434782 0 0  1.71 0 0  1.718260869565217 0 0  1.726521739130435 0 0  1.734782608695652 0 0  1.743043478260869 0 0  1.751304347826087 0 0  1.759565217391304 0 0  1.767826086956522 0 0  1.776086956521739 0 0  1.784347826086957 0 0  1.792608695652174 0 0  1.800869565217391 0 0  1.809130434782608 0 0  1.817391304347826 0 0  1.825652173913043 0 0  1.833913043478261 0 0  1.842173913043478 0 0  1.850434782608696 0 0  1.858695652173913 0 0  1.86695652173913 0 0  1.875217391304348 0 0  1.883478260869565 0 0  1.891739130434782 0 0  1.9 0 0  1.908260869565217 0 0  1.916521739130435 0 0  1.924782608695652 0 0  1.933043478260869 0 0  1.941304347826087 0 0  1.949565217391304 0 0  1.957826086956522 0 0  1.966086956521739 0 0  1.974347826086956 0 0  1.982608695652174 0 0  1.990869565217391 0 0  1.999130434782608 0 0  2.007391304347826 0 0  2.015652173913043 0 0  2.023913043478261 0 0  2.032173913043478 0 0  2.040434782608695 0 0  2.048695652173913 0 0  2.05695652173913 0 0  2.065217391304348 0 0  2.073478260869565 0 0  2.081739130434782 0 0  2.09 0 0  2.098260869565217 0 0  2.106521739130435 0 0  2.114782608695652 0 0  2.12304347826087 0 0  2.131304347826087 0 0  2.139565217391304 0 0  2.147826086956522 0 0  2.156086956521739 0 0  2.164347826086956 0 0  2.172608695652174 0 0  2.180869565217391 0 0  2.189130434782609 0 0  2.197391304347826 0 0  2.205652173913043 0 0  2.213913043478261 0 0  2.222173913043478 0 0  2.230434782608695 0 0  2.238695652173913 0 0  2.24695652173913 0 0  2.255217391304348 0 0  2.263478260869565 0 0  2.271739130434783 0 0  2.28 0 0  2.288260869565217 0 0  2.296521739130434 0 0  2.304782608695652 0 0  2.31304347826087 0 0  2.321304347826087 0 0  2.329565217391304 0 0  2.337826086956521 0 0  2.346086956521739 0 0  2.354347826086956 0 0  2.362608695652174 0 0  2.370869565217391 0 0  2.379130434782609 0 0  2.387391304347826 0 0  2.395652173913044 0 0  2.403913043478261 0 0  2.412173913043478 0 0  2.420434782608695 0 0  2.428695652173913 0 0  2.43695652173913 0 0  2.445217391304348 0 0  2.453478260869565 0 0  2.461739130434782 0 0  2.47 0 0  2.478260869565217 0 0  2.486521739130435 0 0  2.494782608695652 0 0  2.503043478260869 0 0  2.511304347826087 0 0  2.519565217391305 0 0  2.527826086956522 0 0  2.536086956521739 0 0  2.544347826086956 0 0  2.552608695652174 0 0  2.560869565217391 0 0  2.569130434782608 0 0  2.577391304347826 0 0  2.585652173913043 0 0  2.593913043478261 0 0  2.602173913043478 0 0  2.610434782608696 0 0  2.618695652173913 0 0  2.62695652173913 0 0  2.635217391304348 0 0  2.643478260869565 0 0  2.651739130434783 0 0  2.66 0 0  2.668260869565217 0 0  2.676521739130435 0 0  2.684782608695652 0 0  2.693043478260869 0 0  2.701304347826087 0 0  2.709565217391304 0 0  2.717826086956522 0 0  2.726086956521739 0 0  2.734347826086956 0 0  2.742608695652174 0 0  2.750869565217391 0 0  2.759130434782609 0 0  2.767391304347826 0 0  2.775652173913044 0 0  2.783913043478261 0 0  2.792173913043478 0 0  2.800434782608696 0 0  2.808695652173913 0 0  2.81695652173913 0 0  2.825217391304347 0 0  2.833478260869565 0 0  2.841739130434783 0 0  2.85 0 0  2.858260869565217 0 0  2.866521739130435 0 0  2.874782608695652 0 0  2.88304347826087 0 0  2.891304347826087 0 0  2.899565217391304 0 0  2.907826086956522 0 0  2.916086956521739 0 0  2.924347826086957 0 0  2.932608695652174 0 0  2.940869565217391 0 0  2.949130434782608 0 0  2.957391304347826 0 0  2.965652173913043 0 0  2.973913043478261 0 0  2.982173913043478 0 0  2.990434782608696 0 0  2.998695652173913 0 0  3.006956521739131 0 0  3.015217391304348 0 0  3.023478260869565 0 0  3.031739130434782 0 0  3.04 0 0  3.048260869565218 0 0  3.056521739130435 0 0  3.064782608695652 0 0  3.073043478260869 0 0  3.081304347826087 0 0  3.089565217391304 0 0  3.097826086956522 0 0  3.106086956521739 0 0  3.114347826086956 0 0  3.122608695652174 0 0  3.130869565217391 0 0  3.139130434782609 0 0  3.147391304347826 0 0  3.155652173913043 0 0  3.163913043478261 0 0  3.172173913043478 0 0  3.180434782608696 0 0  3.188695652173913 0 0  3.19695652173913 0 0  3.205217391304347 0 0  3.213478260869565 0 0  3.221739130434782 0 0  3.23 0 0  3.238260869565217 0 0  3.246521739130435 0 0  3.254782608695652 0 0  3.26304347826087 0 0  3.271304347826087 0 0  3.279565217391304 0 0  3.287826086956521 0 0  3.296086956521739 0 0  3.304347826086957 0 0  3.312608695652174 0 0  3.320869565217391 0 0  3.329130434782608 0 0  3.337391304347826 0 0  3.345652173913043 0 0  3.353913043478261 0 0  3.362173913043478 0 0  3.370434782608696 0 0  3.378695652173913 0 0  3.386956521739131 0 0  3.395217391304348 0 0  3.403478260869565 0 0  3.411739130434782 0 0  3.419999999999999 0 0  3.428260869565217 0 0  3.436521739130435 0 0  3.444782608695652 0 0  3.453043478260869 0 0  3.461304347826087 0 0  3.469565217391304 0 0  3.477826086956522 0 0  3.486086956521739 0 0  3.494347826086956 0 0  3.502608695652174 0 0  3.510869565217391 0 0  3.519130434782609 0 0  3.527391304347826 0 0  3.535652173913043 0 0  3.54391304347826
[...]
<PointData  Scalars="rho_bar"> 
<DataArray  type="Float64"  Name="rho_bar"  format="ascii">8.1736014905131438e-01  8.1661432354878860e-01  8.1614219037610714e-01  8.1568391993628397e-01  8.1515295022646728e-01  8.1451113969671374e-01  8.1373931373076336e-01  8.1282890612633285e-01  8.1177926565928671e-01  8.1059582800675856e-01  8.0928903663944352e-01  8.0787345317420634e-01  8.0636730795322731e-01  8.0479201091219177e-01  8.0317168444073306e-01  8.0153186185681857e-01  7.9989825825897398e-01  7.9829509389042141e-01  7.9674394185058628e-01  7.9526257479402240e-01  7.9386463603876611e-01  7.9255921869365964e-01  7.9135150367029072e-01  7.9024310424270505e-01  7.8923317756126066e-01  7.8831878154907231e-01  7.8749495653717050e-01  7.8675392560734092e-01  7.8608458602670728e-01  7.8547173109394741e-01  7.8489627854652955e-01  7.8433536812494764e-01  7.8376388765346583e-01  7.8315680968204948e-01  7.8249327749501130e-01  7.8175875837929254e-01  7.8094296465372426e-01  7.8003675966470298e-01  7.7903108279318212e-01  7.7791669797467755e-01  7.7668593709784195e-01  7.7533453406231845e-01  7.7386255985273333e-01  7.7227400602722929e-01  7.7057810275596117e-01  7.6879018895342188e-01  7.6693010279311025e-01  7.6501881284267159e-01  7.6307674035270401e-01  7.6112263794892343e-01  7.5917341806046112e-01  7.5724391866202623e-01  7.5534715585440249e-01  7.5349416890577292e-01  7.5169444465361146e-01  7.4995572076382333e-01  7.4828435266646565e-01  7.4668522721602093e-01  7.4516200414326161e-01  7.4371702883506619e-01  7.4235163583957964e-01  7.4106597873630720e-01  7.3985944396842807e-01  7.3873040992234107e-01  7.3767664184484449e-01  7.3669522363096185e-01  7.3578286722165431e-01  7.3493593737109697e-01  7.3415083973051032e-01  7.3342398675530374e-01  7.3275216560531209e-01  7.3213211000200118e-01  7.3156059500305037e-01  7.3103418985013446e-01  7.3054940020591863e-01  7.3010250989888725e-01  7.2968983530688691e-01  7.2930748909605436e-01  7.2895174661515350e-01  7.2861873809629163e-01  7.2830475160274954e-01  7.2800603983728052e-01  7.2771899334267864e-01  7.2743997707596542e-01  7.2716550948154235e-01  7.2689202115828555e-01  7.2661613786185486e-01  7.2633437658054512e-01  7.2604338615981845e-01  7.2573976444082888e-01  7.2542020881227520e-01  7.2508133338213643e-01  7.2471990633840599e-01  7.2433260986683512e-01  7.2391643049682253e-01  7.2346838702358274e-01  7.2298587100402723e-01  7.2246647760704130e-01  7.2190819269218087e-01  7.2130922686096510e-01  7.2066819456099995e-01  7.1998386503405665e-01  7.1925544720934043e-01  7.1848228636035272e-01  7.1766411482571668e-01  7.1680087685874405e-01  7.1589288883443203e-01  7.1494065258776218e-01  7.1394507161394616e-01  7.1290716521567810e-01  7.1182838906616053e-01  7.1071028700274275e-01  7.0955475979296201e-01  7.0836384281601472e-01  7.0713985633869580e-01  7.0588521445606678e-01  7.0460258345814286e-01  7.0329461372848967e-01  7.0196419924477904e-01  7.0061414973044644e-01  6.9924740925447404e-01  6.9786685037523055e-01  6.9647540103023753e-01  6.9507583083184621e-01  6.9367093567837412e-01  6.9226323503869747e-01  6.9085526803638819e-01  6.8944924031997490e-01  6.8804728236511636e-01  6.8665123282953289e-01  6.8526279439778182e-01  6.8388336169805752e-01  6.8251420006740160e-01  6.8115621302126550e-01  6.7981023276162755e-01  6.7847674206395414e-01  6.7715613604859715e-01  6.7584857477369442e-01  6.7455415742209324e-01  6.7327277428980059e-01  6.7200433338285703e-01  6.7074852439493282e-01  6.6950514592726829e-01  6.6827380625198263e-01  6.6705420586307285e-01  6.6584596195640144e-01  6.6464878078128609e-01  6.6346230088769020e-01  6.6228629296990171e-01  6.6112042574577790e-01  6.5996456570514184e-01  6.5881848453291803e-01  6.5768210882570954e-01  6.5655534822271799e-01  6.5543823583374761e-01  6.5433076612076280e-01  6.5323306516169866e-01  6.5214514673816704e-01  6.5106719099009303e-01  6.4999924452909197e-01  6.4894146408622211e-01  6.4789394113328491e-01  6.4685685408001870e-01  6.4583029988060792e-01  6.4481448878824610e-01  6.4380948956846007e-01  6.4281552552171406e-01  6.4183266476294820e-01  6.4086106499973394e-01  6.3990077684839874e-01  6.3895187717292479e-01  6.3801429743910065e-01  6.3708796943913304e-01  6.3617258991811643e-01  6.3526788302649650e-01  6.3437333751731895e-01  6.3348846016039373e-01  6.3261264113412241e-01  6.3174531817570467e-01  6.3088581106587038e-01  6.3003350607599007e-01  6.2918757330473241e-01  6.2834722701624568e-01  6.2751137788028855e-01  6.2667885009126589e-01  6.2584817015513139e-01  6.2501772113366305e-01  6.2418563080426748e-01  6.2335001201200879e-01  6.2250883523047762e-01  6.2166026435545707e-01  6.2080243539320235e-01  6.1993370545488402e-01  6.1905250355956631e-01  6.1815747622737638e-01  6.1724732417426420e-01  6.1632100325237626e-01  6.1537748218972754e-01  6.1441604583087395e-01  6.1343600317873948e-01  6.1243694772026291e-01  6.1141857843911318e-01  6.1038085205428405e-01  6.0932382948070707e-01  6.0824783104991653e-01  6.0715321131836919e-01  6.0604060149993166e-01  6.0491062853318944e-01  6.0376412017561043e-01  6.0260193231086256e-01  6.0142507244737997e-01  6.0023451973021635e-01  5.9903140075625327e-01  5.9781673019384940e-01  5.9659168554328246e-01  5.9535730170952217e-01  5.9411470919432363e-01  5.9286494704855985e-01  5.9160910435953062e-01  5.9034816762778664e-01  5.8908317325835924e-01  5.8781499245334978e-01  5.8654457384885839e-01  5.8527267732267152e-01  5.8400008192913000e-01  5.8272742554794754e-01  5.8145533281983408e-01  5.8018424774880795e-01  5.7891461293416013e-01  5.7764662711346482e-01  5.7638052428092823e-01  5.7511629144064857e-01  5.7385391791521378e-01  5.7259323367305859e-01  5.7133406877255033e-01  5.7007612786651929e-01  5.6881916028534363e-01  5.6756277246085773e-01  5.6630668327409006e-01  5.6505048374326583e-01  5.6379385580199448e-01  5.6253643191432157e-01  5.6127793143502669e-01  5.6001801135713358e-01  5.5875644414940451e-01  5.5749288968301325e-01  5.5622715979812221e-01  5.5495894097111653e-01  5.5368802054939648e-01  5.5241411712562116e-01  5.5113701589863684e-01  5.4985642288046044e-01  5.4857211939950423e-01  5.4728375771911641e-01  5.4599110421471775e-01  5.4469378951879022e-01  5.4339152356826337e-01  5.4208395342363547e-01  5.4077079647966420e-01  5.3945170637422812e-01  5.3812643993698572e-01  5.3679465403550752e-01  5.3545615911582123e-01  5.3411066755432735e-01  5.3275801111438348e-01  5.3139799280430366e-01  5.3003051965332126e-01  5.2865546015592435e-01  5.2727280576922109e-01  5.2588245950389967e-01  5.2448448417948557e-01  5.2307884460820864e-01  5.2166562446805376e-01  5.2024487441765299e-01  5.1881674617356510e-01  5.1738136725342931e-01  5.1593899084729133e-01  5.1448980760581298e-01  5.1303417108184779e-01  5.1157235303116000e-01  5.1010472007346064e-01  5.0863156501601692e-01  5.0715319464771380e-01  5.0566975152458848e-01  5.0418135743053660e-01  5.0268791508791433e-01  5.0118940441916204e-01  4.9968569328379675e-01  4.9817679394514186e-01  4.9666273028883456e-01  4.9514367063975206e-01  4.9361980661923893e-01  4.9209149259921103e-01  4.9055906895894003e-01  4.8902307045809473e-01  4.8748399534770742e-01  4.8594247661075490e-01  4.8439913826637465e-01  4.8285469999111807e-01  4.8130983044363446e-01  4.7976529597801987e-01  4.7822174905336301e-01  4.7667995448962563e-01  4.7514053301214482e-01  4.7360414905282638e-01  4.7207134252581534e-01  4.7054262964734567e-01  4.6901836003039010e-01  4.6749882619124111e-01  4.6598407701421857e-01  4.6447411031359692e-01  4.6296865781663415e-01  4.6146736345305467e-01  4.5996966772648384e-01  4.5847493202820178e-01  4.5698232462748378e-01  4.5549098622283074e-01  4.5399984961816492e-01  4.5250787281536642e-01  4.5101381107006833e-01  4.4951641347936450e-01  4.4801428579970126e-01  4.4650601468595702e-01  4.4499006369045263e-01  4.4346490627494817e-01  4.4192887160742089e-01  4.4038033988348085e-01  4.3881753936433010e-01  4.3723870718214086e-01  4.3564196039880526e-01  4.3402538830282539e-01  4.3238691337509355e-01  4.3072442281278206e-01  4.2903559991174511e-01  4.2731820386483593e-01  4.2556998409628555e-01  4.2378905190481020e-01  4.2197395364299811e-01  4.2012399392495509e-01  4.1823933819411158e-01  4.1632134219351530e-01  4.1437258996846410e-01  4.1239719901870875e-01  4.1040062876702527e-01  4.0838966834299961e-01  4.0637197114787271e-01  4.0435561597409564e-01  4.0234827849874455e-01  4.0035644959509809e-01  3.9838416496150431e-01  3.9643191170058506e-01  3.9449501421188038e-01  3.9256233221540021e-01  3.9061470369466839e-01  3.8862374925345705e-01  3.8655075484679718e-01  3.8434628151559125e-01  3.8195044118279109e-01  3.7929523226346179e-01  3.7630949249764195e-01  3.7292830039748764e-01  3.6910724149222685e-01  3.6484303466318174e-01  3.6019861230786882e-01  3.5532553009818418e-01  3.5046958755914082e-01  3.4588923394705406e-01  3.4168768133080490e-01  3.3783939121350498e-01  3.3426742039595841e-01  3.3088230316168232e-01  3.2759813660926257e-01  3.2433977314545409e-01  3.2104522392537560e-01  3.1766588511720323e-01  3.1416520990394142e-01  3.1051713453519936e-01  3.0670417872376182e-01  3.0271585317090360e-01  2.9854717167826789e-01  2.9419757936138591e-01  2.8966999519423420e-01  2.8497034514488251e-01  2.8010710077947987e-01  2.7509120065968334e-01  2.6993574647541174e-01  2.6465538984494935e-01  2.5926450288216130e-01  2.5377444907440677e-01  2.4819355155381340e-01  2.4253148556205528e-01  2.3679886419140239e-01  2.3100409286800366e-01  2.2514666576103148e-01  2.1920914970197775e-01  2.1317071070926080e-01  2.0703481663476161e-01  2.0080381990910495e-01  1.9445300704316798e-01  1.8791066155290279e-01  1.8104587463341196e-01  1.7371263775722207e-01  1.6584381435371676e-01  1.5749147940323843e-01  1.4879756482007234e-01  1.3989987587667219e-01  1.3091051881395452e-01  1.2192387021455495e-01  1.1302544963784059e-01  1.0429833773546861e-01  9.5827230021202317e-02  8.7698945965869773e-02  7.9997195047557423e-02  7.2789940747801526e-02  6.6117954401214471e-02  5.9995484575294071e-02  5.4415630603817509e-02  4.9354098505528167e-02  4.4774051900283829e-02  4.0632937142004354e-02  3.6887417824094902e-02  3.3496003374517712e-02  3.0420384158208798e-02  2.7626024692405691e-02  2.5082348922042041e-02  2.2762620727980357e-02  2.0643672485631665e-02  1.8705540615125311e-02  1.6931064747276899e-02  1.5305490151453242e-02  1.3816088151561212e-02  1.2451804802686029e-02  1.1202950586211810e-02  1.0060926813334425e-02  9.0180030271600660e-03  8.0671319594063321e-03  7.2018120386296266e-03  6.4159781859519727e-03  5.7039294649805592e-03  5.0602743206462604e-03  4.4799005384694524e-03  3.9579514750424736e-03  3.4898197694869133e-03  3.0711419661004391e-03  2.6977998013971707e-03  2.3659225846501485e-03  2.0718880792230227e-03  1.8123277590852208e-03  1.5841246181326812e-03  1.3844156034600941e-03  1.2105884662541816e-03  1.0602799065276749e-03  9.3137244802280036e-04  8.2199163719449042e-04  7.3050204253131404e-04  6.5550505024736965e-04  5.9583924427998472e-04  5.5058866038248380e-04  5.1911321615672184e-04  5.0116608447822741e-04  4.9737299600250383e-04  8.1250000177545822e-01  8.1225654503053712e-01  8.1191032364548865e-01  8.1148800688404366e-01  8.1096657164588348e-01  8.1032327931946013e-01  8.0954302621859919e-01  8.0861894976458215e-01  8.0755124958146463e-01  8.0634615537059762e-01  8.0501472076591551e-01  8.0357209742128366e-01  8.0203700274990308e-01  8.0043152750120938e-01  7.9878047031737964e-01  7.9711036111278433e-01  7.9544772868505365e-01  7.9381767360311717e-01  7.9224234663473581e-01  7.9074013576431201e-01  7.8932486494936649e-01  7.8800593283183973e-01  7.8678834349558358e-01  7.8567371114242790e-01  7.8466096303434496e-01  7.8374723834316518e-01  7.8292762347552969e-01  7.8219460182310419e-01  7.8153704343686325e-01  7.8093996378275310e-01  7.8038417837359231e-01  7.7984706228554024e-01  7.7930352889260790e-01  7.7872864177937473e-01  7.7810094110670502e-01  7.7740501542240970e-01  7.7662977518811771e-01  7.7576582131053051e-01  7.7480360576271079e-01  7.7373364321485638e-01  7.7254769055768824e-01  7.7124124173448427e-01  7.6981437838793498e-01  7.6827128656969923e-01  7.6662060631393414e-01  7.6487699098538053e-01  7.6305935836998295e-01  7.6118818792894760e-01  7.5928327191068834e-01  7.5736302858199156e-01  7.5544399562049791e-01  7.5354091436114590e-01  7.5166655695209206e-01  7.4983205797213726e-01  7.4804676801026693e-01  7.4631861380416686e-01  7.4465395461404404e-01  7.4305787465130013e-01  7.4153410597752656e-01  7.4008526643078676e-01  7.3871273697272943e-01  7.3741702063824821e-01  7.3619756192884422e-01  7.3505310125461953e-01  7.3398152249613113e-01  7.3298020709190403e-01  7.3204601643884282e-01  7.3117561762675454e-01  7.3036550546977719e-01  7.2961240211161305e-01  7.2891311422597649e-01  7.2826465166059351e-01  7.2766384290795971e-01  7.2710745887543526e-01  7.2659204843123748e-01  7.2611412311388590e-01  7.2566997176000936e-01  7.2525597000807862e-01  7.2486834461219685e-01  7.2450347823355810e-01  7.2415766042158713e-01  7.2382732058545129e-01  7.2350887212989601e-01  7.2319886435107983e-01  7.2289378088612488e-01  7.2259026506393187e-01  7.2228488145540837e-01  7.2197434576112796e-01  7.2165528288313696e-01  7.2132441811019798e-01  7.2097841274661079e-01  7.2061402597326196e-01  7.2022790332659103e-01  7.1981688768174290e-01  7.1937780960219933e-01  7.1890783792837099e-01  7.1840427118037742e-01  7.1786479904828382e-01  7.1728735554351308e-01  7.1667027250435889e-01  7.1601206903596515e-01  7.1531167491168735e-01  7.1456818722113202e-01  7.1378110607426049e-01  7.1295009842112078e-01  7.1207520294098414e-01  7.1115667436865104e-01  7.1019514626843872e-01  7.0919139925588193e-01  7.0814662292539077e-01  7.0706213167292820e-01  7.0593962827477164e-01  7.0478092053117458e-01  7.0358812714921382e-01  7.0236349599202086e-01  7.0110953415247701e-01  6.9982877986855740e-01  6.9852400555807048e-01  6.9719795323337486e-01  6.9585354179836834e-01  6.9449360255217574e-01  6.9312105054537099e-01  6.9173869904275509e-01  6.9034938968978032e-01  6.8895573850050162e-01  6.8756037000046955e-01  6.8616562138716075e-01  6.8477378966355107e-01  6.8338684906212266e-01  6.8200665501580005e-01  6.8063477409664208e-01  6.7927262819610734e-01  6.7792129419248726e-01  6.7658173366170871e-01  6.7525457005554412e-01  6.7394033501523187e-01  6.7263925932006030e-01  6.7135149084786649e-01  6.7007697117123988e-01  6.6881561301041814e-01  6.6756711348619457e-01  6.6633122649897658e-01  6.6510752710411714e-01  6.6389568661586973e-01  6.6269523799882846e-01  6.6150580032845763e-01  6.6032693652768448e-01  6.5915831592275842e-01  6.5799952234691483e-01  6.5685029976273768e-01  6.5571032436929932e-01  6.5457944888607111e-01  6.5345747347733496e-01  6.5234433820722593e-01  6.5123998031773600e-01  6.5014446351420441e-01  6.4905777664528030e-01  6.4798005123655045e-01  6.4691132325036205e-01  6.4585176198249550e-01  6.4480143511838117e-01  6.4376050499806170e-01  6.4272908115990091e-01  6.4170737009031875e-01  6.4069546793275367e-01  6.3969360026145028e-01  6.3870187221337338e-01  6.3772051086228798e-01  6.3674961446870049e-01  6.3578933821584427e-01  6.3483973132048466e-01  6.3390085162594390e-01  6.3297255895332361e-01  6.3205470854122592e-01  6.3114693060169369e-01  6.3024886189994045e-01  6.2935995802817080e-01  6.2847971121242341e-01  6.2760752937247888e-01  6.2674288881397378e-01  6.2588511161034632e-01  6.2503357750822985e-01  6.2418743350738926e-01  6.2334579757932496e-01  6.2250747168543064e-01  6.2167111180593770e-01  6.2083507836248375e-01  6.1999761325067315e-01  6.1915674130953524e-01  6.1831057792025934e-01  6.1745719706403379e-01  6.1659489206632501e-01  6.1572198375655829e-01  6.1483700769155825e-01  6.1393857436249566e-01  6.1302551674065819e-01  6.1209669128519706e-01  6.1115122510241915e-01  6.1018828013755055e-01  6.0920730857262118e-01  6.0820782085095981e-01  6.0718958975748372e-01  6.0615250731183223e-01  6.0509671728482883e-01  6.0402242750513135e-01  6.0293010324346219e-01  6.0182024406166190e-01  6.0069357870821460e-01  5.9955084042967721e-01  5.9839292969546010e-01  5.9722075951879416e-01  5.9603538213457619e-01  5.9483777337040789e-01  5.9362905237702179e-01  5.9241022884746475e-01  5.9118243278281168e-01  5.8994667121006839e-01  5.8870401577789189e-01  5.8745545589397774e-01  5.8620202553240153e-01  5.8494462183998508e-01  5.8368419827863871e-01  5.8242155398819651e-01  5.8115753156313610e-01  5.7989280631259921e-01  5.7862805272326046e-01  5.7736380142194010e-01  5.7610056974587776e-01  5.7483865996367811e-01  5.7357838215110435e-01  5.7231982004163695e-01  5.7106306885249081e-01  5.6980801632525246e-01  5.6855454530607763e-01  5.6730241309477480e-01  5.6605139698121532e-01  5.6480114018311078e-01  5.6355136002759398e-01  5.6230166249714031e-01  5.6105175193420431e-01  5.5980124269737064e-01  5.5854983499649058e-01  5.5729719002839917e-01  5.5604306529042269e-01  5.5478712935395991e-01  5.5352917735953200e-01  5.5226890556992314e-01  5.5100613080970406e-01  5.4974056898766410e-01  5.4847201311367155e-01  5.4720019637125838e-01  5.4592491646887764e-01  5.4464586265618453e-01  5.4336281011849907e-01  5.4207542016061616e-01  5.4078344318433458e-01  5.3948652571574640e-01  5.3818438300374960e-01  5.3687668082358730e-01  5.3556316552811378e-01  5.3424349840126717e-01  5.3291746045388400e-01  5.3158475366097657e-01  5.3024520983485646e-01  5.2889859293591357e-01  5.2754477202909456e-01  5.2618359792833080e-01  5.2481502811393665e-01  5.2343895249690442e-01  5.2205539295224734e-01  5.2066429605916498e-01  5.1926573906092788e-01  5.1785972736745667e-01  5.1644636780460984e-01  5.1502575073370782e-01  5.1359807431459426e-01  5.1216349182376508e-01  5.1072229639297051e-01  5.0927473367819498e-01  5.0782117966018070e-01  5.0636193627905646e-01  5.0489735991636875e-01  5.0342770069397602e-01  5.0195318544139755e-01  5.0047381759080911e-01  4.9898958803232701e-01  4.9750032771709396e-01  4.9600598746161001e-01  4.9450648521180929e-01  4.9300188873092593e-01  4.9149229820391871e-01  4.8997796225924006e-01  4.8845913419117643e-01  4.8693624422403542e-01  4.8540972094437751e-01  4.8388015477093022e-01  4.8234811009961753e-01  4.8081426008204664e-01  4.7927925901061114e-01  4.7774385001219000e-01  4.7620869040984609e-01  4.7467453568952883e-01  4.7314203128373250e-01  4.7161189759618449e-01  4.7008471985571232e-01  4.6856108916256217e-01  4.6704146404522145e-01  4.6552625662679409e-01  4.6401566820500606e-01  4.6250983536531565e-01  4.6100865369142618e-01  4.5951194088907693e-01  4.5801927481127608e-01  4.5653014527236069e-01  4.5504385904265093e-01  4.5355966907966028e-01  4.5207663333674225e-01  4.5059381085101824e-01  4.4911008038016437e-01  4.4762433068262708e-01  4.4613527681425175e-01  4.4464161653883011e-01  4.4314192856238094e-01  4.4163478762716529e-01  4.4011864051711186e-01  4.3859196871720052e-01  4.3705313410680896e-01  4.3550053513492554e-01  4.3393244273246778e-01  4.3234712527724634e-01  4.3074272923626916e-01  4.2911736631355196e-01  4.2746894497993432e-01  4.2579534587631546e-01  4.2409430288954308e-01  4.2236372140465356e-01  4.2060169830074368e-01  4.1880687883099532e-01  4.1697855455233829e-01  4.1511696469080211e-01  4.1322337521941432e-01  4.1130042260423266e-01  4.0935209651343851e-01  4.0738388967945771e-01  4.0540247072701963e-01  4.0341544108171085e-01  4.0143069092755901e-01  3.9945577754519529e-01  3.9749688975849456e-01  3.9555790685122061e-01  3.9363896485206951e-01  3.9173522714332892e-01  3.8983529841165654e-01  3.8791998328041677e-01  3.8596097690091052e-01  3.8392004015153391e-01  3.8174845075841146e-01  3.7938756492192138e-01  3.7677073462940935e-01  3.7382859355043052e-01  3.7049828565452642e-01  3.6673803949520856e-01  3.6254842902345308e-01  3.5799773878833224e-01  3.5324069386780516e-01  3.4850738799022757e-01  3.4403522986641838e-01  3.3992840842594879e-01  3.36164097997