<?xml version="1.0"?>
<VTKFile type="UnstructuredGrid"  version="0.1"  >
<UnstructuredGrid>
<Piece  NumberOfPoints="640" NumberOfCells="1181">
<Points>
<DataArray  type="Float64"  NumberOfComponents="3"  format="ascii">2.973913043478261 0 0  2.990434782608696 0 0  2.990434782608696 0.01666666666666667 0  2.973913043478261 0.01666666666666667 0  3.006956521739131 0 0  3.006956521739131 0.01666666666666667 0  3.023478260869565 0 0  3.023478260869565 0.01666666666666667 0  3.04 0 0  3.04 0.01666666666666667 0  3.056521739130435 0 0  3.056521739130435 0.01666666666666667 0  3.073043478260869 0 0  3.073043478260869 0.01666666666666667 0  3.089565217391304 0 0  3.089565217391304 0.01666666666666667 0  3.106086956521739 0 0  3.106086956521739 0.01666666666666667 0  3.122608695652174 0 0  3.122608695652174 0.01666666666666667 0  3.139130434782609 0 0  3.139130434782609 0.01666666666666667 0  3.155652173913043 0 0  3.155652173913043 0.01666666666666667 0  3.172173913043478 0 0  3.172173913043478 0.01666666666666667 0  3.188695652173913 0 0  3.188695652173913 0.01666666666666667 0  3.205217391304347 0 0  3.205217391304347 0.01666666666666667 0  3.221739130434782 0 0  3.221739130434782 0.01666666666666667 0  3.238260869565217 0 0  3.238260869565217 0.01666666666666667 0  2.990434782608696 0.03333333333333333 0  2.973913043478261 0.03333333333333333 0  3.006956521739131 0.03333333333333333 0  3.023478260869565 0.03333333333333333 0  3.04 0.03333333333333333 0  3.056521739130435 0.03333333333333333 0  3.073043478260869 0.03333333333333333 0  3.089565217391304 0.03333333333333333 0  3.106086956521739 0.03333333333333333 0  3.122608695652174 0.03333333333333333 0  3.139130434782609 0.03333333333333333 0  3.155652173913043 0.03333333333333333 0  3.172173913043478 0.03333333333333333 0  3.188695652173913 0.03333333333333333 0  3.205217391304347 0.03333333333333333 0  3.221739130434782 0.03333333333333333 0  3.238260869565217 0.03333333333333333 0  3.254782608695652 0.03333333333333333 0  2.990434782608696 0.05 0  3.006956521739131 0.05 0  3.023478260869565 0.05 0  3.04 0.05 0  3.056521739130435 0.05 0  3.073043478260869 0.05 0  3.089565217391304 0.05 0  3.106086956521739 0.05 0  3.122608695652174 0.05 0  3.139130434782609 0.05 0  3.155652173913043 0.05 0  3.172173913043478 0.05 0  3.188695652173913 0.05 0  3.205217391304347 0.05 0  3.221739130434782 0.05 0  3.238260869565217 0.05 0  3.254782608695652 0.05 0  3.271304347826087 0.05 0  3.006956521739131 0.06666666666666667 0  2.990434782608696 0.06666666666666667 0  3.023478260869565 0.06666666666666667 0  3.04 0.06666666666666667 0  3.056521739130435 0.06666666666666667 0  3.073043478260869 0.06666666666666667 0  3.089565217391304 0.06666666666666667 0  3.106086956521739 0.06666666666666667 0  3.122608695652174 0.06666666666666667 0  3.139130434782609 0.06666666666666667 0  3.155652173913043 0.06666666666666667 0  3.172173913043478 0.06666666666666667 0  3.188695652173913 0.06666666666666667 0  3.205217391304347 0.06666666666666667 0  3.221739130434782 0.06666666666666667 0  3.238260869565217 0.06666666666666667 0  3.254782608695652 0.06666666666666667 0  3.271304347826087 0.06666666666666667 0  3.287826086956521 0.06666666666666667 0  3.006956521739131 0.08333333333333333 0  3.023478260869565 0.08333333333333333 0  3.04 0.08333333333333333 0  3.056521739130435 0.08333333333333333 0  3.073043478260869 0.08333333333333333 0  3.089565217391304 0.08333333333333333 0  3.106086956521739 0.08333333333333333 0  3.122608695652174 0.08333333333333333 0  3.139130434782609 0.08333333333333333 0  3.155652173913043 0.08333333333333333 0  3.172173913043478 0.08333333333333333 0  3.188695652173913 0.08333333333333333 0  3.205217391304347 0.08333333333333333 0  3.221739130434782 0.08333333333333333 0  3.238260869565217 0.08333333333333333 0  3.254782608695652 0.08333333333333333 0  3.271304347826087 0.08333333333333333 0  3.287826086956521 0.08333333333333333 0  3.304347826086957 0.08333333333333333 0  3.023478260869565 0.1 0  3.006956521739131 0.1 0  3.04 0.1 0  3.056521739130435 0.1 0  3.073043478260869 0.1 0  3.089565217391304 0.1 0  3.106086956521739 0.1 0  3.122608695652174 0.1 0  3.139130434782609 0.1 0  3.155652173913043 0.1 0  3.172173913043478 0.1 0  3.188695652173913 0.1 0  3.205217391304347 0.1 0  3.221739130434782 0.1 0  3.238260869565217 0.1 0  3.254782608695652 0.1 0  3.271304347826087 0.1 0  3.287826086956521 0.1 0  3.304347826086957 0.1 0  3.320869565217391 0.1 0  3.023478260869565 0.1166666666666667 0  3.04 0.1166666666666667 0  3.056521739130435 0.1166666666666667 0  3.073043478260869 0.1166666666666667 0  3.089565217391304 0.1166666666666667 0  3.106086956521739 0.1166666666666667 0  3.122608695652174 0.1166666666666667 0  3.139130434782609 0.1166666666666667 0  3.155652173913043 0.1166666666666667 0  3.172173913043478 0.1166666666666667 0  3.188695652173913 0.1166666666666667 0  3.205217391304347 0.1166666666666667 0  3.221739130434782 0.1166666666666667 0  3.238260869565217 0.1166666666666667 0  3.254782608695652 0.1166666666666667 0  3.271304347826087 0.1166666666666667 0  3.287826086956521 0.1166666666666667 0  3.304347826086957 0.1166666666666667 0  3.320869565217391 0.1166666666666667 0  3.337391304347826 0.1166666666666667 0  3.04 0.1333333333333333 0  3.023478260869565 0.1333333333333333 0  3.056521739130435 0.1333333333333333 0  3.073043478260869 0.1333333333333333 0  3.089565217391304 0.1333333333333333 0  3.106086956521739 0.1333333333333333 0  3.122608695652174 0.1333333333333333 0  3.139130434782609 0.1333333333333333 0  3.155652173913043 0.1333333333333333 0  3.172173913043478 0.1333333333333333 0  3.188695652173913 0.1333333333333333 0  3.205217391304347 0.1333333333333333 0  3.221739130434782 0.1333333333333333 0  3.238260869565217 0.1333333333333333 0  3.254782608695652 0.1333333333333333 0  3.271304347826087 0.1333333333333333 0  3.287826086956521 0.1333333333333333 0  3.304347826086957 0.1333333333333333 0  3.320869565217391 0.1333333333333333 0  3.337391304347826 0.1333333333333333 0  3.353913043478261 0.1333333333333333 0  3.04 0.15 0  3.056521739130435 0.15 0  3.073043478260869 0.15 0  3.089565217391304 0.15 0  3.106086956521739 0.15 0  3.122608695652174 0.15 0  3.139130434782609 0.15 0  3.155652173913043 0.15 0  3.172173913043478 0.15 0  3.188695652173913 0.15 0  3.205217391304347 0.15 0  3.221739130434782 0.15 0  3.238260869565217 0.15 0  3.254782608695652 0.15 0  3.271304347826087 0.15 0  3.287826086956521 0.15 0  3.304347826086957 0.15 0  3.320869565217391 0.15 0  3.337391304347826 0.15 0  3.353913043478261 0.15 0  3.370434782608696 0.15 0  3.056521739130435 0.1666666666666667 0  3.073043478260869 0.1666666666666667 0  3.089565217391304 0.1666666666666667 0  3.106086956521739 0.1666666666666667 0  3.122608695652174 0.1666666666666667 0  3.139130434782609 0.1666666666666667 0  3.155652173913043 0.1666666666666667 0  3.172173913043478 0.1666666666666667 0  3.188695652173913 0.1666666666666667 0  3.205217391304347 0.1666666666666667 0  3.221739130434782 0.1666666666666667 0  3.238260869565217 0.1666666666666667 0  3.254782608695652 0.1666666666666667 0  3.271304347826087 0.1666666666666667 0  3.287826086956521 0.1666666666666667 0  3.304347826086957 0.1666666666666667 0  3.320869565217391 0.1666666666666667 0  3.337391304347826 0.1666666666666667 0  3.353913043478261 0.1666666666666667 0  3.370434782608696 0.1666666666666667 0  3.386956521739131 0.1666666666666667 0  3.073043478260869 0.1833333333333333 0  3.089565217391304 0.1833333333333333 0  3.106086956521739 0.1833333333333333 0  3.122608695652174 0.1833333333333333 0  3.139130434782609 0.1833333333333333 0  3.155652173913043 0.1833333333333333 0  3.172173913043478 0.1833333333333333 0  3.188695652173913 0.1833333333333333 0  3.205217391304347 0.1833333333333333 0  3.221739130434782 0.1833333333333333 0  3.238260869565217 0.1833333333333333 0  3.254782608695652 0.1833333333333333 0  3.271304347826087 0.1833333333333333 0  3.287826086956521 0.1833333333333333 0  3.304347826086957 0.1833333333333333 0  3.320869565217391 0.1833333333333333 0  3.337391304347826 0.1833333333333333 0  3.353913043478261 0.1833333333333333 0  3.370434782608696 0.1833333333333333 0  3.386956521739131 0.1833333333333333 0  3.403478260869565 0.1833333333333333 0  3.089565217391304 0.2 0  3.106086956521739 0.2 0  3.122608695652174 0.2 0  3.139130434782609 0.2 0  3.155652173913043 0.2 0  3.172173913043478 0.2 0  3.188695652173913 0.2 0  3.205217391304347 0.2 0  3.221739130434782 0.2 0  3.238260869565217 0.2 0  3.254782608695652 0.2 0  3.271304347826087 0.2 0  3.287826086956521 0.2 0  3.304347826086957 0.2 0  3.320869565217391 0.2 0  3.337391304347826 0.2 0  3.353913043478261 0.2 0  3.370434782608696 0.2 0  3.386956521739131 0.2 0  3.403478260869565 0.2 0  3.419999999999999 0.2 0  3.106086956521739 0.2166666666666667 0  3.122608695652174 0.2166666666666667 0  3.139130434782609 0.2166666666666667 0  3.155652173913043 0.2166666666666667 0  3.172173913043478 0.2166666666666667 0  3.188695652173913 0.2166666666666667 0  3.205217391304347 0.2166666666666667 0  3.221739130434782 0.2166666666666667 0  3.238260869565217 0.2166666666666667 0  3.254782608695652 0.2166666666666667 0  3.271304347826087 0.2166666666666667 0  3.287826086956521 0.2166666666666667 0  3.304347826086957 0.2166666666666667 0  3.320869565217391 0.2166666666666667 0  3.337391304347826 0.2166666666666667 0  3.353913043478261 0.2166666666666667 0  3.370434782608696 0.2166666666666667 0  3.386956521739131 0.2166666666666667 0  3.403478260869565 0.2166666666666667 0  3.419999999999999 0.2166666666666667 0  3.436521739130435 0.2166666666666667 0  3.122608695652174 0.2333333333333333 0  3.139130434782609 0.2333333333333333 0  3.155652173913043 0.2333333333333333 0  3.172173913043478 0.2333333333333333 0  3.188695652173913 0.2333333333333333 0  3.205217391304347 0.2333333333333333 0  3.221739130434782 0.2333333333333333 0  3.238260869565217 0.2333333333333333 0  3.254782
[...]
<PointData  Vectors="Displacement"> 
<DataArray  type="Float64"  Name="Displacement"  NumberOfComponents="3" format="ascii">2.9568327740267259e-04 4.0277926963564791e-03 0.0000000000000000e+00  2.9610102406774894e-04 4.0461614815622627e-03 0.0000000000000000e+00  2.7780176949672799e-04 4.0459489733925746e-03 0.0000000000000000e+00  2.7656088935702256e-04 4.0275594965763495e-03 0.0000000000000000e+00  2.9661406948256228e-04 4.0637875259762739e-03 0.0000000000000000e+00  2.7886392760249716e-04 4.0635742432019242e-03 0.0000000000000000e+00  2.9722549695633700e-04 4.0810620847283492e-03 0.0000000000000000e+00  2.7973183748394821e-04 4.0808461464193245e-03 0.0000000000000000e+00  2.9792114330841574e-04 4.0982305814257986e-03 0.0000000000000000e+00  2.8047655040526356e-04 4.0980078025893169e-03 0.0000000000000000e+00  2.9868557742270744e-04 4.1154609976591528e-03 0.0000000000000000e+00  2.8114915249467277e-04 4.1152280181226434e-03 0.0000000000000000e+00  2.9950196587310429e-04 4.1328588724818191e-03 0.0000000000000000e+00  2.8179057115259242e-04 4.1326173942770137e-03 0.0000000000000000e+00  3.0035792395368652e-04 4.1504794300210599e-03 0.0000000000000000e+00  2.8242341547186916e-04 4.1502264552200699e-03 0.0000000000000000e+00  3.0123555140339041e-04 4.1683746076202049e-03 0.0000000000000000e+00  2.8305542201573740e-04 4.1681096056826929e-03 0.0000000000000000e+00  3.0209278193745576e-04 4.1865919696882420e-03 0.0000000000000000e+00  2.8367808629988704e-04 4.1863234229725047e-03 0.0000000000000000e+00  3.0284878191569315e-04 4.2051424307579270e-03 0.0000000000000000e+00  2.8426489827156781e-04 4.2048971295326138e-03 0.0000000000000000e+00  3.0338861018513178e-04 4.2239221665332071e-03 0.0000000000000000e+00  2.8477650435816551e-04 4.2237601476060255e-03 0.0000000000000000e+00  3.0359535642046561e-04 4.2426453052500012e-03 0.0000000000000000e+00  2.8512456923618151e-04 4.2426851149538576e-03 0.0000000000000000e+00  3.0372828255787485e-04 4.2615160362768278e-03 0.0000000000000000e+00  2.8523268509243722e-04 4.2616544341634120e-03 0.0000000000000000e+00  3.0925944340974494e-04 4.2844963268996051e-03 0.0000000000000000e+00  2.8822562959940768e-04 4.2832880325674198e-03 0.0000000000000000e+00  3.1348335259330897e-04 4.3069963265420386e-03 0.0000000000000000e+00  2.9145511862959295e-04 4.3058676291632359e-03 0.0000000000000000e+00  3.1710076187596982e-04 4.3297931745692091e-03 0.0000000000000000e+00  2.9439555590865616e-04 4.3287666643411953e-03 0.0000000000000000e+00  2.5979662893820020e-04 4.0455124426773672e-03 0.0000000000000000e+00  2.5711349256158197e-04 4.0270866555580879e-03 0.0000000000000000e+00  2.6168963531315404e-04 4.0632991101851946e-03 0.0000000000000000e+00  2.6255333865108174e-04 4.0805964663798693e-03 0.0000000000000000e+00  2.6325421559491549e-04 4.0978197756518517e-03 0.0000000000000000e+00  2.6371462576878766e-04 4.1150436268087556e-03 0.0000000000000000e+00  2.6413108962694668e-04 4.1324360394722828e-03 0.0000000000000000e+00  2.6453637574754305e-04 4.1500277640678556e-03 0.0000000000000000e+00  2.6495108388850100e-04 4.1678775430638373e-03 0.0000000000000000e+00  2.6538508945959477e-04 4.1860560338671977e-03 0.0000000000000000e+00  2.6583724055593313e-04 4.2046205099370753e-03 0.0000000000000000e+00  2.6631736249816795e-04 4.2235324178364767e-03 0.0000000000000000e+00  2.6682659510159648e-04 4.2427174966977984e-03 0.0000000000000000e+00  2.6732907609381507e-04 4.2622528620596045e-03 0.0000000000000000e+00  2.6811475810476377e-04 4.2829482524280472e-03 0.0000000000000000e+00  2.7033163281306579e-04 4.3052350928822194e-03 0.0000000000000000e+00  2.7246258865282441e-04 4.3280278611344102e-03 0.0000000000000000e+00  2.7445928035704857e-04 4.3514088559348831e-03 0.0000000000000000e+00  2.4278138329991659e-04 4.0439643320062104e-03 0.0000000000000000e+00  2.4422470055410331e-04 4.0622960794462933e-03 0.0000000000000000e+00  2.4524768307225000e-04 4.0803097926166900e-03 0.0000000000000000e+00  2.4623833447622972e-04 4.0977462468251855e-03 0.0000000000000000e+00  2.4643074190663797e-04 4.1149742172919600e-03 0.0000000000000000e+00  2.4654527619909867e-04 4.1323458673093840e-03 0.0000000000000000e+00  2.4670109623562130e-04 4.1498948909552014e-03 0.0000000000000000e+00  2.4688485956570703e-04 4.1676817249119893e-03 0.0000000000000000e+00  2.4709401705980973e-04 4.1857969742401645e-03 0.0000000000000000e+00  2.4731769493758376e-04 4.2043398030277394e-03 0.0000000000000000e+00  2.4759154887422886e-04 4.2232678544091304e-03 0.0000000000000000e+00  2.4796444112170973e-04 4.2425820650883904e-03 0.0000000000000000e+00  2.4845005338398364e-04 4.2624412824050556e-03 0.0000000000000000e+00  2.4914479396143330e-04 4.2832153049793447e-03 0.0000000000000000e+00  2.5010784714907795e-04 4.3051550181376786e-03 0.0000000000000000e+00  2.5109012394794786e-04 4.3276026297456895e-03 0.0000000000000000e+00  2.5236357660801483e-04 4.3509374292308410e-03 0.0000000000000000e+00  2.5365190594962026e-04 4.3747247699731581e-03 0.0000000000000000e+00  2.2719830750657239e-04 4.0616033431532571e-03 0.0000000000000000e+00  2.2610247010199186e-04 4.0429848734473590e-03 0.0000000000000000e+00  2.2806911365645793e-04 4.0799092333598103e-03 0.0000000000000000e+00  2.2860843052322451e-04 4.0977347927236528e-03 0.0000000000000000e+00  2.2893430735791318e-04 4.1150238261692075e-03 0.0000000000000000e+00  2.2892206645583153e-04 4.1323548991540407e-03 0.0000000000000000e+00  2.2890377768848932e-04 4.1498367784576452e-03 0.0000000000000000e+00  2.2887241821388992e-04 4.1675436223824244e-03 0.0000000000000000e+00  2.2880666194149475e-04 4.1855910572220125e-03 0.0000000000000000e+00  2.2866217706428966e-04 4.2041493614211698e-03 0.0000000000000000e+00  2.2850386671639870e-04 4.2230826342580319e-03 0.0000000000000000e+00  2.2845400000447836e-04 4.2424416480782564e-03 0.0000000000000000e+00  2.2853689479200370e-04 4.2624772340748495e-03 0.0000000000000000e+00  2.2877330402644984e-04 4.2833257821706912e-03 0.0000000000000000e+00  2.2921426059810323e-04 4.3051230624624667e-03 0.0000000000000000e+00  2.2989498428279136e-04 4.3275948800779226e-03 0.0000000000000000e+00  2.3067901979514173e-04 4.3508530604041331e-03 0.0000000000000000e+00  2.3107668347726188e-04 4.3742308258949607e-03 0.0000000000000000e+00  2.3201091123600597e-04 4.3989406734636057e-03 0.0000000000000000e+00  2.1036205649932100e-04 4.0612168279469518e-03 0.0000000000000000e+00  2.1098507748416802e-04 4.0797288124940212e-03 0.0000000000000000e+00  2.1150844496467598e-04 4.0981734845261363e-03 0.0000000000000000e+00  2.1148905722905443e-04 4.1151597548238971e-03 0.0000000000000000e+00  2.1141241303803987e-04 4.1323938815631088e-03 0.0000000000000000e+00  2.1127858901669668e-04 4.1498211492778632e-03 0.0000000000000000e+00  2.1106603571149974e-04 4.1674628767212670e-03 0.0000000000000000e+00  2.1069823854827190e-04 4.1854888551806002e-03 0.0000000000000000e+00  2.1000022923830090e-04 4.2041751194360029e-03 0.0000000000000000e+00  2.0918436273608743e-04 4.2231413136932525e-03 0.0000000000000000e+00  2.0840678843661763e-04 4.2423976351113647e-03 0.0000000000000000e+00  2.0793738774444438e-04 4.2625217364391172e-03 0.0000000000000000e+00  2.0772476223882054e-04 4.2834136641402938e-03 0.0000000000000000e+00  2.0772716448469634e-04 4.3051920534260086e-03 0.0000000000000000e+00  2.0794699966066455e-04 4.3276682920625545e-03 0.0000000000000000e+00  2.0834292391433616e-04 4.3508508917408902e-03 0.0000000000000000e+00  2.0887406627281079e-04 4.3745352987489133e-03 0.0000000000000000e+00  2.0951151663641017e-04 4.3988452746636627e-03 0.0000000000000000e+00  2.0981256385830158e-04 4.4237748736784301e-03 0.0000000000000000e+00  1.9419467078439281e-04 4.0797125331312892e-03 0.0000000000000000e+00  1.9379902009907180e-04 4.0611092186905867e-03 0.0000000000000000e+00  1.9454487098239788e-04 4.0979601849281825e-03 0.0000000000000000e+00  1.9437729902186651e-04 4.1152065475856493e-03 0.0000000000000000e+00  1.9425163338084839e-04 4.1324103765888326e-03 0.0000000000000000e+00  1.9406414716079676e-04 4.1497784488826817e-03 0.0000000000000000e+00  1.9382987074515335e-04 4.1673034081604141e-03 0.0000000000000000e+00  1.9348756284846177e-04 4.1852957292716217e-03 0.0000000000000000e+00  1.9236740949417523e-04 4.2041952136819003e-03 0.0000000000000000e+00  1.9005553190058340e-04 4.2234126667593571e-03 0.0000000000000000e+00  1.8799846122357388e-04 4.2426833501707914e-03 0.0000000000000000e+00  1.8650497506933733e-04 4.2626098493904864e-03 0.0000000000000000e+00  1.8594062504117225e-04 4.2834658960795640e-03 0.0000000000000000e+00  1.8559738667915950e-04 4.3052832145752812e-03 0.0000000000000000e+00  1.8548041488259073e-04 4.3277605576634640e-03 0.0000000000000000e+00  1.8556310334610031e-04 4.3509224554919941e-03 0.0000000000000000e+00  1.8583289061121190e-04 4.3746478514244801e-03 0.0000000000000000e+00  1.8628588574354856e-04 4.3989552649220873e-03 0.0000000000000000e+00  1.8684288915121443e-04 4.4238597014328220e-03 0.0000000000000000e+00  1.8712181209760295e-04 4.4487940116999291e-03 0.0000000000000000e+00  1.7803901634278285e-04 4.0800938826362192e-03 0.0000000000000000e+00  1.7779254062380996e-04 4.0977541072499497e-03 0.0000000000000000e+00  1.7758893732254264e-04 4.1151309448940283e-03 0.0000000000000000e+00  1.7739056388007819e-04 4.1323865852579888e-03 0.0000000000000000e+00  1.7720338265535460e-04 4.1496756574399924e-03 0.0000000000000000e+00  1.7704247104358386e-04 4.1670485285530906e-03 0.0000000000000000e+00  1.7692669209898158e-04 4.1845972113951826e-03 0.0000000000000000e+00  1.7499837870165575e-04 4.2066355336897879e-03 0.0000000000000000e+00  1.7229124890040634e-04 4.2270814815305547e-03 0.0000000000000000e+00  1.6944368680732504e-04 4.2468569893180695e-03 0.0000000000000000e+00  1.6657955227724930e-04 4.2663055071250544e-03 0.0000000000000000e+00  1.6317744309316557e-04 4.2834555660148810e-03 0.0000000000000000e+00  1.6274133292772894e-04 4.3053443852076401e-03 0.0000000000000000e+00  1.6238863696911275e-04 4.3278217066876831e-03 0.0000000000000000e+00  1.6220515053928425e-04 4.3510011671915143e-03 0.0000000000000000e+00  1.6219414787809144e-04 4.3747570398803273e-03 0.0000000000000000e+00  1.6232699132964616e-04 4.3990644542563013e-03 0.0000000000000000e+00  1.6258208990374947e-04 4.4238916520614683e-03 0.0000000000000000e+00  1.6292399046890534e-04 4.4490020875850378e-03 0.0000000000000000e+00  1.6333086563926277e-04 4.4745382845906125e-03 0.0000000000000000e+00  1.6092734506167476e-04 4.0975819939106373e-03 0.0000000000000000e+00  1.6119265147198627e-04 4.0798018849811908e-03 0.0000000000000000e+00  1.6070549310933947e-04 4.1150503681704849e-03 0.0000000000000000e+00  1.6051517948222996e-04 4.1323598346346083e-03 0.0000000000000000e+00  1.6037555007124209e-04 4.1495774365549569e-03 0.0000000000000000e+00  1.6026886598069308e-04 4.1667850519371691e-03 0.0000000000000000e+00  1.5891339170208784e-04 4.1876183745021781e-03 0.0000000000000000e+00  1.5608468250024351e-04 4.2099457878647358e-03 0.0000000000000000e+00  1.5321054061178831e-04 4.2311584959003976e-03 0.0000000000000000e+00  1.5022264436157908e-04 4.2514463565082629e-03 0.0000000000000000e+00  1.4724190205546935e-04 4.2711057694320752e-03 0.0000000000000000e+00  1.4425326431504135e-04 4.2897789289141472e-03 0.0000000000000000e+00  1.4130483847653845e-04 4.3095055998671090e-03 0.0000000000000000e+00  1.3868189906473342e-04 4.3278860573624477e-03 0.0000000000000000e+00  1.3826039867218461e-04 4.3510341852105970e-03 0.0000000000000000e+00  1.3806596073369289e-04 4.3748352667462099e-03 0.0000000000000000e+00  1.3801133887871267e-04 4.3991646259723977e-03 0.0000000000000000e+00  1.3808518859688890e-04 4.4239772278759255e-03 0.0000000000000000e+00  1.3828554516507631e-04 4.4491362383736778e-03 0.0000000000000000e+00  1.3860947866301492e-04 4.4746872706559132e-03 0.0000000000000000e+00  1.3900172292970604e-04 4.5006120044270527e-03 0.0000000000000000e+00  1.4380054906065818e-04 4.0974603041468117e-03 0.0000000000000000e+00  1.4360757424300617e-04 4.1150132311868187e-03 0.0000000000000000e+00  1.4346750315963238e-04 4.1323496878436956e-03 0.0000000000000000e+00  1.4336369234850150e-04 4.1495317541365975e-03 0.0000000000000000e+00  1.4333448230129404e-04 4.1666001673640683e-03 0.0000000000000000e+00  1.4024403342385473e-04 4.1912331909017778e-03 0.0000000000000000e+00  1.3665025859782684e-04 4.2140895649189873e-03 0.0000000000000000e+00  1.3332441356472697e-04 4.2356711009734717e-03 0.0000000000000000e+00  1.3014484875128736e-04 4.2563417390443338e-03 0.0000000000000000e+00  1.2703082371642413e-04 4.2763227836678267e-03 0.0000000000000000e+00  1.2391868880457356e-04 4.2956813451089128e-03 0.0000000000000000e+00  1.2074104448636696e-04 4.3151715612453484e-03 0.0000000000000000e+00  1.1758493140108722e-04 4.3338603380268653e-03 0.0000000000000000e+00  1.1364710272559682e-04 4.3509800364483269e-03 0.0000000000000000e+00  1.1344186149029739e-04 4.3748794477139977e-03 0.0000000000000000e+00  1.1324548559835137e-04 4.3992083231599050e-03 0.0000000000000000e+00  1.1318402497532444e-04 4.4240588518134980e-03 0.0000000000000000e+00  1.1322533770347010e-04 4.4492524091377184e-03 0.0000000000000000e+00  1.1334598660474195e-04 4.4748011843347146e-03 0.0000000000000000e+00  1.1353593075362150e-04 4.5006492467189602e-03 0.0000000000000000e+00  1.1377140006991725e-04 4.5266294337382718e-03 0.0000000000000000e+00  1.2624704362466748e-04 4.1150169347835700e-03 0.0000000000000000e+00  1.2617634580357700e-04 4.1323706194925118e-03 0.0000000000000000e+00  1.2614732261690206e-04 4.1495459970771554e-03 0.0000000000000000e+00  1.2326036850576346e-04 4.1720506919312129e-03 0.0000000000000000e+00  1.1924273708064433e-04 4.1960097971895580e-03 0.0000000000000000e+00  1.1572592505796284e-04 4.2189225523492106e-03 0.0000000000000000e+00  1.1240604703131986e-04 4.2406503142233968e-03 0.0000000000000000e+00  1.0921285264580785e-04 4.2615392818391631e-03 0.0000000000000000e+00  1.0609051862082297e-04 4.2817918472065541e-03 0.0000000000000000e+00  1.0299288004101117e-04 4.3015513633875412e-03 0.0000000000000000e+00  9.9901514825538148e-05 4.3211454253901799e-03 0.0000000000000000e+00  9.6871197481752117e-05 4.3402807265108768e-03 0.0000000000000000e+00  9.3731274863554701e-05 4.3590809953205278e-03 0.0000000000000000e+00  9.0720527825572257e-05 4.3799586623466807e-03 0.0000000000000000e+00  8.8009618117742351e-05 4.3992173830313987e-03 0.0000000000000000e+00  8.7891797574544579e-05 4.4240951324970405e-03 0.0000000000000000e+00  8.7855110767054767e-05 4.4493295193104073e-03 0.0000000000000000e+00  8.7890229387094863e-05 4.4749126839798373e-03 0.0000000000000000e+00  8.7986472719553085e-05 4.5007447948802650e-03 0.0000000000000000e+00  8.8142231884190069e-05 4.5267418429389590e-03 0.0000000000000000e+00  8.8334932277001703e-05 4.5528825108356709e-03 0.0000000000000000e+00  1.0858091012410101e-04 4.1324425959818256e-03 0.0000000000000000e+00  1.0572108691668186e-04 4.1547913057534396e-03 0.0000000000000000e+00  1.0161719484802233e-04 4.1779470081669346e-03 0.0000000000000000e+00  9.7650039455954917e-05 4.2014673049863924e-03 0.0000000000000000e+00  9.4093857973199670e-05 4.2241252087910006e-03 0.0000000000000000e+00  9.0799274193779832e-05 4.2459059657384496e-03 0.0000000000000000e+00  8.7628463178677970e-05 4.2669519131081973e-03 0.0000000000000000e+00  8.4525312839971953e-05 4.2874227485796695e-03 0.0000000000000000e+00  8.1454599193672255e-05 4.3074599449033973e-03 0.0000000000000000e+00  7.8401926963710662e-05 4.3272457306515622e-03 0.0000000000000000e+00  7.5374627900610006e-05 4.3467512109880502e-03 0.0000000000000000e+00  7.2300067354861064e-05 4.3662193501549816e-03 0.0000000000000000e+00  6.9249912094829284e-05 4.3865380381177327e-03 0.0000000000000000e+00  6.6517405018297817e-05 4.4066596621567481e-03 0.0000000000000000e+00  6.4055862611013092e-05 4.4286556974085043e-03 0.0000000000000000e+00  6.2190568785411253e-05 4.4493691627704663e-03 0.0000000000000000e+00  6.2194546667514500e-05 4.4749803233257533e-03 0.0000000000000000e+00  6.2254065747968204e-05 4.5008322259148300e-03 0.0000000000000000e+00  6.2360090875665316e-05 4.5268473820136530e-03 0.0000000000000000e+00  6.2507024408616217e-05 4.5530118878102394e-03 0.0000000000000000e+00  6.2708585592394938e-05 4.5793376768029376e-03 0.0000000000000000e+00  8.3443210950031444e-05 4.1608021957434665e-03 0.0000000000000000e+00  7.9335905192235822e-05 4.1840968966344897e-03 0.0000000000000000e+00  7.5459138050178694e-05 4.2071886637248136e-03 0.0000000000000000e+00  7.1942343089230159e-05 4.2296359826733774e-03 0.0000000000000000e+00  6.8660011835544070e-05 4.2513967320846795e-03 0.0000000000000000e+00  6.5509771725072178e-05 4.2725459981675946e-03 0.0000000000000000e+00  6.2427776591633438e-05 4.2931882163796753e-03 0.0000000000000000e+00  5.9377419472356648e-05 4.3134404020880946e-03 0.0000000000000000e+00  5.6339057418729531e-05 4.3334320012651121e-03 0.0000000000000000e+00  5.3301661430403798e-05 4.3532313601457699e-03 0.0000000000000000e+00  5.0233220596707085e-05 4.3730483876027607e-03 0.0000000000000000e+00  4.7175430794950719e-05 4.3932600116341810e-03 0.0000000000000000e+00  4.4257483040632836e-05 4.4135800171664578e-03 0.0000000000000000e+00  4.1468514695549537e-05 4.4346578244099403e-03 0.0000000000000000e+00  3.8980845426316000e-05 4.4551935540730293e-03 0.0000000000000000e+00  3.6285545846835887e-05 4.4750215347182151e-03 0.0000000000000000e+00  3.6328725594403736e-05 4.5008865841678182e-03 0.0000000000000000e+00  3.6404155425664037e-05 4.5269335466820073e-03 0.0000000000000000e+00  3.6506792637639944e-05 4.5531294109534002e-03 0.0000000000000000e+00  3.6625540051266621e-05 4.5794377370099908e-03 0.0000000000000000e+00  3.6760956768793905e-05 4.6058000235418223e-03 0.0000000000000000e+00  5.6497151004222762e-05 4.1902664134459144e-03 0.0000000000000000e+00  5.2771531389402777e-05 4.2130765228574384e-03 0.0000000000000000e+00  4.9322938662197428e-05 4.2353563399700235e-03 0.0000000000000000e+00  4.6074175461194578e-05 4.2570836429829161e-03 0.0000000000000000e+00  4.2948389202632589e-05 4.2782981844769249e-03 0.0000000000000000e+00  3.9889806892004598e-05 4.2990721766451431e-03 0.0000000000000000e+00  3.6861437246186833e-05 4.3194968793536705e-03 0.0000000000000000e+00  3.3840923808341972e-05 4.3396753547184077e-03 0.0000000000000000e+00  3.0814417489435072e-05 4.3597006925888693e-03 0.0000000000000000e+00  2.7770364595524327e-05 4.3797317913152186e-03 0.0000000000000000e+00  2.4739591750798768e-05 4.3999577301910937e-03 0.0000000000000000e+00  2.1791437198536389e-05 4.4203214416440109e-03 0.0000000000000000e+00  1.8951170186203490e-05 4.4410154245047382e-03 0.0000000000000000e+00  1.6282075467455721e-05 4.4614853543015762e-03 0.0000000000000000e+00  1.3534959479652345e-05 4.4816106816807019e-03 0.0000000000000000e+00  1.0240882912029119e-05 4.5009388095299174e-03 0.0000000000000000e+00  1.0279940360992349e-05 4.5269723586565114e-03 0.0000000000000000e+00  1.0403781488350793e-05 4.5532207027532178e-03 0.0000000000000000e+00  1.0530729183480498e-05 4.5795514452875840e-03 0.0000000000000000e+00  1.0653426681836028e-05 4.6058923724565581e-03 0.0000000000000000e+00  1.0777970740026828e-05 4.6322065502669039e-03 0.0000000000000000e+00  2.9642600966937444e-05 4.2190610856623172e-03 0.0000000000000000e+00  2.6293517748522922e-05 4.2412228639629604e-03 0.0000000000000000e+00  2.3102327224594870e-05 4.2629209130536048e-03 0.0000000000000000e+00  2.0015845715285990e-05 4.2841813334782500e-03 0.0000000000000000e+00  1.6990117026008372e-05 4.3050568600367751e-03 0.0000000000000000e+00  1.3993044683337750e-05 4.3256193973936052e-03 0.0000000000000000e+00  1.1003906828349201e-05 4.3459534933644774e-03 0.0000000000000000e+00  8.0114868020703864e-06 4.3661485992487897e-03 0.0000000000000000e+00  5.0145672657144032e-06 4.3863222481376751e-03 0.0000000000000000e+00  2.0384881338515676e-06 4.4065864028221442e-03 0.0000000000000000e+