<?xml version="1.0"?>
<VTKFile type="UnstructuredGrid"  version="0.1"  >
<UnstructuredGrid>
<Piece  NumberOfPoints="640" NumberOfCells="1181">
<Points>
<DataArray  type="Float64"  NumberOfComponents="3"  format="ascii">2.973913043478261 0 0  2.990434782608696 0 0  2.990434782608696 0.01666666666666667 0  2.973913043478261 0.01666666666666667 0  3.006956521739131 0 0  3.006956521739131 0.01666666666666667 0  3.023478260869565 0 0  3.023478260869565 0.01666666666666667 0  3.04 0 0  3.04 0.01666666666666667 0  3.056521739130435 0 0  3.056521739130435 0.01666666666666667 0  3.073043478260869 0 0  3.073043478260869 0.01666666666666667 0  3.089565217391304 0 0  3.089565217391304 0.01666666666666667 0  3.106086956521739 0 0  3.106086956521739 0.01666666666666667 0  3.122608695652174 0 0  3.122608695652174 0.01666666666666667 0  3.139130434782609 0 0  3.139130434782609 0.01666666666666667 0  3.155652173913043 0 0  3.155652173913043 0.01666666666666667 0  3.172173913043478 0 0  3.172173913043478 0.01666666666666667 0  3.188695652173913 0 0  3.188695652173913 0.01666666666666667 0  3.205217391304347 0 0  3.205217391304347 0.01666666666666667 0  3.221739130434782 0 0  3.221739130434782 0.01666666666666667 0  3.238260869565217 0 0  3.238260869565217 0.01666666666666667 0  2.990434782608696 0.03333333333333333 0  2.973913043478261 0.03333333333333333 0  3.006956521739131 0.03333333333333333 0  3.023478260869565 0.03333333333333333 0  3.04 0.03333333333333333 0  3.056521739130435 0.03333333333333333 0  3.073043478260869 0.03333333333333333 0  3.089565217391304 0.03333333333333333 0  3.106086956521739 0.03333333333333333 0  3.122608695652174 0.03333333333333333 0  3.139130434782609 0.03333333333333333 0  3.155652173913043 0.03333333333333333 0  3.172173913043478 0.03333333333333333 0  3.188695652173913 0.03333333333333333 0  3.205217391304347 0.03333333333333333 0  3.221739130434782 0.03333333333333333 0  3.238260869565217 0.03333333333333333 0  3.254782608695652 0.03333333333333333 0  2.990434782608696 0.05 0  3.006956521739131 0.05 0  3.023478260869565 0.05 0  3.04 0.05 0  3.056521739130435 0.05 0  3.073043478260869 0.05 0  3.089565217391304 0.05 0  3.106086956521739 0.05 0  3.122608695652174 0.05 0  3.139130434782609 0.05 0  3.155652173913043 0.05 0  3.172173913043478 0.05 0  3.188695652173913 0.05 0  3.205217391304347 0.05 0  3.221739130434782 0.05 0  3.238260869565217 0.05 0  3.254782608695652 0.05 0  3.271304347826087 0.05 0  3.006956521739131 0.06666666666666667 0  2.990434782608696 0.06666666666666667 0  3.023478260869565 0.06666666666666667 0  3.04 0.06666666666666667 0  3.056521739130435 0.06666666666666667 0  3.073043478260869 0.06666666666666667 0  3.089565217391304 0.06666666666666667 0  3.106086956521739 0.06666666666666667 0  3.122608695652174 0.06666666666666667 0  3.139130434782609 0.06666666666666667 0  3.155652173913043 0.06666666666666667 0  3.172173913043478 0.06666666666666667 0  3.188695652173913 0.06666666666666667 0  3.205217391304347 0.06666666666666667 0  3.221739130434782 0.06666666666666667 0  3.238260869565217 0.06666666666666667 0  3.254782608695652 0.06666666666666667 0  3.271304347826087 0.06666666666666667 0  3.287826086956521 0.06666666666666667 0  3.006956521739131 0.08333333333333333 0  3.023478260869565 0.08333333333333333 0  3.04 0.08333333333333333 0  3.056521739130435 0.08333333333333333 0  3.073043478260869 0.08333333333333333 0  3.089565217391304 0.08333333333333333 0  3.106086956521739 0.08333333333333333 0  3.122608695652174 0.08333333333333333 0  3.139130434782609 0.08333333333333333 0  3.155652173913043 0.08333333333333333 0  3.172173913043478 0.08333333333333333 0  3.188695652173913 0.08333333333333333 0  3.205217391304347 0.08333333333333333 0  3.221739130434782 0.08333333333333333 0  3.238260869565217 0.08333333333333333 0  3.254782608695652 0.08333333333333333 0  3.271304347826087 0.08333333333333333 0  3.287826086956521 0.08333333333333333 0  3.304347826086957 0.08333333333333333 0  3.023478260869565 0.1 0  3.006956521739131 0.1 0  3.04 0.1 0  3.056521739130435 0.1 0  3.073043478260869 0.1 0  3.089565217391304 0.1 0  3.106086956521739 0.1 0  3.122608695652174 0.1 0  3.139130434782609 0.1 0  3.155652173913043 0.1 0  3.172173913043478 0.1 0  3.188695652173913 0.1 0  3.205217391304347 0.1 0  3.221739130434782 0.1 0  3.238260869565217 0.1 0  3.254782608695652 0.1 0  3.271304347826087 0.1 0  3.287826086956521 0.1 0  3.304347826086957 0.1 0  3.320869565217391 0.1 0  3.023478260869565 0.1166666666666667 0  3.04 0.1166666666666667 0  3.056521739130435 0.1166666666666667 0  3.073043478260869 0.1166666666666667 0  3.089565217391304 0.1166666666666667 0  3.106086956521739 0.1166666666666667 0  3.122608695652174 0.1166666666666667 0  3.139130434782609 0.1166666666666667 0  3.155652173913043 0.1166666666666667 0  3.172173913043478 0.1166666666666667 0  3.188695652173913 0.1166666666666667 0  3.205217391304347 0.1166666666666667 0  3.221739130434782 0.1166666666666667 0  3.238260869565217 0.1166666666666667 0  3.254782608695652 0.1166666666666667 0  3.271304347826087 0.1166666666666667 0  3.287826086956521 0.1166666666666667 0  3.304347826086957 0.1166666666666667 0  3.320869565217391 0.1166666666666667 0  3.337391304347826 0.1166666666666667 0  3.04 0.1333333333333333 0  3.023478260869565 0.1333333333333333 0  3.056521739130435 0.1333333333333333 0  3.073043478260869 0.1333333333333333 0  3.089565217391304 0.1333333333333333 0  3.106086956521739 0.1333333333333333 0  3.122608695652174 0.1333333333333333 0  3.139130434782609 0.1333333333333333 0  3.155652173913043 0.1333333333333333 0  3.172173913043478 0.1333333333333333 0  3.188695652173913 0.1333333333333333 0  3.205217391304347 0.1333333333333333 0  3.221739130434782 0.1333333333333333 0  3.238260869565217 0.1333333333333333 0  3.254782608695652 0.1333333333333333 0  3.271304347826087 0.1333333333333333 0  3.287826086956521 0.1333333333333333 0  3.304347826086957 0.1333333333333333 0  3.320869565217391 0.1333333333333333 0  3.337391304347826 0.1333333333333333 0  3.353913043478261 0.1333333333333333 0  3.04 0.15 0  3.056521739130435 0.15 0  3.073043478260869 0.15 0  3.089565217391304 0.15 0  3.106086956521739 0.15 0  3.122608695652174 0.15 0  3.139130434782609 0.15 0  3.155652173913043 0.15 0  3.172173913043478 0.15 0  3.188695652173913 0.15 0  3.205217391304347 0.15 0  3.221739130434782 0.15 0  3.238260869565217 0.15 0  3.254782608695652 0.15 0  3.271304347826087 0.15 0  3.287826086956521 0.15 0  3.304347826086957 0.15 0  3.320869565217391 0.15 0  3.337391304347826 0.15 0  3.353913043478261 0.15 0  3.370434782608696 0.15 0  3.056521739130435 0.1666666666666667 0  3.073043478260869 0.1666666666666667 0  3.089565217391304 0.1666666666666667 0  3.106086956521739 0.1666666666666667 0  3.122608695652174 0.1666666666666667 0  3.139130434782609 0.1666666666666667 0  3.155652173913043 0.1666666666666667 0  3.172173913043478 0.1666666666666667 0  3.188695652173913 0.1666666666666667 0  3.205217391304347 0.1666666666666667 0  3.221739130434782 0.1666666666666667 0  3.238260869565217 0.1666666666666667 0  3.254782608695652 0.1666666666666667 0  3.271304347826087 0.1666666666666667 0  3.287826086956521 0.1666666666666667 0  3.304347826086957 0.1666666666666667 0  3.320869565217391 0.1666666666666667 0  3.337391304347826 0.1666666666666667 0  3.353913043478261 0.1666666666666667 0  3.370434782608696 0.1666666666666667 0  3.386956521739131 0.1666666666666667 0  3.073043478260869 0.1833333333333333 0  3.089565217391304 0.1833333333333333 0  3.106086956521739 0.1833333333333333 0  3.122608695652174 0.1833333333333333 0  3.139130434782609 0.1833333333333333 0  3.155652173913043 0.1833333333333333 0  3.172173913043478 0.1833333333333333 0  3.188695652173913 0.1833333333333333 0  3.205217391304347 0.1833333333333333 0  3.221739130434782 0.1833333333333333 0  3.238260869565217 0.1833333333333333 0  3.254782608695652 0.1833333333333333 0  3.271304347826087 0.1833333333333333 0  3.287826086956521 0.1833333333333333 0  3.304347826086957 0.1833333333333333 0  3.320869565217391 0.1833333333333333 0  3.337391304347826 0.1833333333333333 0  3.353913043478261 0.1833333333333333 0  3.370434782608696 0.1833333333333333 0  3.386956521739131 0.1833333333333333 0  3.403478260869565 0.1833333333333333 0  3.089565217391304 0.2 0  3.106086956521739 0.2 0  3.122608695652174 0.2 0  3.139130434782609 0.2 0  3.155652173913043 0.2 0  3.172173913043478 0.2 0  3.188695652173913 0.2 0  3.205217391304347 0.2 0  3.221739130434782 0.2 0  3.238260869565217 0.2 0  3.254782608695652 0.2 0  3.271304347826087 0.2 0  3.287826086956521 0.2 0  3.304347826086957 0.2 0  3.320869565217391 0.2 0  3.337391304347826 0.2 0  3.353913043478261 0.2 0  3.370434782608696 0.2 0  3.386956521739131 0.2 0  3.403478260869565 0.2 0  3.419999999999999 0.2 0  3.106086956521739 0.2166666666666667 0  3.122608695652174 0.2166666666666667 0  3.139130434782609 0.2166666666666667 0  3.155652173913043 0.2166666666666667 0  3.172173913043478 0.2166666666666667 0  3.188695652173913 0.2166666666666667 0  3.205217391304347 0.2166666666666667 0  3.221739130434782 0.2166666666666667 0  3.238260869565217 0.2166666666666667 0  3.254782608695652 0.2166666666666667 0  3.271304347826087 0.2166666666666667 0  3.287826086956521 0.2166666666666667 0  3.304347826086957 0.2166666666666667 0  3.320869565217391 0.2166666666666667 0  3.337391304347826 0.2166666666666667 0  3.353913043478261 0.2166666666666667 0  3.370434782608696 0.2166666666666667 0  3.386956521739131 0.2166666666666667 0  3.403478260869565 0.2166666666666667 0  3.419999999999999 0.2166666666666667 0  3.436521739130435 0.2166666666666667 0  3.122608695652174 0.2333333333333333 0  3.139130434782609 0.2333333333333333 0  3.155652173913043 0.2333333333333333 0  3.172173913043478 0.2333333333333333 0  3.188695652173913 0.2333333333333333 0  3.205217391304347 0.2333333333333333 0  3.221739130434782 0.2333333333333333 0  3.238260869565217 0.2333333333333333 0  3.254782
[...]
<CellData  Scalars="rho"> 
<DataArray  type="Float64"  Name="rho"  format="ascii">5.8047303586038435e-01   5.7499749790502019e-01   5.6978272748502190e-01   5.6508700850141780e-01   5.4917147375417918e-01   5.4550788201111788e-01   5.3798337593842904e-01   5.3517263501224710e-01   5.2610535355799959e-01   5.2423990049384328e-01   5.1219940800187325e-01   5.1137191680064453e-01   4.9870063516414403e-01   4.9904182150409010e-01   4.8395843457290932e-01   4.8563224228279922e-01   4.6761885444927215e-01   4.7081525576061645e-01   4.3626131278735636e-01   4.5417940683523284e-01   4.2080581267164241e-01   4.2474792900546809e-01   4.0624831766834957e-01   4.1150830598076771e-01   3.8956660185683345e-01   3.9625888330913722e-01   3.5841432254029304e-01   3.7860825970393236e-01   3.1780093220895500e-01   3.4296225334188263e-01   2.5397496705674433e-01   2.9281476937459561e-01   5.3152415165913025e-01   5.1109491487796865e-01   5.2405107162863251e-01   5.0511257343172689e-01   5.1627740717774862e-01   4.9898905972402213e-01   5.0817167136540708e-01   4.9270570328691460e-01   4.9851025668546328e-01   4.8517458563649118e-01   4.8958931275270900e-01   4.7842808897546429e-01   4.7999555985825637e-01   4.7124195844384198e-01   4.6946537120227855e-01   4.6338866673522794e-01   4.5763482898465907e-01   4.3843120464245772e-01   4.3172033794773912e-01   4.3127295233632140e-01   4.1950071334074718e-01   4.2110867593262064e-01   4.0820631643128324e-01   4.1221791628636378e-01   3.9474964927989209e-01   4.0140358675523330e-01   3.7865028317560301e-01   3.8806204037317998e-01   3.5594444006511144e-01   3.7019060459547654e-01   3.1931235925906554e-01   3.4797148700514602e-01   3.1031162597301964e-01   4.5593651421441500e-01   4.5313872448907438e-01   4.1720283673354308e-01   4.5067123449816687e-01   4.1599294431704587e-01   4.4837948650132642e-01   4.1507818269869584e-01   4.4635958439235313e-01   4.1444446847198729e-01   4.3004284128124687e-01   4.1411203211966485e-01   4.2814448135863914e-01   4.1415795328153399e-01   4.2615430076320215e-01   4.1419361752125433e-01   4.2128946023834374e-01   4.1423943281005771e-01   4.1863999061780016e-01   4.1404056223111485e-01   4.1503433324040090e-01   4.1320377231503758e-01   4.0995711102431392e-01   4.1110204982714033e-01   4.0287392645865339e-01   4.0736248980298440e-01   3.8950077100926689e-01   3.9792256840245782e-01   3.7644532907897316e-01   3.8869434043860235e-01   3.5766807045473553e-01   3.7534232360521125e-01   3.3350844534256480e-01   3.5585798535942004e-01   3.3211808930095144e-01   3.7877611635318414e-01   3.5711517104457774e-01   3.8034316793619011e-01   3.6153518942313184e-01   3.8235377763217177e-01   3.6479019133275736e-01   3.8479140624467029e-01   3.6852589161185462e-01   3.8765472322131078e-01   3.7273983218687973e-01   3.9109608448808680e-01   3.7745474063982415e-01   3.9474016546231067e-01   3.8281279758347120e-01   3.9867440277244437e-01   3.8848080959160375e-01   4.0265850476895815e-01   3.9448344605587193e-01   4.0649374758287693e-01   3.9672295060304780e-01   4.0589131494017422e-01   4.0313535547136448e-01   4.0713276849902724e-01   4.0801571831103772e-01   4.0588125454413121e-01   4.1060273908652595e-01   4.0091278615056686e-01   4.0959756304946582e-01   3.9133297427932823e-01   4.0453973802222765e-01   3.7648858383999362e-01   3.9426044476883182e-01   3.5609149381534388e-01   3.7822821191036654e-01   3.5634684382639853e-01   3.2056128990653793e-01   3.2637452878077911e-01   2.8876035996516242e-01   3.3274416690673880e-01   3.1525139738535674e-01   3.3963126510634628e-01   3.2342018344543005e-01   3.4794415515090182e-01   3.3204917743974793e-01   3.5679030280988372e-01   3.4226242088419284e-01   3.6029613949718969e-01   3.4807023700230488e-01   3.6946390754262404e-01   3.5797238332976022e-01   3.7938909735993470e-01   3.6884500104317036e-01   3.8978085892496644e-01   3.8056798633356093e-01   4.0050586995092319e-01   3.9316127964457198e-01   4.0990555704625259e-01   4.0517543940651951e-01   4.1714924832307915e-01   4.1577847766527898e-01   4.2097996752327860e-01   4.2368946193715734e-01   4.2017142332115914e-01   4.6887097837298791e-01   4.1370156240920936e-01   4.6630789946952755e-01   4.0085050270761174e-01   4.5372138346543422e-01   3.8189949130815931e-01   4.1619694738096807e-01   3.8363152905864911e-01   2.6459856478880828e-01   2.5066766493844755e-01   2.7708406510087413e-01   2.6384460865510784e-01   2.8981265671352036e-01   2.7673899873375307e-01   3.1724288687524882e-01   2.8990801126735788e-01   3.2747764422942627e-01   3.1721081621242198e-01   3.3922063836146960e-01   3.2871555763858273e-01   3.5143086391568779e-01   3.4010614134984379e-01   3.6392960704541572e-01   3.5287522482807371e-01   3.7251134459453261e-01   3.6647980007296094e-01   3.8787832793366095e-01   3.8200989329362717e-01   4.0317439217329731e-01   3.9324436619577863e-01   4.4620894342011974e-01   4.3825499299033671e-01   5.0354722769815830e-01   5.0929604423347041e-01   5.2397209881777651e-01   5.4518273825385255e-01   5.1836779629940133e-01   5.2866918105288840e-01   4.8366164355422414e-01   5.6285009604494840e-01   4.9235373575385472e-01   5.4964472539104026e-01   4.5134268012085288e-01   5.0210847129018288e-01   4.6005201061110251e-01   2.4969543634684818e-01   2.6239716129851881e-01   2.5711613200931310e-01   2.7488597118559754e-01   2.6934124509962437e-01   2.8719182101835461e-01   2.8106332040759729e-01   2.9958862734583702e-01   2.9248882326928771e-01   3.2357734309680458e-01   3.1735548313807938e-01   3.3435979769392959e-01   3.2662207337700228e-01   3.4594760513198947e-01   3.3680905658417637e-01   3.5874433657282290e-01   3.4781381316903104e-01   3.7411219719904970e-01   3.6131144940186544e-01   3.9382041156327274e-01   3.7775807387087240e-01   4.9004131764064179e-01   4.1747970330589651e-01   5.3028591652048274e-01   4.7391348259651811e-01   5.5591116448192013e-01   5.4038142514377774e-01   6.1190602228496493e-01   6.0384810505068220e-01   5.9002056320889984e-01   5.9200409961133116e-01   5.8458694900703512e-01   5.9795759958617278e-01   5.6393771107851587e-01   5.8956389997279890e-01   4.9935211926091938e-01   5.3877226493078623e-01   5.0110960506592184e-01   2.7556391832602067e-01   2.8002500277349135e-01   2.8677714533208126e-01   2.9102958426424869e-01   2.9570067233507019e-01   2.9923401303268127e-01   3.0269957184606039e-01   3.0479045239181429e-01   3.1550695525305233e-01   3.0847639010971506e-01   3.2186236799293266e-01   3.1691931728744765e-01   3.2944969362128085e-01   3.2211241062069368e-01   3.3827594717449677e-01   3.2899518104814673e-01   3.5029998895706954e-01   3.3811476955413594e-01   3.6602672255369578e-01   3.5094979710448931e-01   4.0360693499772354e-01   3.8378422508724186e-01   4.3348532925828037e-01   4.1206853219900508e-01   4.9711900024739830e-01   4.3733757806177814e-01   5.6471775602646113e-01   5.3766774186257704e-01   5.9061768492710220e-01   5.7121174945686892e-01   6.0565396650627179e-01   5.9633851885241551e-01   6.0713818976885703e-01   6.0982597957910545e-01   5.9314867498030444e-01   6.0903299756899598e-01   5.3754380414007474e-01   5.9217381114426126e-01   5.3031795631108447e-01   3.1107019596966146e-01   3.1886486782536194e-01   3.2874456909541350e-01   3.2229441313484580e-01   3.3188719478264544e-01   3.1596459548426986e-01   3.3019367263283345e-01   3.2811426651460068e-01   3.3438719325620453e-01   3.2189108910555020e-01   3.2536856695808131e-01   3.1548931460228974e-01   3.1742529363643440e-01   3.1893838366348465e-01   3.1282562450121387e-01   3.2514796358005205e-01   3.1514443647400053e-01   3.3758173500232930e-01   3.2216287071321825e-01   3.5293575361847673e-01   3.3557041920419778e-01   3.8954726132733053e-01   3.5246484645545434e-01   4.1608726997483103e-01   3.8959255663701370e-01   4.7584930621281296e-01   4.1764220601806562e-01   5.1901329098580262e-01   4.7881517490456715e-01   5.8103732124623286e-01   5.2319008148300139e-01   6.0473427871055763e-01   5.8527187647592349e-01   6.1507721579632146e-01   6.0805189524174796e-01   6.0955869109413452e-01   6.1646140871010813e-01   5.5849359469089876e-01   5.7610002032378227e-01   5.5473591411223455e-01   3.5369287926723919e-01   3.5144286330327534e-01   3.7943820230536546e-01   3.5916878577686967e-01   3.7023533135918457e-01   3.3902563072995895e-01   3.5521854449645501e-01   3.2392518816845628e-01   3.3130288839684402e-01   3.1008359003458691e-01   3.1417851931378477e-01   3.0259380729829799e-01   3.0030284441641125e-01   3.0103904084782596e-01   2.9472709593987112e-01   3.0595305493252001e-01   2.9464011502585924e-01   3.1587057094334037e-01   3.0029454733125788e-01   3.3154399618382652e-01   3.1233906881794110e-01   3.5506019637303393e-01   3.3024943119601985e-01   3.9014698229394701e-01   3.5528812787245712e-01   4.4752737236803969e-01   4.1020271596829522e-01   4.9375045091806730e-01   4.4936459954854646e-01   5.3175978798861312e-01   4.9828510222784234e-01   5.6146243718127942e-01   5.3658538198138506e-01   6.1415790221636080e-01   5.6546684791890056e-01   5.8355909265776429e-01   5.8171819296042016e-01   5.7199754302722816e-01   5.8305835512175264e-01   5.6838145584800037e-01   3.9302197239773601e-01   3.7858038763706553e-01   3.8920947628590769e-01   3.5663066053311099e-01   3.6891872218528393e-01   3.2887172084136967e-01   3.3833502631707985e-01   3.0518510061190929e-01   3.1431281897062674e-01   2.8981766218896926e-01   2.9112348066893873e-01   2.8031444024917568e-01   2.7726377564068744e-01   2.7677820216385118e-01   2.6917555969565887e-01   2.8006076491230708e-01   2.6772787624536371e-01   2.9045351226846228e-01   2.7362891117025478e-01   3.0752157557217241e-01   2.8683063228708111e-01   3.3041403299721706e-01   3.0662306598285172e-01   3.5907947024471304e-01   3.3190632678194748e-01   4.1261896260594916e-01   3.7335935518257662e-01   4.6393424492388385e-01   4.1546573678613585e-01   5.0962134776392498e-01   4.7056339512355555e-01   5.4729271647218725e-01   5.1642397409560359e-01   5.7325571712818502e-01   5.5297002809684193e-01   5.8469149557921818e-01   5.7668613127440715e-01   5.7995888656931882e-01   5.8508203263169811e-01   5.7692454491089495e-01   3.9040607333945515e-01   3.5976890777178616e-01   3.7500089763137312e-01   3.3218198486185835e-01   3.4151881222287372e-01   3.0240850532918107e-01   3.1083936662994205e-01   2.7887003062972848e-01   2.7815849045876712e-01   2.6248581176640073e-01   2.5424852208503768e-01   2.4121099801903559e-01   2.3683659577531213e-01   1.9956697926350786e-01   1.8689617958873689e-01   2.0312154486654191e-01   1.8293911211207414e-01   2.1995184121446598e-01   1.9499088072632789e-01   2.8346092287430991e-01   2.3496121691919106e-01   3.0877359260298198e-01   2.8383549782570361e-01   3.3814073110522713e-01   3.1155399210849838e-01   3.8320925364163516e-01   3.4281579576055377e-01   4.3836819623198825e-01   3.9373413013619213e-01   4.8646887154355467e-01   4.4813341898036441e-01   5.3093514463296920e-01   4.9544997080287190e-01   5.6368415711930908e-01   5.3830749532346855e-01   5.8178227182834252e-01   5.6839378661920015e-01   5.8351399838133122e-01   5.8316425278429529e-01   5.8133537139198144e-01   3.6033947698426827e-01   3.2833181626131358e-01   3.3621968739177116e-01   2.9283724027992036e-01   3.0049142751380670e-01   2.6946808117376675e-01   2.7472948431077143e-01   2.3709400128047800e-01   2.4074914825992336e-01   1.7785118339540931e-01   2.0853391532468543e-01   1.3764622095314108e-01   1.3205963638077828e-01   1.3135109127437605e-01   1.1785898012750816e-01   1.4087185563615420e-01   1.1909298492836366e-01   1.8672393628941494e-01   1.3600115916840075e-01   2.3641173184662587e-01   1.9108756839522323e-01   2.8877849254221744e-01   2.5145254127005462e-01   3.2026232892138440e-01   2.9283044972160333e-01   3.5431121320255404e-01   3.2591300045454424e-01   4.1224123270466956e-01   3.6808310140406292e-01   4.6871847344439560e-01   4.2355290643593424e-01   5.1336257649760220e-01   4.7918990509767501e-01   5.5158033579208043e-01   5.2205047997795484e-01   5.7550761728470945e-01   5.5735787383965707e-01   5.8340827948362262e-01   5.7788729287592178e-01   5.8230893973688058e-01   3.1797766321571092e-01   2.8015891654574665e-01   2.8649772330675494e-01   2.6072090505067985e-01   2.6645713418507505e-01   2.1587576903261013e-01   2.2192003488845519e-01   1.3402972722708978e-01   1.3924102918872172e-01   1.0572054600054041e-01   1.0641018413031557e-01   8.6882016605304382e-02   8.4946909711583488e-02   8.7255237909587210e-02   7.3207769537148554e-02   1.0302045759825644e-01   8.0935383259562996e-02   1.3344457329247772e-01   1.0350753173928300e-01   2.1548404380694858e-01   1.5545476977082959e-01   2.6090042952251519e-01   2.2837661048891486e-01   3.0335289857212233e-01   2.6734838341038331e-01   3.4260054471721646e-01   3.0945013151064593e-01   3.9165631871223072e-01   3.5243712119220344e-01   4.4503012594036800e-01   4.0312132597309519e-01   4.9833735200745105e-01   4.5501716338394316e-01   5.3718731043525902e-01   5.0702362264530121e-01   5.6623557465595875e-01   5.4376112417081368e-01   5.8011539316795990e-01   5.6955530890739836e-01   5.8020746406395407e-01   2.8138077853854598e-01   2.5105478198979270e-01   2.5932316627174318e-01   1.7211963217717191e-01   1.8147431244654311e-01   1.1545029295345659e-01   1.2279679208453623e-01   8.4461000111658177e-02   8.8296256030078693e-02   6.4161587174827950e-02   6.3688448258209948e-02   5.2607505418157167e-02   4.5525164998258282e-02   5.9616182290187850e-02   4.5347387856294670e-02   8.0679201485592336e-02   5.8860798834540207e-02   1.1490350485011558e-01   8.5654657915268606e-02   1.9345374497553622e-01   1.1542118952197342e-01   2.4032339055738389e-01   2.1119748866281995e-01   2.8680440265806600e-01   2.4760775444529368e-01   3.2718870570306563e-01   2.9279762086770478e-01   3.7570861602960259e-01   3.3630559939842242e-01   4.2339363815450404e-01   3.8648603056492808e-01   4.7920222484313807e-01   4.3225654820839809e-01   5.2041226160415022e-01   4.8785055450866427e-01   5.5398411283218896e-01   5.2740918066662057e-01   5.7366352866455705e-01   5.5802032037864802e-01   5.7482215843019313e-01   2.0211043807508128e-01   1.5820807845394899e-01   1.7432063946991647e-01   1.0251955402344611e-01   1.3114365761355193e-01   7.0258158644296895e-02   7.5761458237642437e-02   4.7144586881641297e-02   4.9125328289890413e-02   2.9600720403790297e-02   2.9390828508933840e-02   2.9968988660501544e-02   2.0509679170463490e-02   1.9570074079295213e-02   3.7693216718135253e-03   4.2973607140133527e-02   1.9000199725894115e-02   9.2804211788358112e-02   4.9951103564732764e-02   1.5603313754514331e-01   1.0158089732650985e-01   2.0865900822656464e-01   1.7839014337476997e-01   2.5427825247016111e-01   2.1650610668597850e-01   3.0294862153454455e-01   2.6195154982491831e-01   3.5794204232310822e-01   3.1433558847315740e-01   4.0496262159327234e-01   3.6765867472260266e-01   4.4644818875825765e-01   4.1289870174618254e-01   5.0067720268277971e-01   4.5221561833573992e-01   5.3819930568531527e-01   5.0753157537563898e-01   5.6341096435361826e-01   5.4247182865494115e-01   5.6520979591656129e-01   1.5175277171071994e-01   1.1122324516666693e-01   1.2906872243723608e-01   5.7499802590257859e-02   6.2597628845972003e-02   3.3598847151767475e-02   3.6450157736849551e-02   3.9589436478893658e-03   1.0770054269612717e-02   3.7935312304597084e-04   3.6918160452367412e-04   3.3497315108503307e-04   3.1989933346572672e-04   3.4321438023632682e-03   2.9612210896100218e-04   2.8297426115476105e-02   1.0785951330533148e-02   8.0223754645972964e-02   3.9619112484345936e-02   1.4833183900703711e-01   1.1053142510307098e-01   1.8998704142493120e-01   1.6052374996014931e-01   2.3549563625759004e-01   2.0256281389724129e-01   2.7824234447525709e-01   2.3875902093319359e-01   3.3467676697989512e-01   2.8914990337305652e-01   3.8402554821429974e-01   3.4369221917540077e-01   4.2551425577885305e-01   3.9100330456409965e-01   4.6067405790237209e-01   4.3066052368343316e-01   5.1764344201864021e-01   4.6381559822102414e-01   5.4800454115836028e-01   5.2143203629232171e-01   5.6371223132933845e-01   1.0892147225760465e-01   4.3317215209133508e-02   6.9500074077935459e-02   1.5916488927595181e-02   1.8404201494502885e-02   3.5553582483871087e-04   3.5052836480198497e-04   2.9895339546558814e-04   2.9153926382337667e-04   2.6595164766317407e-04   2.5517937466364746e-04   2.5306128352264547e-04   2.3796726556936569e-04   2.5819529511622938e-04   2.3769153799601593e-04   2.1927704596269339e-02   2.5330011824254274e-04   9.0559678493362328e-02   2.8795862536901227e-02   1.3836455282960652e-01   9.7204250633817851e-02   1.7833630509025647e-01   1.4280584584650383e-01   2.1103176539147322e-01   1.8163642933660537e-01   2.5213953745347611e-01   2.1216990936413130e-01   3.0211487875739257e-01   2.6041269958966562e-01   3.4934315524537779e-01   3.0948404162621340e-01   4.0281295170704817e-01   3.5752247786047592e-01   4.3817952274080973e-01   4.0748824825777946e-01   4.7272995213760027e-01   4.4102838780147391e-01   5.2563745119282290e-01   4.7439210084266037e-01   5.3959315309181799e-01   2.0689122141267478e-02   4.6789212823332866e-04   3.4087978379892527e-04   2.8203996911352954e-04   2.7889962929728625e-04   2.4107675055763664e-04   2.3658678741445062e-04   2.1745480732917731e-04   2.1076827344871198e-04   2.0884585918704604e-04   1.9910764579490715e-04   2.1391455564874818e-04   2.0016470265191551e-04   2.3224122845261195e-04   2.1336086558770663e-04   1.0200212925269196e-02   2.3888622499354707e-04   7.4451611728174522e-02   5.0358135673997127e-02   1.2028923960030276e-01   8.0016559317903760e-02   1.5702424650076174e-01   1.3140533797155438e-01   1.8720777615543563e-01   1.5937248865056272e-01   2.2715970381581860e-01   1.8864760705194875e-01   2.7390796833712244e-01   2.3326137084084705e-01   3.2075496561005196e-01   2.7909940601431565e-01   3.6557324356054977e-01   3.2480912174684295e-01   4.0304156757445858e-01   3.6839675725404708e-01   4.4447299432566900e-01   4.0472877961618109e-01   4.7557510893892507e-01   4.4553380360891254e-01   4.7561541630691534e-01   2.7544834252249178e-04   2.3218229892764294e-04   2.3150302087612451e-04   2.0371659531940773e-04   2.0245413531507964e-04   1.8783030654782559e-04   1.8527001751834254e-04   1.8298645266769491e-04   1.7839692101753092e-04   1.8836129306008722e-04   1.8092236630768977e-04   2.0382101511052305e-04   1.9257217735536039e-04   2.2985885498447012e-04   2.1367455313258565e-04   1.9050669480460976e-02   2.4508714427783968e-04   5.9614369386479328e-02   3.5661603684028854e-02   1.0112849104306949e-01   6.2814876873117140e-02   1.3529174077042805e-01   1.0247969658887103e-01   1.6327501025941124e-01   1.3722797281785176e-01   1.9960610195491615e-01   1.6674246703552351e-01   2.4244260973027656e-01   2.0357554002360467e-01   2.8606390652176528e-01   2.4536686284382245e-01   3.2942221474968031e-01   2.8789590227789502e-01   3.7133423412428923e-01   3.3026317897742258e-01   4.0589639166994279e-01   3.7186894524603409e-01   4.6781778517242661e-01   4.2702895634815136e-01   4.6680787349666120e-01   2.0428895738582964e-04   1.8598598378924077e-04   1.8850104465455432e-04   1.7665241750808723e-04   1.7863145076308772e-04   1.7528047736503570e-04   1.7609665754797239e-04   1.8138877176219651e-04   1.8033665172645269e-04   1.9501895440010504e-04   1.9127456686260922e-04   2.1671095977805849e-04   2.0930411816302841e-04   2.4744734751497511e-04   2.3525513840188053e-04   2.7340523015494337e-02   2.2167170235310903e-03   5.1689206883418083e-02   3.7010364919816768e-02   8.6069530019551199e-02   7.5203960917409385e-02   1.0676953323266014e-01   9.1480215641846899e-02   1.3181733617143401e-01   1.0911215201030675e-01   1.7318630818253239e-01   1.3489511810019880e-01   2.0883342004768241e-01   1.7568633493843852e-01   2.4820649684079896e-01   2.0912430310782357e-01   2.8861637840071214e-01   2.4814345054590922