<?xml version="1.0"?>
<VTKFile type="UnstructuredGrid"  version="0.1"  >
<UnstructuredGrid>
<Piece  NumberOfPoints="608" NumberOfCells="1117">
<Points>
<DataArray  type="Float64"  NumberOfComponents="3"  format="ascii">0.08260869565217391 0 0  0.09913043478260869 0 0  0.09913043478260869 0.01666666666666667 0  0.1156521739130435 0 0  0.1156521739130435 0.01666666666666667 0  0.1321739130434783 0 0  0.1321739130434783 0.01666666666666667 0  0.148695652173913 0 0  0.148695652173913 0.01666666666666667 0  0.1652173913043478 0 0  0.1652173913043478 0.01666666666666667 0  0.1817391304347826 0 0  0.1817391304347826 0.01666666666666667 0  0.1982608695652174 0 0  0.1982608695652174 0.01666666666666667 0  0.2147826086956522 0 0  0.2147826086956522 0.01666666666666667 0  0.2313043478260869 0 0  0.2313043478260869 0.01666666666666667 0  0.2478260869565218 0 0  0.2478260869565218 0.01666666666666667 0  0.2643478260869565 0 0  0.2643478260869565 0.01666666666666667 0  0.2808695652173913 0 0  0.2808695652173913 0.01666666666666667 0  0.2973913043478261 0 0  0.2973913043478261 0.01666666666666667 0  0.3139130434782609 0 0  0.3139130434782609 0.01666666666666667 0  0.3304347826086956 0 0  0.3304347826086956 0.01666666666666667 0  0.3469565217391304 0 0  0.3469565217391304 0.01666666666666667 0  0.3634782608695652 0 0  0.3634782608695652 0.01666666666666667 0  0.3799999999999999 0 0  0.3799999999999999 0.01666666666666667 0  0.3965217391304348 0 0  0.3965217391304348 0.01666666666666667 0  0.4130434782608696 0 0  0.4130434782608696 0.01666666666666667 0  0.4295652173913043 0.01666666666666667 0  0.1156521739130435 0.03333333333333333 0  0.1321739130434783 0.03333333333333333 0  0.148695652173913 0.03333333333333333 0  0.1652173913043478 0.03333333333333333 0  0.1817391304347826 0.03333333333333333 0  0.1982608695652174 0.03333333333333333 0  0.2147826086956522 0.03333333333333333 0  0.2313043478260869 0.03333333333333333 0  0.2478260869565218 0.03333333333333333 0  0.2643478260869565 0.03333333333333333 0  0.2808695652173913 0.03333333333333333 0  0.2973913043478261 0.03333333333333333 0  0.3139130434782609 0.03333333333333333 0  0.3304347826086956 0.03333333333333333 0  0.3469565217391304 0.03333333333333333 0  0.3634782608695652 0.03333333333333333 0  0.3799999999999999 0.03333333333333333 0  0.3965217391304348 0.03333333333333333 0  0.4130434782608696 0.03333333333333333 0  0.4295652173913043 0.03333333333333333 0  0.4460869565217391 0.03333333333333333 0  0.1321739130434783 0.05 0  0.148695652173913 0.05 0  0.1652173913043478 0.05 0  0.1817391304347826 0.05 0  0.1982608695652174 0.05 0  0.2147826086956522 0.05 0  0.2313043478260869 0.05 0  0.2478260869565218 0.05 0  0.2643478260869565 0.05 0  0.2808695652173913 0.05 0  0.2973913043478261 0.05 0  0.3139130434782609 0.05 0  0.3304347826086956 0.05 0  0.3469565217391304 0.05 0  0.3634782608695652 0.05 0  0.3799999999999999 0.05 0  0.3965217391304348 0.05 0  0.4130434782608696 0.05 0  0.4295652173913043 0.05 0  0.4460869565217391 0.05 0  0.4626086956521739 0.05 0  0.148695652173913 0.06666666666666667 0  0.1652173913043478 0.06666666666666667 0  0.1817391304347826 0.06666666666666667 0  0.1982608695652174 0.06666666666666667 0  0.2147826086956522 0.06666666666666667 0  0.2313043478260869 0.06666666666666667 0  0.2478260869565218 0.06666666666666667 0  0.2643478260869565 0.06666666666666667 0  0.2808695652173913 0.06666666666666667 0  0.2973913043478261 0.06666666666666667 0  0.3139130434782609 0.06666666666666667 0  0.3304347826086956 0.06666666666666667 0  0.3469565217391304 0.06666666666666667 0  0.3634782608695652 0.06666666666666667 0  0.3799999999999999 0.06666666666666667 0  0.3965217391304348 0.06666666666666667 0  0.4130434782608696 0.06666666666666667 0  0.4295652173913043 0.06666666666666667 0  0.4460869565217391 0.06666666666666667 0  0.4626086956521739 0.06666666666666667 0  0.4791304347826086 0.06666666666666667 0  0.1652173913043478 0.08333333333333333 0  0.1817391304347826 0.08333333333333333 0  0.1982608695652174 0.08333333333333333 0  0.2147826086956522 0.08333333333333333 0  0.2313043478260869 0.08333333333333333 0  0.2478260869565218 0.08333333333333333 0  0.2643478260869565 0.08333333333333333 0  0.2808695652173913 0.08333333333333333 0  0.2973913043478261 0.08333333333333333 0  0.3139130434782609 0.08333333333333333 0  0.3304347826086956 0.08333333333333333 0  0.3469565217391304 0.08333333333333333 0  0.3634782608695652 0.08333333333333333 0  0.3799999999999999 0.08333333333333333 0  0.3965217391304348 0.08333333333333333 0  0.4130434782608696 0.08333333333333333 0  0.4295652173913043 0.08333333333333333 0  0.4460869565217391 0.08333333333333333 0  0.4626086956521739 0.08333333333333333 0  0.4791304347826086 0.08333333333333333 0  0.4956521739130435 0.08333333333333333 0  0.1817391304347826 0.1 0  0.1982608695652174 0.1 0  0.2147826086956522 0.1 0  0.2313043478260869 0.1 0  0.2478260869565218 0.1 0  0.2643478260869565 0.1 0  0.2808695652173913 0.1 0  0.2973913043478261 0.1 0  0.3139130434782609 0.1 0  0.3304347826086956 0.1 0  0.3469565217391304 0.1 0  0.3634782608695652 0.1 0  0.3799999999999999 0.1 0  0.3965217391304348 0.1 0  0.4130434782608696 0.1 0  0.4295652173913043 0.1 0  0.4460869565217391 0.1 0  0.4626086956521739 0.1 0  0.4791304347826086 0.1 0  0.4956521739130435 0.1 0  0.5121739130434783 0.1 0  0.1982608695652174 0.1166666666666667 0  0.2147826086956522 0.1166666666666667 0  0.2313043478260869 0.1166666666666667 0  0.2478260869565218 0.1166666666666667 0  0.2643478260869565 0.1166666666666667 0  0.2808695652173913 0.1166666666666667 0  0.2973913043478261 0.1166666666666667 0  0.3139130434782609 0.1166666666666667 0  0.3304347826086956 0.1166666666666667 0  0.3469565217391304 0.1166666666666667 0  0.3634782608695652 0.1166666666666667 0  0.3799999999999999 0.1166666666666667 0  0.3965217391304348 0.1166666666666667 0  0.4130434782608696 0.1166666666666667 0  0.4295652173913043 0.1166666666666667 0  0.4460869565217391 0.1166666666666667 0  0.4626086956521739 0.1166666666666667 0  0.4791304347826086 0.1166666666666667 0  0.4956521739130435 0.1166666666666667 0  0.5121739130434783 0.1166666666666667 0  0.528695652173913 0.1166666666666667 0  0.2147826086956522 0.1333333333333333 0  0.2313043478260869 0.1333333333333333 0  0.2478260869565218 0.1333333333333333 0  0.2643478260869565 0.1333333333333333 0  0.2808695652173913 0.1333333333333333 0  0.2973913043478261 0.1333333333333333 0  0.3139130434782609 0.1333333333333333 0  0.3304347826086956 0.1333333333333333 0  0.3469565217391304 0.1333333333333333 0  0.3634782608695652 0.1333333333333333 0  0.3799999999999999 0.1333333333333333 0  0.3965217391304348 0.1333333333333333 0  0.4130434782608696 0.1333333333333333 0  0.4295652173913043 0.1333333333333333 0  0.4460869565217391 0.1333333333333333 0  0.4626086956521739 0.1333333333333333 0  0.4791304347826086 0.1333333333333333 0  0.4956521739130435 0.1333333333333333 0  0.5121739130434783 0.1333333333333333 0  0.528695652173913 0.1333333333333333 0  0.5452173913043478 0.1333333333333333 0  0.2313043478260869 0.15 0  0.2478260869565218 0.15 0  0.2643478260869565 0.15 0  0.2808695652173913 0.15 0  0.2973913043478261 0.15 0  0.3139130434782609 0.15 0  0.3304347826086956 0.15 0  0.3469565217391304 0.15 0  0.3634782608695652 0.15 0  0.3799999999999999 0.15 0  0.3965217391304348 0.15 0  0.4130434782608696 0.15 0  0.4295652173913043 0.15 0  0.4460869565217391 0.15 0  0.4626086956521739 0.15 0  0.4791304347826086 0.15 0  0.4956521739130435 0.15 0  0.5121739130434783 0.15 0  0.528695652173913 0.15 0  0.5452173913043478 0.15 0  0.5617391304347825 0.15 0  0.2478260869565218 0.1666666666666667 0  0.2643478260869565 0.1666666666666667 0  0.2808695652173913 0.1666666666666667 0  0.2973913043478261 0.1666666666666667 0  0.3139130434782609 0.1666666666666667 0  0.3304347826086956 0.1666666666666667 0  0.3469565217391304 0.1666666666666667 0  0.3634782608695652 0.1666666666666667 0  0.3799999999999999 0.1666666666666667 0  0.3965217391304348 0.1666666666666667 0  0.4130434782608696 0.1666666666666667 0  0.4295652173913043 0.1666666666666667 0  0.4460869565217391 0.1666666666666667 0  0.4626086956521739 0.1666666666666667 0  0.4791304347826086 0.1666666666666667 0  0.4956521739130435 0.1666666666666667 0  0.5121739130434783 0.1666666666666667 0  0.528695652173913 0.1666666666666667 0  0.5452173913043478 0.1666666666666667 0  0.5617391304347825 0.1666666666666667 0  0.5782608695652174 0.1666666666666667 0  0.2643478260869565 0.1833333333333333 0  0.2808695652173913 0.1833333333333333 0  0.2973913043478261 0.1833333333333333 0  0.3139130434782609 0.1833333333333333 0  0.3304347826086956 0.1833333333333333 0  0.3469565217391304 0.1833333333333333 0  0.3634782608695652 0.1833333333333333 0  0.3799999999999999 0.1833333333333333 0  0.3965217391304348 0.1833333333333333 0  0.4130434782608696 0.1833333333333333 0  0.4295652173913043 0.1833333333333333 0  0.4460869565217391 0.1833333333333333 0  0.4626086956521739 0.1833333333333333 0  0.4791304347826086 0.1833333333333333 0  0.4956521739130435 0.1833333333333333 0  0.5121739130434783 0.1833333333333333 0  0.528695652173913 0.1833333333333333 0  0.5452173913043478 0.1833333333333333 0  0.5617391304347825 0.1833333333333333 0  0.5782608695652174 0.1833333333333333 0  0.2808695652173913 0.2 0  0.2973913043478261 0.2 0  0.3139130434782609 0.2 0  0.3304347826086956 0.2 0  0.3469565217391304 0.2 0  0.3634782608695652 0.2 0  0.3799999999999999 0.2 0  0.3965217391304348 0.2 0  0.4130434782608696 0.2 0  0.4295652173913043 0.2 0  0.4460869565217391 0.2 0  0.4626086956521739 0.2 0  0.4791304347826086 0.2 0  0.4956521739130435 0.2 0  0.5121739130434783 0.2 0  0.528695652173913 0.2 0  0.5452173913043478 0.2 0  0.5617391304347825 0.2 0  0.5782608695652174 0.2 0  0.2973913043478261 0.2166666666666667 0  0.3139130434782609 0.2166666666666667 0  0.3304347826086956 0.2166666666666667 0  0.3469565217391304 0.2166666666666667 0  0.36347826086956
[...]
<CellData  Scalars="sigma_m"> 
<DataArray  type="Float64"  Name="sigma_m"  format="ascii">2.8489611567125585e+07   2.8240545322914485e+07   1.6926675799487982e+07   2.7299940537965566e+07   1.6512210747053154e+07   2.5962673503288914e+07   1.5862881438087400e+07   2.4489753439996019e+07   1.5139990519303622e+07   2.2891136860339321e+07   1.4409393552937260e+07   2.1232607496700883e+07   1.3629172668932084e+07   1.9580470985771861e+07   1.2902840726598380e+07   1.7800663647605311e+07   1.2314181263970915e+07   1.5697206041793140e+07   1.1763948041060751e+07   1.3270708227864224e+07   1.1119778484331451e+07   1.0702384328893265e+07   1.0353115392578641e+07   8.2118409668115880e+06   9.4634244926789664e+06   6.0293513881756617e+06   8.4706696308813728e+06   4.3518877906520488e+06   7.5720222951018428e+06   3.2994069188438039e+06   6.8114232890419560e+06   2.8802047529647541e+06   6.0791469527153447e+06   3.0954737576875947e+06   5.2593640547118876e+06   3.7056473288430418e+06   4.4381041416794555e+06   4.3689406767778369e+06   3.6440921707492275e+06   3.0758283602058929e+06   1.5747025148644740e+07   1.4922431715674030e+07   7.7208934086832954e+06   1.4153715823790155e+07   7.5579565107859625e+06   1.3476094695095992e+07   7.2476214317512615e+06   1.2772310902493358e+07   7.2195455990756005e+06   1.2090242942563491e+07   7.0359526329460908e+06   1.1527284847027279e+07   6.7835038309106817e+06   1.1077850324940246e+07   6.9744092454946833e+06   1.0696383382469902e+07   7.6259395675352905e+06   1.0419753878701316e+07   8.4577489660212733e+06   1.0251295448870137e+07   9.6362626498127542e+06   1.0040023567808205e+07   1.1083260790962817e+07   9.6104377403377816e+06   1.2157182502895014e+07   8.9959009077045266e+06   1.2723679879901955e+07   8.2916660065101841e+06   1.2594387175641222e+07   7.6130825796555765e+06   1.1753154506456871e+07   7.0299440371034117e+06   1.1028358282754229e+07   6.4584732527125338e+06   1.0578604679832213e+07   5.7225612708690623e+06   1.0184076348090369e+07   4.5587950625947705e+06   8.9740987832305580e+06   7.9070764372744635e+06   3.2195146417343505e+06   3.0425613814725359e+06   1.1622906505203042e+07   2.9739913018823182e+06   9.9489909748466164e+06   2.9739678489750326e+06   9.3843531476778761e+06   3.1148612197653288e+06   7.8216629504114408e+06   3.5025069293457018e+06   5.8910564559773402e+06   4.3470647464064742e+06   5.4802236795022944e+06   5.3313829325676002e+06   5.2656795900539588e+06   6.6961397684247512e+06   3.6409199515068997e+06   8.5737924543788061e+06   4.8835321318395510e+06   1.0550987571278740e+07   8.2799214600422159e+06   1.2221689587092781e+07   1.2574566999246040e+07   1.3796085881642925e+07   1.7690218728517830e+07   1.4362664122931812e+07   1.8711902780415170e+07   1.3454563452700116e+07   1.6707636043962579e+07   1.2386607748137400e+07   1.4412088027756052e+07   1.2066542705320915e+07   1.7126184252890542e+07   1.1772830777481440e+07   1.6547145936203960e+07   1.1021077813603718e+07   1.8442444616009582e+07   9.0243541586724166e+06   1.3175761841083081e+07   1.1280712596700080e+07   8.9869301937334500e+06   7.8239167808369687e+06   1.2751747454058301e+07   6.2316714848428797e+06   2.2685164799891845e+06   3.3087848309719809e+06   8.4321722586290689e+03   8.0366277729016892e+05   1.0237547580211098e+02   1.0549125774907110e+04   6.9880189753350774e-01   3.5816404829061383e+02   2.0319316475768984e-02   3.3565884872214212e+01   1.7666488302473867e-03   6.8665616876846594e+00   3.2498677898184987e-04   3.5492948916796885e+00   1.2720355993464454e-04   5.6015988924762690e+00   1.2808225262331526e-04   2.5567909559247678e+01   3.5345940190914413e-04   2.9297825500317214e+02   2.4144715739245720e-03   9.7888342334934878e+03   4.0199908552360615e-02   1.1121906805013793e+06   2.3283055873969332e+00   1.1083867686530752e+07   6.2739873955713631e+02   1.5581731747976616e+07   3.4076678030306124e+05   1.7437926683139909e+07   1.5473711880659793e+07   1.6013202589353241e+07   2.3181568537785199e+07   1.3376661242028283e+07   1.4105570953992216e+07   1.3206891475206828e+07   1.2872321570795177e-07   0.0000000000000000e+00   0.0000000000000000e+00   0.0000000000000000e+00   0.0000000000000000e+00   0.0000000000000000e+00   0.0000000000000000e+00   0.0000000000000000e+00   0.0000000000000000e+00   0.0000000000000000e+00   0.0000000000000000e+00   0.0000000000000000e+00   0.0000000000000000e+00   0.0000000000000000e+00   0.0000000000000000e+00   0.0000000000000000e+00   0.0000000000000000e+00   0.0000000000000000e+00   0.0000000000000000e+00   0.0000000000000000e+00   0.0000000000000000e+00   0.0000000000000000e+00   0.0000000000000000e+00   0.0000000000000000e+00   0.0000000000000000e+00   0.0000000000000000e+00   0.0000000000000000e+00   0.0000000000000000e+00   0.0000000000000000e+00   1.9664340483775505e-08   0.0000000000000000e+00   8.8147296831030833e-05   0.0000000000000000e+00   2.7388975172793142e+00   9.5703865674129904e-07   1.3418883388370746e+06   6.2487096716670965e-02   1.4410141342388915e+07   1.5972986197132728e+05   1.3797565085489590e+07   0.0000000000000000e+00   0.0000000000000000e+00   0.0000000000000000e+00   0.0000000000000000e+00   0.0000000000000000e+00   0.0000000000000000e+00   0.0000000000000000e+00   0.0000000000000000e+00   0.0000000000000000e+00   0.0000000000000000e+00   0.0000000000000000e+00   0.0000000000000000e+00   0.0000000000000000e+00   0.0000000000000000e+00   0.0000000000000000e+00   0.0000000000000000e+00   0.0000000000000000e+00   0.0000000000000000e+00   0.0000000000000000e+00   0.0000000000000000e+00   0.0000000000000000e+00   0.0000000000000000e+00   0.0000000000000000e+00   0.0000000000000000e+00   0.0000000000000000e+00   0.0000000000000000e+00   0.0000000000000000e+00   0.0000000000000000e+00   0.0000000000000000e+00   0.0000000000000000e+00   0.0000000000000000e+00   0.0000000000000000e+00   0.0000000000000000e+00   0.0000000000000000e+00   0.0000000000000000e+00   3.8184059936448815e-05   0.0000000000000000e+00   4.9488952375866247e+04   2.0845716839029246e-04   2.5100022906685248e+06   0.0000000000000000e+00   0.0000000000000000e+00   0.0000000000000000e+00   0.0000000000000000e+00   0.0000000000000000e+00   0.0000000000000000e+00   0.0000000000000000e+00   0.0000000000000000e+00   0.0000000000000000e+00   0.0000000000000000e+00   0.0000000000000000e+00   0.0000000000000000e+00   0.0000000000000000e+00   0.0000000000000000e+00   0.0000000000000000e+00   0.0000000000000000e+00   0.0000000000000000e+00   0.0000000000000000e+00   0.0000000000000000e+00   0.0000000000000000e+00   0.0000000000000000e+00   0.0000000000000000e+00   0.0000000000000000e+00   0.0000000000000000e+00   0.0000000000000000e+00   0.0000000000000000e+00   0.0000000000000000e+00   0.0000000000000000e+00   0.0000000000000000e+00   0.0000000000000000e+00   0.0000000000000000e+00   0.0000000000000000e+00   0.0000000000000000e+00   0.0000000000000000e+00   0.0000000000000000e+00   6.2598490899823400e-09   0.0000000000000000e+00   3.9590667337154541e+03   3.3080063252631318e-05   1.4192569895874877e+07   0.0000000000000000e+00   0.0000000000000000e+00   0.0000000000000000e+00   0.0000000000000000e+00   0.0000000000000000e+00   0.0000000000000000e+00   0.0000000000000000e+00   0.0000000000000000e+00   0.0000000000000000e+00   0.0000000000000000e+00   0.0000000000000000e+00   0.0000000000000000e+00   0.0000000000000000e+00   0.0000000000000000e+00   0.0000000000000000e+00   0.0000000000000000e+00   0.0000000000000000e+00   0.0000000000000000e+00   0.0000000000000000e+00   0.0000000000000000e+00   0.0000000000000000e+00   0.0000000000000000e+00   0.0000000000000000e+00   0.0000000000000000e+00   0.0000000000000000e+00   0.0000000000000000e+00   0.0000000000000000e+00   0.0000000000000000e+00   0.0000000000000000e+00   0.0000000000000000e+00   0.0000000000000000e+00   0.0000000000000000e+00   0.0000000000000000e+00   0.0000000000000000e+00   0.0000000000000000e+00   3.3347661568497751e-06   0.0000000000000000e+00   1.7018139430563346e+07   3.8148336549546889e+02   1.4401824598130366e+07   0.0000000000000000e+00   0.0000000000000000e+00   0.0000000000000000e+00   0.0000000000000000e+00   0.0000000000000000e+00   0.0000000000000000e+00   0.0000000000000000e+00   0.0000000000000000e+00   0.0000000000000000e+00   0.0000000000000000e+00   0.0000000000000000e+00   0.0000000000000000e+00   0.0000000000000000e+00   0.0000000000000000e+00   0.0000000000000000e+00   0.0000000000000000e+00   0.0000000000000000e+00   0.0000000000000000e+00   0.0000000000000000e+00   0.0000000000000000e+00   0.0000000000000000e+00   0.0000000000000000e+00   0.0000000000000000e+00   0.0000000000000000e+00   0.0000000000000000e+00   0.0000000000000000e+00   0.0000000000000000e+00   0.0000000000000000e+00   0.0000000000000000e+00   0.0000000000000000e+00   0.0000000000000000e+00   0.0000000000000000e+00   0.0000000000000000e+00   0.0000000000000000e+00   0.0000000000000000e+00   7.5559289522201482e+02   3.0128954183127995e-05   1.5462264120240962e+07   1.3835055042409018e+07   9.4525707302197479e+06   0.0000000000000000e+00   0.0000000000000000e+00   0.0000000000000000e+00   0.0000000000000000e+00   0.0000000000000000e+00   0.0000000000000000e+00   0.0000000000000000e+00   0.0000000000000000e+00   0.0000000000000000e+00   0.0000000000000000e+00   0.0000000000000000e+00   0.0000000000000000e+00   0.0000000000000000e+00   0.0000000000000000e+00   0.0000000000000000e+00   0.0000000000000000e+00   0.0000000000000000e+00   0.0000000000000000e+00   0.0000000000000000e+00   0.0000000000000000e+00   0.0000000000000000e+00   0.0000000000000000e+00   0.0000000000000000e+00   0.0000000000000000e+00   0.0000000000000000e+00   0.0000000000000000e+00   0.0000000000000000e+00   0.0000000000000000e+00   0.0000000000000000e+00   0.0000000000000000e+00   0.0000000000000000e+00   0.0000000000000000e+00   0.0000000000000000e+00   7.1111519075247971e-05   0.0000000000000000e+00   1.2913880948695431e+07   7.4092915597184192e+03   1.1026388627912769e+07   1.1176076787280442e+07   5.6945478063805802e+06   0.0000000000000000e+00   0.0000000000000000e+00   0.0000000000000000e+00   0.0000000000000000e+00   0.0000000000000000e+00   0.0000000000000000e+00   0.0000000000000000e+00   0.0000000000000000e+00   0.0000000000000000e+00   0.0000000000000000e+00   0.0000000000000000e+00   0.0000000000000000e+00   0.0000000000000000e+00   0.0000000000000000e+00   0.0000000000000000e+00   0.0000000000000000e+00   0.0000000000000000e+00   0.0000000000000000e+00   0.0000000000000000e+00   0.0000000000000000e+00   0.0000000000000000e+00   0.0000000000000000e+00   0.0000000000000000e+00   0.0000000000000000e+00   0.0000000000000000e+00   0.0000000000000000e+00   0.0000000000000000e+00   0.0000000000000000e+00   0.0000000000000000e+00   0.0000000000000000e+00   0.0000000000000000e+00   0.0000000000000000e+00   0.0000000000000000e+00   2.0243666986152423e+03   2.9663148762612292e-06   1.1167948132867379e+07   6.0514171105446527e+06   8.7301577184135057e+06   7.7107465835676631e+06   0.0000000000000000e+00   0.0000000000000000e+00   0.0000000000000000e+00   0.0000000000000000e+00   0.0000000000000000e+00   0.0000000000000000e+00   0.0000000000000000e+00   0.0000000000000000e+00   0.0000000000000000e+00   0.0000000000000000e+00   0.0000000000000000e+00   0.0000000000000000e+00   0.0000000000000000e+00   0.0000000000000000e+00   0.0000000000000000e+00   0.0000000000000000e+00   0.0000000000000000e+00   0.0000000000000000e+00   0.0000000000000000e+00   0.0000000000000000e+00   0.0000000000000000e+00   0.0000000000000000e+00   0.0000000000000000e+00   0.0000000000000000e+00   0.0000000000000000e+00   0.0000000000000000e+00   0.0000000000000000e+00   0.0000000000000000e+00   0.0000000000000000e+00   0.0000000000000000e+00   0.0000000000000000e+00   2.5774668937885041e-07   0.0000000000000000e+00   2.1264411801767643e+06   1.1397026478789957e-02   1.0949204292114863e+07   9.2092676730257068e+06   0.0000000000000000e+00   0.0000000000000000e+00   0.0000000000000000e+00   0.0000000000000000e+00   0.0000000000000000e+00   0.0000000000000000e+00   0.0000000000000000e+00   0.0000000000000000e+00   0.0000000000000000e+00   0.0000000000000000e+00   0.0000000000000000e+00   0.0000000000000000e+00   0.0000000000000000e+00   0.0000000000000000e+00   0.0000000000000000e+00   0.0000000000000000e+00   0.0000000000000000e+00   0.0000000000000000e+00   0.0000000000000000e+00   0.0000000000000000e+00   0.0000000000000000e+00   0.0000000000000000e+00   0.0000000000000000e+00   0.0000000000000000e+00   0.0000000000000000e+00   0.0000000000000000e+00   0.0000000000000000e+00   0.0000000000000000e+00   0.0000000000000000e+00   0.0000000000000000e+00   0.0000000000000000e+00   4.4900958062354569e-05   0.0000000000000000e+00   4.3747638018819075e+06   3.2576104770501595e-02   0.0000000000000000e+00   0.0000000000000000e+00   0.0000000000000000e+00   0.0000000000000000e+00   0.0000000000000000e+00   0.0000000000000000e+00   0.0000000000000000e+00   0.0000000000000000e+00   0.0000000000000000e+00   0.0000000000000000e+00   0.0000000000000000e+00   0.0000000000000000e+00   0.0000000000000000e+00   0.0000000000000000e+00   0.0000000000000000e+00   0.0000000000000000e+00   0.0000000000000000e+00   0.0000000000000000e+00   0.0000000000000000e+00   0.0000000000000000e+00   0.0000000000000000e+00   0.0000000000000000e+00   0.0000000000000000e+00   0.0000000000000000e+00   0.0000000000000000e+00   0.0000000000000000e+00   0.0000000000000000e+00   0.0000000000000000e+00   0.0000000000000000e+00   0.0000000000000000e+00   0.0000000000000000e+00   0.0000000000000000e+00   5.2887321555933023e-06   0.0000000000000000e+00   0.0000000000000000e+00   0.0000000000000000e+00   0.0000000000000000e+00   0.0000000000000000e+00   0.0000000000000000e+00   0.0000000000000000e+00   0.0000000000000000e+00   0.0000000000000000e+00   0.0000000000000000e+00   0.0000000000000000e+00   0.0000000000000000e+00   0.0000000000000000e+00   0.0000000000000000e+00   0.0000000000000000e+00   0.0000000000000000e+00   0.0000000000000000e+00   0.0000000000000000e+00   0.0000000000000000e+00   0.0000000000000000e+00   0.0000000000000000e+00   0.0000000000000000e+00   0.0000000000000000e+00   0.0000000000000000e+00   0.0000000000000000e+00   0.0000000000000000e+00   0.0000000000000000e+00   0.0000000000000000e+00   0.0000000000000000e+00   0.0000000000000000e+00   0.0000000000000000e+00   0.0000000000000000e+00   0.0000000000000000e+00   0.0000000000000000e+00   0.0000000000000000e+00   0.0000000000000000e+00   0.0000000000000000e+00   0.0000000000000000e+00   0.0000000000000000e+00   0.0000000000000000e+00   0.0000000000000000e+00   0.0000000000000000e+00   0.0000000000000000e+00   0.0000000000000000e+00   0.0000000000000000e+00   0.0000000000000000e+00   0.0000000000000000e+00   0.0000000000000000e+00   0.0000000000000000e+00   0.0000000000000000e+00   0.0000000000000000e+00   0.0000000000000000e+00   0.0000000000000000e+00   0.0000000000000000e+00   0.0000000000000000e+00   0.0000000000000000e+00   0.0000000000000000e+00   0.0000000000000000e+00   0.0000000000000000e+00   0.0000000000000000e+00   0.0000000000000000e+00   0.0000000000000000e+00   0.0000000000000000e+00   0.0000000000000000e+00   0.0000000000000000e+00   0.0000000000000000e+00   0.0000000000000000e+00   0.0000000000000000e+00   0.0000000000000000e+00   0.0000000000000000e+00   0.0000000000000000e+00   0.0000000000000000e+00   0.0000000000000000e+00   0.0000000000000000e+00   0.0000000000000000e+00   0.0000000000000000e+00   0.0000000000000000e+00   0.0000000000000000e+00   0.0000000000000000e+00   0.0000000000000000e+00   0.0000000000000000e+00   0.0000000000000000e+00   0.0000000000000000e+00   0.0000000000000000e+00   0.0000000000000000e+00   0.0000000000000000e+00   0.0000000000000000e+00   0.0000000000000000e+00   0.0000000000000000e+00   0.0000000000000000e+00   0.0000000000000000e+00   0.0000000000000000e+00   0.0000000000000000e+00   0.0000000000000000e+00   0.0000000000000000e+00   0.0000000000000000e+00   0.0000000000000000e+00   0.0000000000000000e+00   0.0000000000000000e+00   0.0000000000000000e+00   0.0000000000000000e+00   0.0000000000000000e+00   0.0000000000000000e+00   0.0000000000000000e+00   0.0000000000000000e+00   0.0000000000000000e+00   0.0000000000000000e+00   0.0000000000000000e+00   0.0000000000000000e+00   0.0000000000000000e+00   0.0000000000000000e+00   0.0000000000000000e+00   0.0000000000000000e+00   0.0000000000000000e+00   0.0000000000000000e+00   0.0000000000000000e+00   0.0000000000000000e+00   0.0000000000000000e+00   0.0000000000000000e+00   0.0000000000000000e+00   0.0000000000000000e+00   0.0000000000000000e+00   0.0000000000000000e+00   0.0000000000000000e+00   0.0000000000000000e+00   0.0000000000000000e+00   0.0000000000000000e+00   0.0000000000000000e+00   0.0000000000000000e+00   0.0000000000000000e+00   0.0000000000000000e+00   0.0000000000000000e+00   0.0000000000000000e+00   0.0000000000000000e+00   0.0000000000000000e+00   0.0000000000000000e+00   0.0000000000000000e+00   0.0000000000000000e+00   0.0000000000000000e+00   0.0000000000000000e+00   0.0000000000000000e+00   0.0000000000000000e+00   0.0000000000000000e+00   0.0000000000000000e+00   0.0000000000000000e+00   0.0000000000000000e+00   0.0000000000000000e+00   0.0000000000000000e+00   0.0000000000000000e+00   0.0000000000000000e+00   0.0000000000000000e+00   0.0000000000000000e+00   0.0000000000000000e+00   0.0000000000000000e+00   0.0000000000000000e+00   0.0000000000000000e+00   0.0000000000000000e+00   0.0000000000000000e+00   0.0000000000000000e+00   0.0000000000000000e+00   0.0000000000000000e+00   0.0000000000000000e+00   0.0000000000000000e+00   0.0000000000000000e+00   0.0000000000000000e+00   0.0000000000000000e+00   0.0000000000000000e+00   0.0000000000000000e+00   0.0000000000000000e+00   0.0000000000000000e+00   0.0000000000000000e+00   0.0000000000000000e+00   0.0000000000000000e+00   0.0000000000000000e+00   0.0000000000000000e+00   0.0000000000000000e+00   0.0000000000000000e+00   0.0000000000000000e+00   0.0000000000000000e+00   0.0000000000000000e+00   0.0000000000000000e+00   0.0000000000000000e+00   0.0000000000000000e+00   0.0000000000000000e+00   0.0000000000000000e+00   0.0000000000000000e+00   0.0000000000000000e+00   0.0000000000000000e+00   0.0000000000000000e+00   0.0000000000000000e+00   0.0000000000000000e+00   0.0000000000000000e+00   0.0000000000000000e+00   0.0000000000000000e+00   0.0000000000000000e+00   0.0000000000000000e+00   0.0000000000000000e+00   0.0000000000000000e+00   0.0000000000000000e+00   0.0000000000000000e+00   0.0000000000000000e+00   0.0000000000000000e+00   0.0000000000000000e+00   0.0000000000000000e+00   0.0000000000000000e+00   0.0000000000000000e+00   0.0000000000000000e+00   0.0000000000000000e+00   0.0000000000000000e+00   0.0000000000000000e+00   0.0000000000000000e+00   0.0000000000000000e+00   0.0000000000000000e+00   0.0000000000000000e+00   0.0000000000000000e+00   0.0000000000000000e+00   0.0000000000000000e+00   0.0000000000000000e+00   0.0000000000000000e+00   0.0000000000000000e+00   0.0000000000000000e+00   0.0000000000000000e+00   0.0000000000000000e+00   0.0000000000000000e+00   0.0000000000000000e+00   0.0000000000000000e+00   0.0000000000000000e+00   0.0000000000000000e+00   0.0000000000000000e+00   0.0000000000000000e+00   0.0000000000000000e+00   0.0000000000000000e+00   0.0000000000000000e+00   0.0000000000000000e+00   0.0000000000000000e+00   0.0000000000000000e+00   0.0000000000000000e+00   0.0000000000000000e+00   0.0000000000000000e+00   0.0000000000000000e+00   0.0000000000000000e+00   0.0000000000000000e+00   0.0000000000000000e+00   0.0000000000000000e+00   0.0000000000000000e+00   0.0000000000000000e+00   0.0000000000000000e+00   0.0000000000000000e+00   0.0000000000000000e+00   0.0000000000000000e+00   0.0000000000000000e+00   0.0000000000000000e+00   0.00000000