<?xml version="1.0"?>
<VTKFile type="UnstructuredGrid"  version="0.1"  >
<UnstructuredGrid>
<Piece  NumberOfPoints="639" NumberOfCells="1174">
<Points>
<DataArray  type="Float64"  NumberOfComponents="3"  format="ascii">1.024347826086957 0 0  1.040869565217391 0 0  1.040869565217391 0.01666666666666667 0  1.024347826086957 0.01666666666666667 0  1.057391304347826 0 0  1.057391304347826 0.01666666666666667 0  1.073913043478261 0 0  1.073913043478261 0.01666666666666667 0  1.090434782608696 0 0  1.090434782608696 0.01666666666666667 0  1.10695652173913 0 0  1.10695652173913 0.01666666666666667 0  1.123478260869565 0 0  1.123478260869565 0.01666666666666667 0  1.14 0 0  1.14 0.01666666666666667 0  1.156521739130435 0 0  1.156521739130435 0.01666666666666667 0  1.17304347826087 0 0  1.17304347826087 0.01666666666666667 0  1.189565217391304 0 0  1.189565217391304 0.01666666666666667 0  1.206086956521739 0 0  1.206086956521739 0.01666666666666667 0  1.222608695652174 0 0  1.222608695652174 0.01666666666666667 0  1.239130434782609 0 0  1.239130434782609 0.01666666666666667 0  1.255652173913044 0 0  1.255652173913044 0.01666666666666667 0  1.272173913043478 0 0  1.272173913043478 0.01666666666666667 0  1.288695652173913 0 0  1.288695652173913 0.01666666666666667 0  1.305217391304348 0 0  1.305217391304348 0.01666666666666667 0  1.321739130434783 0 0  1.321739130434783 0.01666666666666667 0  1.338260869565217 0.01666666666666667 0  1.040869565217391 0.03333333333333333 0  1.057391304347826 0.03333333333333333 0  1.073913043478261 0.03333333333333333 0  1.090434782608696 0.03333333333333333 0  1.10695652173913 0.03333333333333333 0  1.123478260869565 0.03333333333333333 0  1.14 0.03333333333333333 0  1.156521739130435 0.03333333333333333 0  1.17304347826087 0.03333333333333333 0  1.189565217391304 0.03333333333333333 0  1.206086956521739 0.03333333333333333 0  1.222608695652174 0.03333333333333333 0  1.239130434782609 0.03333333333333333 0  1.255652173913044 0.03333333333333333 0  1.272173913043478 0.03333333333333333 0  1.288695652173913 0.03333333333333333 0  1.305217391304348 0.03333333333333333 0  1.321739130434783 0.03333333333333333 0  1.338260869565217 0.03333333333333333 0  1.354782608695652 0.03333333333333333 0  1.057391304347826 0.05 0  1.073913043478261 0.05 0  1.090434782608696 0.05 0  1.10695652173913 0.05 0  1.123478260869565 0.05 0  1.14 0.05 0  1.156521739130435 0.05 0  1.17304347826087 0.05 0  1.189565217391304 0.05 0  1.206086956521739 0.05 0  1.222608695652174 0.05 0  1.239130434782609 0.05 0  1.255652173913044 0.05 0  1.272173913043478 0.05 0  1.288695652173913 0.05 0  1.305217391304348 0.05 0  1.321739130434783 0.05 0  1.338260869565217 0.05 0  1.354782608695652 0.05 0  1.371304347826087 0.05 0  1.073913043478261 0.06666666666666667 0  1.090434782608696 0.06666666666666667 0  1.10695652173913 0.06666666666666667 0  1.123478260869565 0.06666666666666667 0  1.14 0.06666666666666667 0  1.156521739130435 0.06666666666666667 0  1.17304347826087 0.06666666666666667 0  1.189565217391304 0.06666666666666667 0  1.206086956521739 0.06666666666666667 0  1.222608695652174 0.06666666666666667 0  1.239130434782609 0.06666666666666667 0  1.255652173913044 0.06666666666666667 0  1.272173913043478 0.06666666666666667 0  1.288695652173913 0.06666666666666667 0  1.305217391304348 0.06666666666666667 0  1.321739130434783 0.06666666666666667 0  1.338260869565217 0.06666666666666667 0  1.354782608695652 0.06666666666666667 0  1.371304347826087 0.06666666666666667 0  1.387826086956522 0.06666666666666667 0  1.090434782608696 0.08333333333333333 0  1.10695652173913 0.08333333333333333 0  1.123478260869565 0.08333333333333333 0  1.14 0.08333333333333333 0  1.156521739130435 0.08333333333333333 0  1.17304347826087 0.08333333333333333 0  1.189565217391304 0.08333333333333333 0  1.206086956521739 0.08333333333333333 0  1.222608695652174 0.08333333333333333 0  1.239130434782609 0.08333333333333333 0  1.255652173913044 0.08333333333333333 0  1.272173913043478 0.08333333333333333 0  1.288695652173913 0.08333333333333333 0  1.305217391304348 0.08333333333333333 0  1.321739130434783 0.08333333333333333 0  1.338260869565217 0.08333333333333333 0  1.354782608695652 0.08333333333333333 0  1.371304347826087 0.08333333333333333 0  1.387826086956522 0.08333333333333333 0  1.404347826086957 0.08333333333333333 0  1.10695652173913 0.1 0  1.123478260869565 0.1 0  1.14 0.1 0  1.156521739130435 0.1 0  1.17304347826087 0.1 0  1.189565217391304 0.1 0  1.206086956521739 0.1 0  1.222608695652174 0.1 0  1.239130434782609 0.1 0  1.255652173913044 0.1 0  1.272173913043478 0.1 0  1.288695652173913 0.1 0  1.305217391304348 0.1 0  1.321739130434783 0.1 0  1.338260869565217 0.1 0  1.354782608695652 0.1 0  1.371304347826087 0.1 0  1.387826086956522 0.1 0  1.404347826086957 0.1 0  1.420869565217391 0.1 0  1.123478260869565 0.1166666666666667 0  1.14 0.1166666666666667 0  1.156521739130435 0.1166666666666667 0  1.17304347826087 0.1166666666666667 0  1.189565217391304 0.1166666666666667 0  1.206086956521739 0.1166666666666667 0  1.222608695652174 0.1166666666666667 0  1.239130434782609 0.1166666666666667 0  1.255652173913044 0.1166666666666667 0  1.272173913043478 0.1166666666666667 0  1.288695652173913 0.1166666666666667 0  1.305217391304348 0.1166666666666667 0  1.321739130434783 0.1166666666666667 0  1.338260869565217 0.1166666666666667 0  1.354782608695652 0.1166666666666667 0  1.371304347826087 0.1166666666666667 0  1.387826086956522 0.1166666666666667 0  1.404347826086957 0.1166666666666667 0  1.420869565217391 0.1166666666666667 0  1.437391304347826 0.1166666666666667 0  1.14 0.1333333333333333 0  1.156521739130435 0.1333333333333333 0  1.17304347826087 0.1333333333333333 0  1.189565217391304 0.1333333333333333 0  1.206086956521739 0.1333333333333333 0  1.222608695652174 0.1333333333333333 0  1.239130434782609 0.1333333333333333 0  1.255652173913044 0.1333333333333333 0  1.272173913043478 0.1333333333333333 0  1.288695652173913 0.1333333333333333 0  1.305217391304348 0.1333333333333333 0  1.321739130434783 0.1333333333333333 0  1.338260869565217 0.1333333333333333 0  1.354782608695652 0.1333333333333333 0  1.371304347826087 0.1333333333333333 0  1.387826086956522 0.1333333333333333 0  1.404347826086957 0.1333333333333333 0  1.420869565217391 0.1333333333333333 0  1.437391304347826 0.1333333333333333 0  1.453913043478261 0.1333333333333333 0  1.156521739130435 0.15 0  1.17304347826087 0.15 0  1.189565217391304 0.15 0  1.206086956521739 0.15 0  1.222608695652174 0.15 0  1.239130434782609 0.15 0  1.255652173913044 0.15 0  1.272173913043478 0.15 0  1.288695652173913 0.15 0  1.305217391304348 0.15 0  1.321739130434783 0.15 0  1.338260869565217 0.15 0  1.354782608695652 0.15 0  1.371304347826087 0.15 0  1.387826086956522 0.15 0  1.404347826086957 0.15 0  1.420869565217391 0.15 0  1.437391304347826 0.15 0  1.453913043478261 0.15 0  1.470434782608696 0.15 0  1.17304347826087 0.1666666666666667 0  1.189565217391304 0.1666666666666667 0  1.206086956521739 0.1666666666666667 0  1.222608695652174 0.1666666666666667 0  1.239130434782609 0.1666666666666667 0  1.255652173913044 0.1666666666666667 0  1.272173913043478 0.1666666666666667 0  1.288695652173913 0.1666666666666667 0  1.305217391304348 0.1666666666666667 0  1.321739130434783 0.1666666666666667 0  1.338260869565217 0.1666666666666667 0  1.354782608695652 0.1666666666666667 0  1.371304347826087 0.1666666666666667 0  1.387826086956522 0.1666666666666667 0  1.404347826086957 0.1666666666666667 0  1.420869565217391 0.1666666666666667 0  1.437391304347826 0.1666666666666667 0  1.453913043478261 0.1666666666666667 0  1.470434782608696 0.1666666666666667 0  1.486956521739131 0.1666666666666667 0  1.189565217391304 0.1833333333333333 0  1.206086956521739 0.1833333333333333 0  1.222608695652174 0.1833333333333333 0  1.239130434782609 0.1833333333333333 0  1.255652173913044 0.1833333333333333 0  1.272173913043478 0.1833333333333333 0  1.288695652173913 0.1833333333333333 0  1.305217391304348 0.1833333333333333 0  1.321739130434783 0.1833333333333333 0  1.338260869565217 0.1833333333333333 0  1.354782608695652 0.1833333333333333 0  1.371304347826087 0.1833333333333333 0  1.387826086956522 0.1833333333333333 0  1.404347826086957 0.1833333333333333 0  1.420869565217391 0.1833333333333333 0  1.437391304347826 0.1833333333333333 0  1.453913043478261 0.1833333333333333 0  1.470434782608696 0.1833333333333333 0  1.486956521739131 0.1833333333333333 0  1.503478260869565 0.1833333333333333 0  1.206086956521739 0.2 0  1.222608695652174 0.2 0  1.239130434782609 0.2 0  1.255652173913044 0.2 0  1.272173913043478 0.2 0  1.288695652173913 0.2 0  1.305217391304348 0.2 0  1.321739130434783 0.2 0  1.338260869565217 0.2 0  1.354782608695652 0.2 0  1.371304347826087 0.2 0  1.387826086956522 0.2 0  1.404347826086957 0.2 0  1.420869565217391 0.2 0  1.437391304347826 0.2 0  1.453913043478261 0.2 0  1.470434782608696 0.2 0  1.486956521739131 0.2 0  1.503478260869565 0.2 0  1.52 0.2 0  1.222608695652174 0.2166666666666667 0  1.239130434782609 0.2166666666666667 0  1.255652173913044 0.2166666666666667 0  1.272173913043478 0.2166666666666667 0  1.288695652173913 0.2166666666666667 0  1.305217391304348 0.2166666666666667 0  1.321739130434783 0.2166666666666667 0  1.338260869565217 0.2166666666666667 0  1.354782608695652 0.2166666666666667 0  1.371304347826087 0.2166666666666667 0  1.387826086956522 0.2166666666666667 0  1.404347826086957 0.2166666666666667 0  1.420869565217391 0.2166666666666667 0  1.437391304347826 0.2166666666666667 0  1.453913043478261 0.2166666666666667 0  1.470434782608696 0.2166666666666667 0  1.486956521739131 0.2166666666666667 0  1.503478260869565 0.2166666666666667 0  1.52 0.2166666666666667 0  1.536521739130435 0.2166666666666667 0  1.239130434782609 0.2333333333333333 0  1.255652173913044 0.2333333333333333 0  1.272173913043478 0.2333333333333333 0  1.288695652173913 0.2333333333333333 0  1.305217391304348 0.23333
[...]
<PointData  Vectors="Displacement"> 
<DataArray  type="Float64"  Name="Displacement"  NumberOfComponents="3" format="ascii">1.6568694002247846e-04 1.5143969117360407e-03 0.0000000000000000e+00  1.6818189192624401e-04 1.5402333682475121e-03 0.0000000000000000e+00  1.4195020500189633e-04 1.5394615808154780e-03 0.0000000000000000e+00  1.3987830637108003e-04 1.5136287868648031e-03 0.0000000000000000e+00  1.7065579475026218e-04 1.5664736938063016e-03 0.0000000000000000e+00  1.4405410402856258e-04 1.5656987693480054e-03 0.0000000000000000e+00  1.7310395578208135e-04 1.5930565292257431e-03 0.0000000000000000e+00  1.4619601482800885e-04 1.5922791351281849e-03 0.0000000000000000e+00  1.7552357563524405e-04 1.6199118378693461e-03 0.0000000000000000e+00  1.4837927586428131e-04 1.6191322869509779e-03 0.0000000000000000e+00  1.7791343615120820e-04 1.6469665317667605e-03 0.0000000000000000e+00  1.5060528064312687e-04 1.6461850339739279e-03 0.0000000000000000e+00  1.8027330021114159e-04 1.6741464641940387e-03 0.0000000000000000e+00  1.5287442632207812e-04 1.6733634991318354e-03 0.0000000000000000e+00  1.8260409716803274e-04 1.7013774690147110e-03 0.0000000000000000e+00  1.5518587872591727e-04 1.7005934143035624e-03 0.0000000000000000e+00  1.8490817377969556e-04 1.7285898219893633e-03 0.0000000000000000e+00  1.5753697577251921e-04 1.7278041060814753e-03 0.0000000000000000e+00  1.8718786079160139e-04 1.7557228670375020e-03 0.0000000000000000e+00  1.5992482279177488e-04 1.7549343404395304e-03 0.0000000000000000e+00  1.8944357451575343e-04 1.7827197999818452e-03 0.0000000000000000e+00  1.6234994250136165e-04 1.7819283253869829e-03 0.0000000000000000e+00  1.9167483206077474e-04 1.8095162980654932e-03 0.0000000000000000e+00  1.6481611519051341e-04 1.8087229511491252e-03 0.0000000000000000e+00  1.9388328347849055e-04 1.8360406354686019e-03 0.0000000000000000e+00  1.6732496681237603e-04 1.8352463643056764e-03 0.0000000000000000e+00  1.9607347408046323e-04 1.8622282009256507e-03 0.0000000000000000e+00  1.6987152626640406e-04 1.8614328390020706e-03 0.0000000000000000e+00  1.9825056885077112e-04 1.8880337301476070e-03 0.0000000000000000e+00  1.7244680461885766e-04 1.8872356226585217e-03 0.0000000000000000e+00  2.0041787127133374e-04 1.9134284338435015e-03 0.0000000000000000e+00  1.7504646429749562e-04 1.9126242921908526e-03 0.0000000000000000e+00  2.0257701870311155e-04 1.9383834409690450e-03 0.0000000000000000e+00  1.7767953687765819e-04 1.9375674196890639e-03 0.0000000000000000e+00  2.0473579923277067e-04 1.9628477863953761e-03 0.0000000000000000e+00  1.8037778836106584e-04 1.9620034116486574e-03 0.0000000000000000e+00  2.0692594970631671e-04 1.9867254538330132e-03 0.0000000000000000e+00  1.8322535029368040e-04 1.9858085015920868e-03 0.0000000000000000e+00  1.8641963287685569e-04 2.0087965969782578e-03 0.0000000000000000e+00  1.1570216332085979e-04 1.5388019388875962e-03 0.0000000000000000e+00  1.1740781485960339e-04 1.5650183580503102e-03 0.0000000000000000e+00  1.1921896484624195e-04 1.5915777997229884e-03 0.0000000000000000e+00  1.2114558255492141e-04 1.6184109205635987e-03 0.0000000000000000e+00  1.2318813653464916e-04 1.6454442991739231e-03 0.0000000000000000e+00  1.2534747032650313e-04 1.6726042862179090e-03 0.0000000000000000e+00  1.2762532193010670e-04 1.6998175327797029e-03 0.0000000000000000e+00  1.3001395272111766e-04 1.7270137917797742e-03 0.0000000000000000e+00  1.3249334283265134e-04 1.7541304634056429e-03 0.0000000000000000e+00  1.3505658060865836e-04 1.7811100331543051e-03 0.0000000000000000e+00  1.3772654348109573e-04 1.8078896539852466e-03 0.0000000000000000e+00  1.4052434216748673e-04 1.8343988724701312e-03 0.0000000000000000e+00  1.4343412447881285e-04 1.8605733371065067e-03 0.0000000000000000e+00  1.4641343764389277e-04 1.8863668249616075e-03 0.0000000000000000e+00  1.4943106477159206e-04 1.9117469404567780e-03 0.0000000000000000e+00  1.5249909396309393e-04 1.9366773832808896e-03 0.0000000000000000e+00  1.5570207607287187e-04 1.9610885191025922e-03 0.0000000000000000e+00  1.5922541115971094e-04 1.9848376554176790e-03 0.0000000000000000e+00  1.6332936964352047e-04 2.0076989605630267e-03 0.0000000000000000e+00  1.6807901175363115e-04 2.0294657437919567e-03 0.0000000000000000e+00  1.1777079627147473e-04 1.5597435620515977e-03 0.0000000000000000e+00  1.1992304711719362e-04 1.5866154723417297e-03 0.0000000000000000e+00  1.2213387264085353e-04 1.6137560924934411e-03 0.0000000000000000e+00  1.2440745828361095e-04 1.6410987120671233e-03 0.0000000000000000e+00  1.2674393381292742e-04 1.6685732660518277e-03 0.0000000000000000e+00  1.2914052591763466e-04 1.6961094045980379e-03 0.0000000000000000e+00  1.3159114273337920e-04 1.7236397776575689e-03 0.0000000000000000e+00  1.3408767926218311e-04 1.7511002017616061e-03 0.0000000000000000e+00  1.3662501888001753e-04 1.7784244430063703e-03 0.0000000000000000e+00  1.3920375729825534e-04 1.8055421007003949e-03 0.0000000000000000e+00  1.4182457448893622e-04 1.8323851438247195e-03 0.0000000000000000e+00  1.4448142268223626e-04 1.8588937047277344e-03 0.0000000000000000e+00  1.4716529376355967e-04 1.8850131360938474e-03 0.0000000000000000e+00  1.4987808887705336e-04 1.9106851701593374e-03 0.0000000000000000e+00  1.5264713647721313e-04 1.9358362209654441e-03 0.0000000000000000e+00  1.5553259009635421e-04 1.9603608936210868e-03 0.0000000000000000e+00  1.5861952341950845e-04 1.9841080340999104e-03 0.0000000000000000e+00  1.6198319007210073e-04 2.0068999971149621e-03 0.0000000000000000e+00  1.6563151876752036e-04 2.0286137426537097e-03 0.0000000000000000e+00  1.6948626339968685e-04 2.0491785875396016e-03 0.0000000000000000e+00  1.1976920201060426e-04 1.5813549214854473e-03 0.0000000000000000e+00  1.2225493477528617e-04 1.6088622255414479e-03 0.0000000000000000e+00  1.2475167156885368e-04 1.6365730886746608e-03 0.0000000000000000e+00  1.2725977713975886e-04 1.6644216214566981e-03 0.0000000000000000e+00  1.2977626124868773e-04 1.6923403315869251e-03 0.0000000000000000e+00  1.3229569622333616e-04 1.7202622832151202e-03 0.0000000000000000e+00  1.3481171592528022e-04 1.7481208299207755e-03 0.0000000000000000e+00  1.3731859833215540e-04 1.7758467448229151e-03 0.0000000000000000e+00  1.3981153199634939e-04 1.8033679032163244e-03 0.0000000000000000e+00  1.4228584282383649e-04 1.8306136057377098e-03 0.0000000000000000e+00  1.4473756694554212e-04 1.8575169493182705e-03 0.0000000000000000e+00  1.4716687931187351e-04 1.8840104708033726e-03 0.0000000000000000e+00  1.4958330182489251e-04 1.9100181472792425e-03 0.0000000000000000e+00  1.5200979954560975e-04 1.9354475047183993e-03 0.0000000000000000e+00  1.5448195084113823e-04 1.9601828089271960e-03 0.0000000000000000e+00  1.5703828020528047e-04 1.9840852018674620e-03 0.0000000000000000e+00  1.5970195234556216e-04 2.0070137231732502e-03 0.0000000000000000e+00  1.6246536452569813e-04 2.0288670711088009e-03 0.0000000000000000e+00  1.6529372285066832e-04 2.0495764767715550e-03 0.0000000000000000e+00  1.6813461537801863e-04 2.0690542226433403e-03 0.0000000000000000e+00  1.2155082367531483e-04 1.6037348595213494e-03 0.0000000000000000e+00  1.2426191088972275e-04 1.6318698017955718e-03 0.0000000000000000e+00  1.2693662380256621e-04 1.6601485372502367e-03 0.0000000000000000e+00  1.2957220863729716e-04 1.6885058033642352e-03 0.0000000000000000e+00  1.3216360306200967e-04 1.7168749755029199e-03 0.0000000000000000e+00  1.3470450357499093e-04 1.7451879125762882e-03 0.0000000000000000e+00  1.3718820615106679e-04 1.7733736429271780e-03 0.0000000000000000e+00  1.3960786280787862e-04 1.8013583948271561e-03 0.0000000000000000e+00  1.4195694126149886e-04 1.8290675323652504e-03 0.0000000000000000e+00  1.4423093760547660e-04 1.8564259306873628e-03 0.0000000000000000e+00  1.4643001342035179e-04 1.8833544905901929e-03 0.0000000000000000e+00  1.4856119120801512e-04 1.9097647175888620e-03 0.0000000000000000e+00  1.5063876708227140e-04 1.9355542854967395e-03 0.0000000000000000e+00  1.5268161568268926e-04 1.9606055587758895e-03 0.0000000000000000e+00  1.5470647434998530e-04 1.9847906968790819e-03 0.0000000000000000e+00  1.5671914097448934e-04 2.0079879286819618e-03 0.0000000000000000e+00  1.5870990273250882e-04 2.0301028190903990e-03 0.0000000000000000e+00  1.6065687831899036e-04 2.0510641577047121e-03 0.0000000000000000e+00  1.6252689438508316e-04 2.0708030673285012e-03 0.0000000000000000e+00  1.6426960986893089e-04 2.0892683257567953e-03 0.0000000000000000e+00  1.2297448885411098e-04 1.6269918773406389e-03 0.0000000000000000e+00  1.2580936479767354e-04 1.6557535601402912e-03 0.0000000000000000e+00  1.2856193454428792e-04 1.6846024410576805e-03 0.0000000000000000e+00  1.3122734710437097e-04 1.7134723464856979e-03 0.0000000000000000e+00  1.3379912147654674e-04 1.7422944203910036e-03 0.0000000000000000e+00  1.3626968979655853e-04 1.7709964714588326e-03 0.0000000000000000e+00  1.3863078831685187e-04 1.7995028619963330e-03 0.0000000000000000e+00  1.4087420871073338e-04 1.8277349778273192e-03 0.0000000000000000e+00  1.4299333568233249e-04 1.8556106273381911e-03 0.0000000000000000e+00  1.4498500013082274e-04 1.8830414984758353e-03 0.0000000000000000e+00  1.4685065236627688e-04 1.9099299506300552e-03 0.0000000000000000e+00  1.4859609695373828e-04 1.9361671639237293e-03 0.0000000000000000e+00  1.5022937552422078e-04 1.9616343891617309e-03 0.0000000000000000e+00  1.5175689097422643e-04 1.9862092330425424e-03 0.0000000000000000e+00  1.5317925648984423e-04 2.0097777192226874e-03 0.0000000000000000e+00  1.5448951081177198e-04 2.0322467374175907e-03 0.0000000000000000e+00  1.5567396828542978e-04 2.0535437290231206e-03 0.0000000000000000e+00  1.5671060223557099e-04 2.0736098288327304e-03 0.0000000000000000e+00  1.5756464036125066e-04 2.0924084528763129e-03 0.0000000000000000e+00  1.5818964176487314e-04 2.1099389770490298e-03 0.0000000000000000e+00  1.2390640007991339e-04 1.6512372204139773e-03 0.0000000000000000e+00  1.2677200884015209e-04 1.6806276049051005e-03 0.0000000000000000e+00  1.2951215781379217e-04 1.7100490048648897e-03 0.0000000000000000e+00  1.3212027979990048e-04 1.7394324001436896e-03 0.0000000000000000e+00  1.3458813089319360e-04 1.7687048622348274e-03 0.0000000000000000e+00  1.3690613215130328e-04 1.7977891472098727e-03 0.0000000000000000e+00  1.3906406005131290e-04 1.8266033011363346e-03 0.0000000000000000e+00  1.4105225153334319e-04 1.8550595787215586e-03 0.0000000000000000e+00  1.4286299862909763e-04 1.8830625156231202e-03 0.0000000000000000e+00  1.4449154937887243e-04 1.9105071122968559e-03 0.0000000000000000e+00  1.4593630029735379e-04 1.9372785569591567e-03 0.0000000000000000e+00  1.4719803792620430e-04 1.9632547972619836e-03 0.0000000000000000e+00  1.4827839120466708e-04 1.9883129420362041e-03 0.0000000000000000e+00  1.4917816701529469e-04 2.0123389962363376e-03 0.0000000000000000e+00  1.4989609018420909e-04 2.0352375263295954e-03 0.0000000000000000e+00  1.5042742059137362e-04 2.0569346105917879e-03 0.0000000000000000e+00  1.5076064794049870e-04 2.0773768494384190e-03 0.0000000000000000e+00  1.5087339136751421e-04 2.0965357569723950e-03 0.0000000000000000e+00  1.5073277557780957e-04 2.1144140866949119e-03 0.0000000000000000e+00  1.5030623725154784e-04 2.1310451260219336e-03 0.0000000000000000e+00  1.2422132737992359e-04 1.6765796741703939e-03 0.0000000000000000e+00  1.2703483629667144e-04 1.7066000137887500e-03 0.0000000000000000e+00  1.2968331860650000e-04 1.7365936567630888e-03 0.0000000000000000e+00  1.3215817290259500e-04 1.7664875431716847e-03 0.0000000000000000e+00  1.3444866026273000e-04 1.7962035160183540e-03 0.0000000000000000e+00  1.3654237078695021e-04 1.8256573275479166e-03 0.0000000000000000e+00  1.3842613577186422e-04 1.8547571871515396e-03 0.0000000000000000e+00  1.4008723641115029e-04 1.8834020252397801e-03 0.0000000000000000e+00  1.4151463456873174e-04 1.9114802703333125e-03 0.0000000000000000e+00  1.4270003922253245e-04 1.9388702452382966e-03 0.0000000000000000e+00  1.4363874565369644e-04 1.9654432466044542e-03 0.0000000000000000e+00  1.4433021329101294e-04 1.9910699772227630e-03 0.0000000000000000e+00  1.4477831862502700e-04 2.0156296792998006e-03 0.0000000000000000e+00  1.4499017142578162e-04 2.0390206277641400e-03 0.0000000000000000e+00  1.4497275650319041e-04 2.0611664139431950e-03 0.0000000000000000e+00  1.4472738544252716e-04 2.0820174429725356e-03 0.0000000000000000e+00  1.4424341679548678e-04 2.1015523424744698e-03 0.0000000000000000e+00  1.4349434576190953e-04 2.1197778570668110e-03 0.0000000000000000e+00  1.4245169327327124e-04 2.1367103863606939e-03 0.0000000000000000e+00  1.4111191484301777e-04 2.1523822199740771e-03 0.0000000000000000e+00  1.2380307960556606e-04 1.7031214743635540e-03 0.0000000000000000e+00  1.2649342974161454e-04 1.7337703499787432e-03 0.0000000000000000e+00  1.2898328981574502e-04 1.7643327511741775e-03 0.0000000000000000e+00  1.3126118151410648e-04 1.7947306503735697e-03 0.0000000000000000e+00  1.3331265992365239e-04 1.8248788753996428e-03 0.0000000000000000e+00  1.3512094088618385e-04 1.8546831733544102e-03 0.0000000000000000e+00  1.3666805434761045e-04 1.8840382064505246e-03 0.0000000000000000e+00  1.3793647279721407e-04 1.9128262010092941e-03 0.0000000000000000e+00  1.3891118620324146e-04 1.9409172117872226e-03 0.0000000000000000e+00  1.3958222405028589e-04 1.9681720462766260e-03 0.0000000000000000e+00  1.3994748913264413e-04 1.9944487253966861e-03 0.0000000000000000e+00  1.4001540744668653e-04 2.0196121850889572e-03 0.0000000000000000e+00  1.3980422419657460e-04 2.0435488641432180e-03 0.0000000000000000e+00  1.3933688831841185e-04 2.0661774880303698e-03 0.0000000000000000e+00  1.3863290603253022e-04 2.0874523903917689e-03 0.0000000000000000e+00  1.3769693280359514e-04 2.1073635219235175e-03 0.0000000000000000e+00  1.3650640020264020e-04 2.1259339519566589e-03 0.0000000000000000e+00  1.3502412746167359e-04 2.1431598202199405e-03 0.0000000000000000e+00  1.3324387103909424e-04 2.1590051666624055e-03 0.0000000000000000e+00  1.3128080294488124e-04 2.1734425036488594e-03 0.0000000000000000e+00  1.2254495438582667e-04 1.7309557844651287e-03 0.0000000000000000e+00  1.2505477455662808e-04 1.7622288640744314e-03 0.0000000000000000e+00  1.2733308702488085e-04 1.7933540354401027e-03 0.0000000000000000e+00  1.2936396046792743e-04 1.8242469452338888e-03 0.0000000000000000e+00  1.3112719039760193e-04 1.8548127619970670e-03 0.0000000000000000e+00  1.3259938773704718e-04 1.8849434132192119e-03 0.0000000000000000e+00  1.3375604299518631e-04 1.9145154234511237e-03 0.0000000000000000e+00  1.3457464167495462e-04 1.9433892765258309e-03 0.0000000000000000e+00  1.3503885064249359e-04 1.9714114077317964e-03 0.0000000000000000e+00  1.3514376727842380e-04 1.9984201849042949e-03 0.0000000000000000e+00  1.3490222645998025e-04 2.0242562913333683e-03 0.0000000000000000e+00  1.3434560352064520e-04 2.0487858138494193e-03 0.0000000000000000e+00  1.3351782015880967e-04 2.0719181834653743e-03 0.0000000000000000e+00  1.3246435413100823e-04 2.0936111821802544e-03 0.0000000000000000e+00  1.3121502439712444e-04 2.1138762583035489e-03 0.0000000000000000e+00  1.2974752900007838e-04 2.1327782687560175e-03 0.0000000000000000e+00  1.2802143044674482e-04 2.1503155423547716e-03 0.0000000000000000e+00  1.2597819267693016e-04 2.1663472616712969e-03 0.0000000000000000e+00  1.2374259771040107e-04 2.1805641010964019e-03 0.0000000000000000e+00  1.2178958989202154e-04 2.1931876665343495e-03 0.0000000000000000e+00  1.2035079336381614e-04 1.7601654396710664e-03 0.0000000000000000e+00  1.2263883914115608e-04 1.7920568065888146e-03 0.0000000000000000e+00  1.2466867341190676e-04 1.8237383512598692e-03 0.0000000000000000e+00  1.2641724110981140e-04 1.8551171472175848e-03 0.0000000000000000e+00  1.2785564023266724e-04 1.8860845526754747e-03 0.0000000000000000e+00  1.2895158831411938e-04 1.9165125103564945e-03 0.0000000000000000e+00  1.2967367009087378e-04 1.9462512274868633e-03 0.0000000000000000e+00  1.2999725328986556e-04 1.9751294254398187e-03 0.0000000000000000e+00  1.2991187824967028e-04 2.0029585681280398e-03 0.0000000000000000e+00  1.2943233027009330e-04 2.0295413292527203e-03 0.0000000000000000e+00  1.2860226955417969e-04 2.0547104049276504e-03 0.0000000000000000e+00  1.2748982064338059e-04 2.0783569644437206e-03 0.0000000000000000e+00  1.2617846750637889e-04 2.1004395880058978e-03 0.0000000000000000e+00  1.2473353534930078e-04 2.1209979877452110e-03 0.0000000000000000e+00  1.2314912587053429e-04 2.1402075276918857e-03 0.0000000000000000e+00  1.2134312266599643e-04 2.1580375283932370e-03 0.0000000000000000e+00  1.1938565065257179e-04 2.1743960249485028e-03 0.0000000000000000e+00  1.1715076526322647e-04 2.1883377839590954e-03 0.0000000000000000e+00  1.1514551339341710e-04 2.1993793084878533e-03 0.0000000000000000e+00  1.1478583081476129e-04 2.2112960957340741e-03 0.0000000000000000e+00  1.1713667555292257e-04 1.7908231417715695e-03 0.0000000000000000e+00  1.1918052307773341e-04 1.8233287910025518e-03 0.0000000000000000e+00  1.2094257482410091e-04 1.8555641652452984e-03 0.0000000000000000e+00  1.2238851499438079e-04 1.8874233791551552e-03 0.0000000000000000e+00  1.2347715518346765e-04 1.9187760241281739e-03 0.0000000000000000e+00  1.2416614225234347e-04 1.9494622131716734e-03 0.0000000000000000e+00  1.2442023635088505e-04 1.9792903548879787e-03 0.0000000000000000e+00  1.2422121919984929e-04 2.0080389239211104e-03 0.0000000000000000e+00  1.2358291228557335e-04 2.0354554011444569e-03 0.0000000000000000e+00  1.2255228659549197e-04 2.0613202932431044e-03 0.0000000000000000e+00  1.2121757273359250e-04 2.0854903053592793e-03 0.0000000000000000e+00  1.1970966420022149e-04 2.1079061396409951e-03 0.0000000000000000e+00  1.1816922770565994e-04 2.1286628694501008e-03 0.0000000000000000e+00  1.1653200737224438e-04 2.1480849618180386e-03 0.0000000000000000e+00  1.1490884769801491e-04 2.1662984184694862e-03 0.0000000000000000e+00  1.1292018298283294e-04 2.1825799995569407e-03 0.0000000000000000e+00  1.1265268465938068e-04 2.1969097094217509e-03 0.0000000000000000e+00  1.1121454219079990e-04 2.2054384781965458e-03 0.0000000000000000e+00  1.1041247229079411e-04 2.2112350777492478e-03 0.0000000000000000e+00  1.0998432914790141e-04 2.2164458984215802e-03 0.0000000000000000e+00  1.1283276689895804e-04 1.8229945141969490e-03 0.0000000000000000e+00  1.1463105362341149e-04 1.8561192622556426e-03 0.0000000000000000e+00  1.1612359975894888e-04 1.8889167643057780e-03 0.0000000000000000e+00  1.1725875758644478e-04 1.9212584123866794e-03 0.0000000000000000e+00  1.1797986443047189e-04 1.9529754622426402e-03 0.0000000000000000e+00  1.1823797744918366e-04 1.9838534608793718e-03 0.0000000000000000e+00  1.1800664465110254e-04 2.0136312707236511e-03 0.0000000000000000e+00  1.1730942743521687e-04 2.0419843477245815e-03 0.0000000000000000e+00  1.1618135781490525e-04 2.0686293199453543e-03 0.0000000000000000e+00  1.1468542378411649e-04 2.0933466360381859e-03 0.0000000000000000e+00  1.1302715313276640e-04 2.1160240513084967e-03 0.0000000000000000e+00  1.1142757099632290e-04 2.1367596992829300e-03 0.0000000000000000e+00  1.0995452701972563e-04 2.1564542228784170e-03 0.0000000000000000e+00  1.0814626686006835e-04 2.1743728795612532e-03 0.0000000000000000e+00  1.0849404637268244e-04 2.1917078086766181e-03 0.0000000000000000e+00  1.0742762155366617e-04 2.1988557886334402e-03 0.0000000000000000e+00  1.0668532520366018e-04 2.2053531514652650e-03 0.0000000000000000e+00  1.0612233190979018e-04 2.2111423036811437e-03 0.0000000000000000e+00  1.0566081933262424e-04 2.2164034132082992e-03 0.0000000000000000e+00  1.0516369056112431e-04 2.2215953712444625e-03 0.0000000000000000e+00  1.0738418206842754e-04 1.8567470159029725e-03 0.0000000000000000e+00  1.0895647583249053e-04 1.8905169191036145e-03 0.0000000000000000e+00  1.1019001847688386e-04 1.9239056475601778e-03 0.0000000000000000e+00  1.1100795319813214e-04 1.9567391689986093e-03 0.0000000000000000e+00  1.1134001561258534e-04 1.9887756415082466e-03 0.0000000000000000e+