<?xml version="1.0"?>
<VTKFile type="UnstructuredGrid"  version="0.1"  >
<UnstructuredGrid>
<Piece  NumberOfPoints="639" NumberOfCells="1175">
<Points>
<DataArray  type="Float64"  NumberOfComponents="3"  format="ascii">1.321739130434783 0 0  1.338260869565217 0 0  1.338260869565217 0.01666666666666667 0  1.354782608695652 0 0  1.354782608695652 0.01666666666666667 0  1.371304347826087 0 0  1.371304347826087 0.01666666666666667 0  1.387826086956522 0 0  1.387826086956522 0.01666666666666667 0  1.404347826086957 0 0  1.404347826086957 0.01666666666666667 0  1.420869565217391 0 0  1.420869565217391 0.01666666666666667 0  1.437391304347826 0 0  1.437391304347826 0.01666666666666667 0  1.453913043478261 0 0  1.453913043478261 0.01666666666666667 0  1.470434782608696 0 0  1.470434782608696 0.01666666666666667 0  1.486956521739131 0 0  1.486956521739131 0.01666666666666667 0  1.503478260869565 0 0  1.503478260869565 0.01666666666666667 0  1.52 0 0  1.52 0.01666666666666667 0  1.536521739130435 0 0  1.536521739130435 0.01666666666666667 0  1.55304347826087 0 0  1.55304347826087 0.01666666666666667 0  1.569565217391304 0 0  1.569565217391304 0.01666666666666667 0  1.586086956521739 0 0  1.586086956521739 0.01666666666666667 0  1.602608695652174 0 0  1.602608695652174 0.01666666666666667 0  1.619130434782609 0 0  1.619130434782609 0.01666666666666667 0  1.635652173913043 0 0  1.635652173913043 0.01666666666666667 0  1.652173913043478 0 0  1.652173913043478 0.01666666666666667 0  1.668695652173913 0 0  1.668695652173913 0.01666666666666667 0  1.685217391304348 0 0  1.685217391304348 0.01666666666666667 0  1.701739130434782 0 0  1.701739130434782 0.01666666666666667 0  1.718260869565217 0 0  1.718260869565217 0.01666666666666667 0  1.734782608695652 0 0  1.734782608695652 0.01666666666666667 0  1.751304347826087 0 0  1.751304347826087 0.01666666666666667 0  1.767826086956522 0 0  1.767826086956522 0.01666666666666667 0  1.784347826086957 0 0  1.784347826086957 0.01666666666666667 0  1.800869565217391 0 0  1.800869565217391 0.01666666666666667 0  1.817391304347826 0 0  1.817391304347826 0.01666666666666667 0  1.833913043478261 0 0  1.833913043478261 0.01666666666666667 0  1.850434782608696 0 0  1.850434782608696 0.01666666666666667 0  1.86695652173913 0 0  1.86695652173913 0.01666666666666667 0  1.883478260869565 0 0  1.883478260869565 0.01666666666666667 0  1.354782608695652 0.03333333333333333 0  1.371304347826087 0.03333333333333333 0  1.387826086956522 0.03333333333333333 0  1.404347826086957 0.03333333333333333 0  1.420869565217391 0.03333333333333333 0  1.437391304347826 0.03333333333333333 0  1.453913043478261 0.03333333333333333 0  1.470434782608696 0.03333333333333333 0  1.486956521739131 0.03333333333333333 0  1.503478260869565 0.03333333333333333 0  1.52 0.03333333333333333 0  1.536521739130435 0.03333333333333333 0  1.55304347826087 0.03333333333333333 0  1.569565217391304 0.03333333333333333 0  1.586086956521739 0.03333333333333333 0  1.602608695652174 0.03333333333333333 0  1.619130434782609 0.03333333333333333 0  1.635652173913043 0.03333333333333333 0  1.652173913043478 0.03333333333333333 0  1.668695652173913 0.03333333333333333 0  1.685217391304348 0.03333333333333333 0  1.701739130434782 0.03333333333333333 0  1.718260869565217 0.03333333333333333 0  1.734782608695652 0.03333333333333333 0  1.751304347826087 0.03333333333333333 0  1.767826086956522 0.03333333333333333 0  1.784347826086957 0.03333333333333333 0  1.800869565217391 0.03333333333333333 0  1.817391304347826 0.03333333333333333 0  1.833913043478261 0.03333333333333333 0  1.850434782608696 0.03333333333333333 0  1.86695652173913 0.03333333333333333 0  1.883478260869565 0.03333333333333333 0  1.371304347826087 0.05 0  1.387826086956522 0.05 0  1.404347826086957 0.05 0  1.420869565217391 0.05 0  1.437391304347826 0.05 0  1.453913043478261 0.05 0  1.470434782608696 0.05 0  1.486956521739131 0.05 0  1.503478260869565 0.05 0  1.52 0.05 0  1.536521739130435 0.05 0  1.55304347826087 0.05 0  1.569565217391304 0.05 0  1.586086956521739 0.05 0  1.602608695652174 0.05 0  1.619130434782609 0.05 0  1.635652173913043 0.05 0  1.652173913043478 0.05 0  1.668695652173913 0.05 0  1.685217391304348 0.05 0  1.701739130434782 0.05 0  1.718260869565217 0.05 0  1.734782608695652 0.05 0  1.751304347826087 0.05 0  1.767826086956522 0.05 0  1.784347826086957 0.05 0  1.800869565217391 0.05 0  1.817391304347826 0.05 0  1.833913043478261 0.05 0  1.850434782608696 0.05 0  1.86695652173913 0.05 0  1.883478260869565 0.05 0  1.387826086956522 0.06666666666666667 0  1.404347826086957 0.06666666666666667 0  1.420869565217391 0.06666666666666667 0  1.437391304347826 0.06666666666666667 0  1.453913043478261 0.06666666666666667 0  1.470434782608696 0.06666666666666667 0  1.486956521739131 0.06666666666666667 0  1.503478260869565 0.06666666666666667 0  1.52 0.06666666666666667 0  1.536521739130435 0.06666666666666667 0  1.55304347826087 0.06666666666666667 0  1.569565217391304 0.06666666666666667 0  1.586086956521739 0.06666666666666667 0  1.602608695652174 0.06666666666666667 0  1.619130434782609 0.06666666666666667 0  1.635652173913043 0.06666666666666667 0  1.652173913043478 0.06666666666666667 0  1.668695652173913 0.06666666666666667 0  1.685217391304348 0.06666666666666667 0  1.701739130434782 0.06666666666666667 0  1.718260869565217 0.06666666666666667 0  1.734782608695652 0.06666666666666667 0  1.751304347826087 0.06666666666666667 0  1.767826086956522 0.06666666666666667 0  1.784347826086957 0.06666666666666667 0  1.800869565217391 0.06666666666666667 0  1.817391304347826 0.06666666666666667 0  1.833913043478261 0.06666666666666667 0  1.850434782608696 0.06666666666666667 0  1.86695652173913 0.06666666666666667 0  1.883478260869565 0.06666666666666667 0  1.404347826086957 0.08333333333333333 0  1.420869565217391 0.08333333333333333 0  1.437391304347826 0.08333333333333333 0  1.453913043478261 0.08333333333333333 0  1.470434782608696 0.08333333333333333 0  1.486956521739131 0.08333333333333333 0  1.503478260869565 0.08333333333333333 0  1.52 0.08333333333333333 0  1.536521739130435 0.08333333333333333 0  1.55304347826087 0.08333333333333333 0  1.569565217391304 0.08333333333333333 0  1.586086956521739 0.08333333333333333 0  1.602608695652174 0.08333333333333333 0  1.619130434782609 0.08333333333333333 0  1.635652173913043 0.08333333333333333 0  1.652173913043478 0.08333333333333333 0  1.668695652173913 0.08333333333333333 0  1.685217391304348 0.08333333333333333 0  1.701739130434782 0.08333333333333333 0  1.718260869565217 0.08333333333333333 0  1.734782608695652 0.08333333333333333 0  1.751304347826087 0.08333333333333333 0  1.767826086956522 0.08333333333333333 0  1.784347826086957 0.08333333333333333 0  1.800869565217391 0.08333333333333333 0  1.817391304347826 0.08333333333333333 0  1.833913043478261 0.08333333333333333 0  1.850434782608696 0.08333333333333333 0  1.86695652173913 0.08333333333333333 0  1.883478260869565 0.08333333333333333 0  1.420869565217391 0.1 0  1.437391304347826 0.1 0  1.453913043478261 0.1 0  1.470434782608696 0.1 0  1.486956521739131 0.1 0  1.503478260869565 0.1 0  1.52 0.1 0  1.536521739130435 0.1 0  1.55304347826087 0.1 0  1.569565217391304 0.1 0  1.586086956521739 0.1 0  1.602608695652174 0.1 0  1.619130434782609 0.1 0  1.635652173913043 0.1 0  1.652173913043478 0.1 0  1.668695652173913 0.1 0  1.685217391304348 0.1 0  1.701739130434782 0.1 0  1.718260869565217 0.1 0  1.734782608695652 0.1 0  1.751304347826087 0.1 0  1.767826086956522 0.1 0  1.784347826086957 0.1 0  1.800869565217391 0.1 0  1.817391304347826 0.1 0  1.833913043478261 0.1 0  1.850434782608696 0.1 0  1.86695652173913 0.1 0  1.883478260869565 0.1 0  1.437391304347826 0.1166666666666667 0  1.453913043478261 0.1166666666666667 0  1.470434782608696 0.1166666666666667 0  1.486956521739131 0.1166666666666667 0  1.503478260869565 0.1166666666666667 0  1.52 0.1166666666666667 0  1.536521739130435 0.1166666666666667 0  1.55304347826087 0.1166666666666667 0  1.569565217391304 0.1166666666666667 0  1.586086956521739 0.1166666666666667 0  1.602608695652174 0.1166666666666667 0  1.619130434782609 0.1166666666666667 0  1.635652173913043 0.1166666666666667 0  1.652173913043478 0.1166666666666667 0  1.668695652173913 0.1166666666666667 0  1.685217391304348 0.1166666666666667 0  1.701739130434782 0.1166666666666667 0  1.718260869565217 0.1166666666666667 0  1.734782608695652 0.1166666666666667 0  1.751304347826087 0.1166666666666667 0  1.767826086956522 0.1166666666666667 0  1.784347826086957 0.1166666666666667 0  1.800869565217391 0.1166666666666667 0  1.817391304347826 0.1166666666666667 0  1.833913043478261 0.1166666666666667 0  1.850434782608696 0.1166666666666667 0  1.86695652173913 0.1166666666666667 0  1.883478260869565 0.1166666666666667 0  1.453913043478261 0.1333333333333333 0  1.470434782608696 0.1333333333333333 0  1.486956521739131 0.1333333333333333 0  1.503478260869565 0.1333333333333333 0  1.52 0.1333333333333333 0  1.536521739130435 0.1333333333333333 0  1.55304347826087 0.1333333333333333 0  1.569565217391304 0.1333333333333333 0  1.586086956521739 0.1333333333333333 0  1.602608695652174 0.1333333333333333 0  1.619130434782609 0.1333333333333333 0  1.635652173913043 0.1333333333333333 0  1.652173913043478 0.1333333333333333 0  1.668695652173913 0.1333333333333333 0  1.685217391304348 0.1333333333333333 0  1.701739130434782 0.1333333333333333 0  1.718260869565217 0.1333333333333333 0  1.734782608695652 0.1333333333333333 0  1.751304347826087 0.1333333333333333 0  1.767826086956522 0.1333333333333333 0  1.784347826086957 0.1333333333333333 0  1.800869565217391 0.1333333333333333 0  1.817391304347826 0.1333333333333333 0  1.833913043478261 0.1333333333333333 0  1.850434782608696 0.1333333333333333 0  1.86695652173913 0.1333333333333333 0  1.883478260869565 0.1333333333333333 0  1.470434782608696 0.15 0  1.486956521739131 0.15 0  1.503478260869565 0.15 0  1.52 0.15 0  1.5365217391304
[...]
<PointData  Vectors="Displacement"> 
<DataArray  type="Float64"  Name="Displacement"  NumberOfComponents="3" format="ascii">2.0692594970631671e-04 1.9867254538330132e-03 0.0000000000000000e+00  2.0918431070727228e-04 2.0097969418191382e-03 0.0000000000000000e+00  1.8641963287685569e-04 2.0087965969782578e-03 0.0000000000000000e+00  2.1149758342711559e-04 2.0317322405488201e-03 0.0000000000000000e+00  1.9002405665709653e-04 2.0307124042843968e-03 0.0000000000000000e+00  2.1382771131284024e-04 2.0523206059256528e-03 0.0000000000000000e+00  1.9377492862374164e-04 2.0513003573419215e-03 0.0000000000000000e+00  2.1615707077333465e-04 2.0714938131659627e-03 0.0000000000000000e+00  1.9755294890801969e-04 2.0704723367390584e-03 0.0000000000000000e+00  2.1847856276651544e-04 2.0892262723669949e-03 0.0000000000000000e+00  2.0134405210521736e-04 2.0882061653161991e-03 0.0000000000000000e+00  2.2079089527422675e-04 2.1054829798449453e-03 0.0000000000000000e+00  2.0514815080796873e-04 2.1044676306387232e-03 0.0000000000000000e+00  2.2309656376070998e-04 2.1202340203227894e-03 0.0000000000000000e+00  2.0895445516308606e-04 2.1192316480821284e-03 0.0000000000000000e+00  2.2527754263753215e-04 2.1332910291060030e-03 0.0000000000000000e+00  2.1275828665210809e-04 2.1325937793778968e-03 0.0000000000000000e+00  2.2744599033009598e-04 2.1450317777392406e-03 0.0000000000000000e+00  2.1551602413990745e-04 2.1443651379481257e-03 0.0000000000000000e+00  2.2974968021925883e-04 2.1565680051691405e-03 0.0000000000000000e+00  2.1769188854511742e-04 2.1558853605873536e-03 0.0000000000000000e+00  2.3221589452922868e-04 2.1685334332709047e-03 0.0000000000000000e+00  2.1960818590097510e-04 2.1678078804216721e-03 0.0000000000000000e+00  2.3474108275319669e-04 2.1813723320175818e-03 0.0000000000000000e+00  2.2137569759565830e-04 2.1806539527786922e-03 0.0000000000000000e+00  2.3724360364305920e-04 2.1950671545731739e-03 0.0000000000000000e+00  2.2309005491792113e-04 2.1943653312643963e-03 0.0000000000000000e+00  2.3966976325744905e-04 2.2095704028934110e-03 0.0000000000000000e+00  2.2475197116406868e-04 2.2089153392959807e-03 0.0000000000000000e+00  2.4206640200933431e-04 2.2246850855851537e-03 0.0000000000000000e+00  2.2639760848775506e-04 2.2240537532314157e-03 0.0000000000000000e+00  2.4461913386341998e-04 2.2402699893421729e-03 0.0000000000000000e+00  2.2813753863891898e-04 2.2395859954931312e-03 0.0000000000000000e+00  2.4753286569561438e-04 2.2564867870815391e-03 0.0000000000000000e+00  2.3005671072808274e-04 2.2556958893942764e-03 0.0000000000000000e+00  2.5092212857884770e-04 2.2737180609042448e-03 0.0000000000000000e+00  2.3216059278766433e-04 2.2728104713078041e-03 0.0000000000000000e+00  2.5480652277145606e-04 2.2924032993023734e-03 0.0000000000000000e+00  2.3440248689454767e-04 2.2913895690753784e-03 0.0000000000000000e+00  2.5913478436444753e-04 2.3129862397641113e-03 0.0000000000000000e+00  2.3671322545280673e-04 2.3118961598500767e-03 0.0000000000000000e+00  2.6377685080846433e-04 2.3359121362125325e-03 0.0000000000000000e+00  2.3896313912468180e-04 2.3348217504771734e-03 0.0000000000000000e+00  2.6867201595850710e-04 2.3614442535241850e-03 0.0000000000000000e+00  2.4105195719778386e-04 2.3603416369714003e-03 0.0000000000000000e+00  2.7391000349353574e-04 2.3899208939536791e-03 0.0000000000000000e+00  2.4305242408569593e-04 2.3886765617067993e-03 0.0000000000000000e+00  2.7915407115090867e-04 2.4224121669354686e-03 0.0000000000000000e+00  2.4476453148637749e-04 2.4212646990687762e-03 0.0000000000000000e+00  2.8417684487277908e-04 2.4585693470797892e-03 0.0000000000000000e+00  2.4625056925932018e-04 2.4575220873933735e-03 0.0000000000000000e+00  2.8891005245938110e-04 2.4982393466835245e-03 0.0000000000000000e+00  2.4747958895307239e-04 2.4973118521923604e-03 0.0000000000000000e+00  2.9353806993096811e-04 2.5413680677162120e-03 0.0000000000000000e+00  2.4846974012209471e-04 2.5402685047864176e-03 0.0000000000000000e+00  2.9783208129754876e-04 2.5887316495328801e-03 0.0000000000000000e+00  2.4946241404468866e-04 2.5875647535085000e-03 0.0000000000000000e+00  3.0140677041911901e-04 2.6392658029570091e-03 0.0000000000000000e+00  2.5100006335322585e-04 2.6381827594985975e-03 0.0000000000000000e+00  3.0411389797433498e-04 2.6911809392568533e-03 0.0000000000000000e+00  2.5311706227361321e-04 2.6901482410323749e-03 0.0000000000000000e+00  3.0593101264286821e-04 2.7429348965972615e-03 0.0000000000000000e+00  2.5584982376177483e-04 2.7419615090166949e-03 0.0000000000000000e+00  3.0681743276873987e-04 2.7929220246360928e-03 0.0000000000000000e+00  2.5919452962363865e-04 2.7921264026469958e-03 0.0000000000000000e+00  3.0664706090263993e-04 2.8392574237540331e-03 0.0000000000000000e+00  2.6289659579467470e-04 2.8391052685800039e-03 0.0000000000000000e+00  3.0603379681401184e-04 2.8810169530039840e-03 0.0000000000000000e+00  2.6545119197234925e-04 2.8808541118856179e-03 0.0000000000000000e+00  1.6807901175363115e-04 2.0294657437919567e-03 0.0000000000000000e+00  1.7316532782309677e-04 2.0499999704700418e-03 0.0000000000000000e+00  1.7833627904367209e-04 2.0691631415534154e-03 0.0000000000000000e+00  1.8353348206463156e-04 2.0868931104459604e-03 0.0000000000000000e+00  1.8886296592656555e-04 2.1031508597060440e-03 0.0000000000000000e+00  1.9429634858512913e-04 2.1179177201292839e-03 0.0000000000000000e+00  1.9949999453604592e-04 2.1312882583768753e-03 0.0000000000000000e+00  2.0464522288593263e-04 2.1436564332963700e-03 0.0000000000000000e+00  2.0646939860608784e-04 2.1554212227034176e-03 0.0000000000000000e+00  2.0745316555716826e-04 2.1673129707428999e-03 0.0000000000000000e+00  2.0814430361653995e-04 2.1802012263263579e-03 0.0000000000000000e+00  2.0894486949519334e-04 2.1939328715512014e-03 0.0000000000000000e+00  2.0973953097764081e-04 2.2086170717486465e-03 0.0000000000000000e+00  2.1048764162125952e-04 2.2238526451221702e-03 0.0000000000000000e+00  2.1129564701731677e-04 2.2393159548306138e-03 0.0000000000000000e+00  2.1220637456011802e-04 2.2552945568383616e-03 0.0000000000000000e+00  2.1312225857240467e-04 2.2723293672900317e-03 0.0000000000000000e+00  2.1388955323022710e-04 2.2908828967169378e-03 0.0000000000000000e+00  2.1437204615609904e-04 2.3113955234145855e-03 0.0000000000000000e+00  2.1442356918417900e-04 2.3345017206199384e-03 0.0000000000000000e+00  2.1397109691490319e-04 2.3602368597652008e-03 0.0000000000000000e+00  2.1294190319556472e-04 2.3883135353604877e-03 0.0000000000000000e+00  2.1094125432124822e-04 2.4211721119261165e-03 0.0000000000000000e+00  2.0908499859036955e-04 2.4574529495956553e-03 0.0000000000000000e+00  2.0734436548587302e-04 2.4971626562026220e-03 0.0000000000000000e+00  2.0618322807849877e-04 2.5396295355195318e-03 0.0000000000000000e+00  2.0299144744572839e-04 2.5870433062106699e-03 0.0000000000000000e+00  2.0077935959767767e-04 2.6376033498052851e-03 0.0000000000000000e+00  2.0148435278627183e-04 2.6893494197729557e-03 0.0000000000000000e+00  2.0454084457924711e-04 2.7409054790191135e-03 0.0000000000000000e+00  2.0994627270022034e-04 2.7907902503194813e-03 0.0000000000000000e+00  2.1822626159930132e-04 2.8375628804912247e-03 0.0000000000000000e+00  2.2729548312367220e-04 2.8801059412168098e-03 0.0000000000000000e+00  1.6948626339968685e-04 2.0491785875396016e-03 0.0000000000000000e+00  1.7343954984381409e-04 2.0684730794087273e-03 0.0000000000000000e+00  1.7740307704398436e-04 2.0863982323369233e-03 0.0000000000000000e+00  1.8131134280349712e-04 2.1029073959754809e-03 0.0000000000000000e+00  1.8506513884630047e-04 2.1180484399414374e-03 0.0000000000000000e+00  1.8849171395576720e-04 2.1319764982842770e-03 0.0000000000000000e+00  1.9138945446145949e-04 2.1449177238597201e-03 0.0000000000000000e+00  1.9350619564104172e-04 2.1572584199486241e-03 0.0000000000000000e+00  1.9489382125605179e-04 2.1671464104766709e-03 0.0000000000000000e+00  1.9461926530616204e-04 2.1801176095449805e-03 0.0000000000000000e+00  1.9454252168339667e-04 2.1937561078232272e-03 0.0000000000000000e+00  1.9452051556466385e-04 2.2086947975650520e-03 0.0000000000000000e+00  1.9445451515696073e-04 2.2241437279991740e-03 0.0000000000000000e+00  1.9446118418940946e-04 2.2394511701522265e-03 0.0000000000000000e+00  1.9457189911750822e-04 2.2551796363713050e-03 0.0000000000000000e+00  1.9456884377210909e-04 2.2721145019254257e-03 0.0000000000000000e+00  1.9418682130910634e-04 2.2907142911064607e-03 0.0000000000000000e+00  1.9314487122035760e-04 2.3113073509919610e-03 0.0000000000000000e+00  1.9115894079344207e-04 2.3346024115757373e-03 0.0000000000000000e+00  1.8897859348400811e-04 2.3604126580628326e-03 0.0000000000000000e+00  1.8719224019989562e-04 2.3881341748867896e-03 0.0000000000000000e+00  1.8003866232282282e-04 2.4216270753792436e-03 0.0000000000000000e+00  1.7458675752203085e-04 2.4578236915736378e-03 0.0000000000000000e+00  1.6729314500370888e-04 2.4977432708833984e-03 0.0000000000000000e+00  1.7476968090245022e-04 2.5480402708316632e-03 0.0000000000000000e+00  1.7629901910206687e-04 2.5952988556332138e-03 0.0000000000000000e+00  1.7676606833158420e-04 2.6434799919688580e-03 0.0000000000000000e+00  1.7802044644140149e-04 2.6921057242423594e-03 0.0000000000000000e+00  1.8066845870180415e-04 2.7405345531440182e-03 0.0000000000000000e+00  1.8473665753874084e-04 2.7876528841512447e-03 0.0000000000000000e+00  1.8982594515655181e-04 2.8325066766321364e-03 0.0000000000000000e+00  1.9484913860006115e-04 2.8749578656268957e-03 0.0000000000000000e+00  1.6813461537801863e-04 2.0690542226433403e-03 0.0000000000000000e+00  1.7091761505489984e-04 2.0872246835291369e-03 0.0000000000000000e+00  1.7355933994932387e-04 2.1040609367506181e-03 0.0000000000000000e+00  1.7595986928719827e-04 2.1196193429073506e-03 0.0000000000000000e+00  1.7800514330431317e-04 2.1340401897417941e-03 0.0000000000000000e+00  1.7958220360944261e-04 2.1475072649704322e-03 0.0000000000000000e+00  1.8059678315721997e-04 2.1601976665095134e-03 0.0000000000000000e+00  1.8089983781231528e-04 2.1716679731396227e-03 0.0000000000000000e+00  1.8021963366494494e-04 2.1838659096779342e-03 0.0000000000000000e+00  1.7891136831389980e-04 2.1937366370053126e-03 0.0000000000000000e+00  1.7871492382078364e-04 2.2089736110567364e-03 0.0000000000000000e+00  1.7834748851247199e-04 2.2248873738567455e-03 0.0000000000000000e+00  1.7796281506488070e-04 2.2398347954741449e-03 0.0000000000000000e+00  1.7770635449100244e-04 2.2550677881538572e-03 0.0000000000000000e+00  1.7726802023403074e-04 2.2718299815684016e-03 0.0000000000000000e+00  1.7632044793499093e-04 2.2904284289418119e-03 0.0000000000000000e+00  1.7475152190530940e-04 2.3111433112863776e-03 0.0000000000000000e+00  1.7154111140251787e-04 2.3345726038831302e-03 0.0000000000000000e+00  1.6649833754495065e-04 2.3606175323843911e-03 0.0000000000000000e+00  1.6680933256157924e-04 2.3965355639228221e-03 0.0000000000000000e+00  1.6411255901061363e-04 2.4342028918657634e-03 0.0000000000000000e+00  1.5990553535520557e-04 2.4712971845498436e-03 0.0000000000000000e+00  1.5599289185114343e-04 2.5113278808177155e-03 0.0000000000000000e+00  1.5421998863934688e-04 2.5550464820354845e-03 0.0000000000000000e+00  1.5446772698125553e-04 2.6017062208191252e-03 0.0000000000000000e+00  1.5478613045732405e-04 2.6484103245809783e-03 0.0000000000000000e+00  1.5573079899483148e-04 2.6949954591107043e-03 0.0000000000000000e+00  1.5763174547542952e-04 2.7411436781117639e-03 0.0000000000000000e+00  1.6051846642403255e-04 2.7862459000924660e-03 0.0000000000000000e+00  1.6408765900342479e-04 2.8297780585978694e-03 0.0000000000000000e+00  1.6780406952353132e-04 2.8716898850149422e-03 0.0000000000000000e+00  1.6426960986893089e-04 2.0892683257567953e-03 0.0000000000000000e+00  1.6581900063230930e-04 2.1064502259394474e-03 0.0000000000000000e+00  1.6710060036392765e-04 2.1224016567944252e-03 0.0000000000000000e+00  1.6804364721423546e-04 2.1372372557028978e-03 0.0000000000000000e+00  1.6859237602440637e-04 2.1511076339791068e-03 0.0000000000000000e+00  1.6870336487478094e-04 2.1641622887045766e-03 0.0000000000000000e+00  1.6829161224984015e-04 2.1764268535444447e-03 0.0000000000000000e+00  1.6724891638788273e-04 2.1886415469503651e-03 0.0000000000000000e+00  1.6564870537400794e-04 2.1997638727179808e-03 0.0000000000000000e+00  1.6292139871971659e-04 2.2098037471998664e-03 0.0000000000000000e+00  1.6258522795331614e-04 2.2260216363378664e-03 0.0000000000000000e+00  1.6231956648630699e-04 2.2402121866943086e-03 0.0000000000000000e+00  1.6218279247721349e-04 2.2545621565183667e-03 0.0000000000000000e+00  1.6173143301337781e-04 2.2710312945842222e-03 0.0000000000000000e+00  1.6060485048364961e-04 2.2898505525845094e-03 0.0000000000000000e+00  1.5730684865729368e-04 2.3110422964457166e-03 0.0000000000000000e+00  1.5832665519709577e-04 2.3432960268594608e-03 0.0000000000000000e+00  1.5530279583633402e-04 2.3736142468469518e-03 0.0000000000000000e+00  1.5133416401503607e-04 2.4078689705940024e-03 0.0000000000000000e+00  1.4769471748011387e-04 2.4453615184909876e-03 0.0000000000000000e+00  1.4383846003188558e-04 2.4833544596965930e-03 0.0000000000000000e+00  1.3991876631768248e-04 2.5229784909741818e-03 0.0000000000000000e+00  1.3678262932687483e-04 2.5648621581085560e-03 0.0000000000000000e+00  1.3491451763329346e-04 2.6088614034215718e-03 0.0000000000000000e+00  1.3423991256146324e-04 2.6536747093562304e-03 0.0000000000000000e+00  1.3445821011142308e-04 2.6984049115913547e-03 0.0000000000000000e+00  1.3556345952318714e-04 2.7426766810310925e-03 0.0000000000000000e+00  1.3750593357408290e-04 2.7861015469618981e-03 0.0000000000000000e+00  1.4008798304454713e-04 2.8283751028914512e-03 0.0000000000000000e+00  1.4301903874573474e-04 2.8694254682640270e-03 0.0000000000000000e+00  1.5818964176487314e-04 2.1099389770490298e-03 0.0000000000000000e+00  1.5853627245553188e-04 2.1262463697132570e-03 0.0000000000000000e+00  1.5856493132597154e-04 2.1414215050646703e-03 0.0000000000000000e+00  1.5825374026110498e-04 2.1555912725072231e-03 0.0000000000000000e+00  1.5758877656714510e-04 2.1689203007980956e-03 0.0000000000000000e+00  1.5651824174090287e-04 2.1816286956120971e-03 0.0000000000000000e+00  1.5492040927960168e-04 2.1941295318697583e-03 0.0000000000000000e+00  1.5266915574556442e-04 2.2062851338985130e-03 0.0000000000000000e+00  1.4986108039030956e-04 2.2182101443952891e-03 0.0000000000000000e+00  1.4907536865280821e-04 2.2283552623067458e-03 0.0000000000000000e+00  1.4862244779644581e-04 2.2404917917685781e-03 0.0000000000000000e+00  1.4849617110166809e-04 2.2532638887956097e-03 0.0000000000000000e+00  1.4815888485410322e-04 2.2697108029823901e-03 0.0000000000000000e+00  1.4731221061537546e-04 2.2878752234606267e-03 0.0000000000000000e+00  1.4823987800180948e-04 2.3192296450944877e-03 0.0000000000000000e+00  1.4545241794659602e-04 2.3514507732775598e-03 0.0000000000000000e+00  1.4186094375351230e-04 2.3848728393062470e-03 0.0000000000000000e+00  1.3705448418218190e-04 2.4199641371725812e-03 0.0000000000000000e+00  1.3213279483971694e-04 2.4569272738080386e-03 0.0000000000000000e+00  1.2749683246644967e-04 2.4948979221699132e-03 0.0000000000000000e+00  1.2310046712388887e-04 2.5340899754310582e-03 0.0000000000000000e+00  1.1928211562143135e-04 2.5747463236098422e-03 0.0000000000000000e+00  1.1642286360633501e-04 2.6167965163115233e-03 0.0000000000000000e+00  1.1471147461829132e-04 2.6595890987128560e-03 0.0000000000000000e+00  1.1406934185888871e-04 2.7024846053982548e-03 0.0000000000000000e+00  1.1436865848271993e-04 2.7450377605581118e-03 0.0000000000000000e+00  1.1549878581789538e-04 2.7869266199274352e-03 0.0000000000000000e+00  1.1730500934993852e-04 2.8279329875273780e-03 0.0000000000000000e+00  1.1960178888525851e-04 2.8679679144507785e-03 0.0000000000000000e+00  1.5030623725154784e-04 2.1310451260219336e-03 0.0000000000000000e+00  1.4957628948412331e-04 2.1464951170074554e-03 0.0000000000000000e+00  1.4854978302085913e-04 2.1608669536508128e-03 0.0000000000000000e+00  1.4723786076750758e-04 2.1743360136435475e-03 0.0000000000000000e+00  1.4561321650408967e-04 2.1872377735232241e-03 0.0000000000000000e+00  1.4367100048467347e-04 2.2000272818045868e-03 0.0000000000000000e+00  1.4110410499175460e-04 2.2128013977090110e-03 0.0000000000000000e+00  1.3919633439221673e-04 2.2239697322360115e-03 0.0000000000000000e+00  1.3884224278074028e-04 2.2307562965145095e-03 0.0000000000000000e+00  1.3842588465737046e-04 2.2405208648879891e-03 0.0000000000000000e+00  1.3858799692686416e-04 2.2508597194984049e-03 0.0000000000000000e+00  1.3919741970376147e-04 2.2624183594608586e-03 0.0000000000000000e+00  1.4070930323163035e-04 2.2929162235316080e-03 0.0000000000000000e+00  1.3765531025789439e-04 2.3261872799184421e-03 0.0000000000000000e+00  1.3342752555023149e-04 2.3610327693579665e-03 0.0000000000000000e+00  1.2816758247637084e-04 2.3960784467776837e-03 0.0000000000000000e+00  1.2239017047239889e-04 2.4320032401595158e-03 0.0000000000000000e+00  1.1657099915261633e-04 2.4688635544115245e-03 0.0000000000000000e+00  1.1108861665094679e-04 2.5064966200329603e-03 0.0000000000000000e+00  1.0606589626531847e-04 2.5450505581085369e-03 0.0000000000000000e+00  1.0168586397225024e-04 2.5846012508059938e-03 0.0000000000000000e+00  9.8179353377697909e-05 2.6250645690244693e-03 0.0000000000000000e+00  9.5711956358535325e-05 2.6660758662334096e-03 0.0000000000000000e+00  9.4295530671420236e-05 2.7072198167614496e-03 0.0000000000000000e+00  9.3848890808877252e-05 2.7481371106590560e-03 0.0000000000000000e+00  9.4259057269737177e-05 2.7885497924259317e-03 0.0000000000000000e+00  9.5395126744379441e-05 2.8282744920777917e-03 0.0000000000000000e+00  9.7118804309940252e-05 2.8672163027033096e-03 0.0000000000000000e+00  1.4111191484301777e-04 2.1523822199740771e-03 0.0000000000000000e+00  1.3951448953293918e-04 2.1668553146338828e-03 0.0000000000000000e+00  1.3771066598857826e-04 2.1803203954315949e-03 0.0000000000000000e+00  1.3561414903260561e-04 2.1932081933200972e-03 0.0000000000000000e+00  1.3326283753365632e-04 2.2058629853061052e-03 0.0000000000000000e+00  1.3124095289920344e-04 2.2194034437613124e-03 0.0000000000000000e+00  1.3102512259146335e-04 2.2262537605407065e-03 0.0000000000000000e+00  1.3087110153483061e-04 2.2322094052247060e-03 0.0000000000000000e+00  1.3061282496247176e-04 2.2403565969752672e-03 0.0000000000000000e+00  1.3073170846856331e-04 2.2489300582859131e-03 0.0000000000000000e+00  1.3128052786754921e-04 2.2577069875878539e-03 0.0000000000000000e+00  1.3098941578282522e-04 2.2966585262965524e-03 0.0000000000000000e+00  1.2663020509327296e-04 2.3345616623185713e-03 0.0000000000000000e+00  1.2056005148824139e-04 2.3714916745507528e-03 0.0000000000000000e+00  1.1392258325987520e-04 2.4078859915197710e-03 0.0000000000000000e+00  1.0712554916553806e-04 2.4443080754523337e-03 0.0000000000000000e+00  1.0053426200760123e-04 2.4810611496730228e-03 0.0000000000000000e+00  9.4384895709245201e-05 2.5182496053690155e-03 0.0000000000000000e+00  8.8812673083574027e-05 2.5560416950816630e-03 0.0000000000000000e+00  8.3954844061892472e-05 2.5944990319184706e-03 0.0000000000000000e+00  7.9954697983454129e-05 2.6335524285119134e-03 0.0000000000000000e+00  7.6922292890554793e-05 2.6729792015534647e-03 0.0000000000000000e+00  7.4885110881815772e-05 2.7125063006786130e-03 0.0000000000000000e+00  7.3799582425138272e-05 2.7518699770159444e-03 0.0000000000000000e+00  7.3579827165737457e-05 2.7908491800084931e-03 0.0000000000000000e+00  7.4119047762695328e-05 2.8292879375438995e-03 0.0000000000000000e+00  7.5305271769290623e-05 2.8670956553224882e-03 0.0000000000000000e+00  1.3128080294488124e-04 2.1734425036488594e-03 0.0000000000000000e+00  1.2928707406138253e-04 2.1866319070298458e-03 0.0000000000000000e+00  1.2729388989403710e-04 2.1993094548966442e-03 0.0000000000000000e+00  1.2526118089996606e-04 2.2110745073188375e-03 0.0000000000000000e+00  1.2460915246716547e-04 2.2213467168585559e-03 0.0000000000000000e+