<?xml version="1.0"?>
<VTKFile type="UnstructuredGrid"  version="0.1"  >
<UnstructuredGrid>
<Piece  NumberOfPoints="617" NumberOfCells="1135">
<Points>
<DataArray  type="Float64"  NumberOfComponents="3"  format="ascii">0 0 0  0.01652173913043478 0 0  0.01652173913043478 0.01666666666666667 0  0 0.01666666666666667 0  0.03304347826086956 0 0  0.03304347826086956 0.01666666666666667 0  0.04956521739130434 0 0  0.04956521739130434 0.01666666666666667 0  0.06608695652173913 0 0  0.06608695652173913 0.01666666666666667 0  0.08260869565217391 0 0  0.08260869565217391 0.01666666666666667 0  0.09913043478260869 0.01666666666666667 0  0.01652173913043478 0.03333333333333333 0  0 0.03333333333333333 0  0.03304347826086956 0.03333333333333333 0  0.04956521739130434 0.03333333333333333 0  0.06608695652173913 0.03333333333333333 0  0.08260869565217391 0.03333333333333333 0  0.09913043478260869 0.03333333333333333 0  0.1156521739130435 0.03333333333333333 0  0.01652173913043478 0.05 0  0 0.05 0  0.03304347826086956 0.05 0  0.04956521739130434 0.05 0  0.06608695652173913 0.05 0  0.08260869565217391 0.05 0  0.09913043478260869 0.05 0  0.1156521739130435 0.05 0  0.1321739130434783 0.05 0  0.01652173913043478 0.06666666666666667 0  0 0.06666666666666667 0  0.03304347826086956 0.06666666666666667 0  0.04956521739130434 0.06666666666666667 0  0.06608695652173913 0.06666666666666667 0  0.08260869565217391 0.06666666666666667 0  0.09913043478260869 0.06666666666666667 0  0.1156521739130435 0.06666666666666667 0  0.1321739130434783 0.06666666666666667 0  0.148695652173913 0.06666666666666667 0  0.01652173913043478 0.08333333333333333 0  0 0.08333333333333333 0  0.03304347826086956 0.08333333333333333 0  0.04956521739130434 0.08333333333333333 0  0.06608695652173913 0.08333333333333333 0  0.08260869565217391 0.08333333333333333 0  0.09913043478260869 0.08333333333333333 0  0.1156521739130435 0.08333333333333333 0  0.1321739130434783 0.08333333333333333 0  0.148695652173913 0.08333333333333333 0  0.1652173913043478 0.08333333333333333 0  0.01652173913043478 0.1 0  0 0.1 0  0.03304347826086956 0.1 0  0.04956521739130434 0.1 0  0.06608695652173913 0.1 0  0.08260869565217391 0.1 0  0.09913043478260869 0.1 0  0.1156521739130435 0.1 0  0.1321739130434783 0.1 0  0.148695652173913 0.1 0  0.1652173913043478 0.1 0  0.1817391304347826 0.1 0  0.01652173913043478 0.1166666666666667 0  0 0.1166666666666667 0  0.03304347826086956 0.1166666666666667 0  0.04956521739130434 0.1166666666666667 0  0.06608695652173913 0.1166666666666667 0  0.08260869565217391 0.1166666666666667 0  0.09913043478260869 0.1166666666666667 0  0.1156521739130435 0.1166666666666667 0  0.1321739130434783 0.1166666666666667 0  0.148695652173913 0.1166666666666667 0  0.1652173913043478 0.1166666666666667 0  0.1817391304347826 0.1166666666666667 0  0.1982608695652174 0.1166666666666667 0  0.01652173913043478 0.1333333333333333 0  0 0.1333333333333333 0  0.03304347826086956 0.1333333333333333 0  0.04956521739130434 0.1333333333333333 0  0.06608695652173913 0.1333333333333333 0  0.08260869565217391 0.1333333333333333 0  0.09913043478260869 0.1333333333333333 0  0.1156521739130435 0.1333333333333333 0  0.1321739130434783 0.1333333333333333 0  0.148695652173913 0.1333333333333333 0  0.1652173913043478 0.1333333333333333 0  0.1817391304347826 0.1333333333333333 0  0.1982608695652174 0.1333333333333333 0  0.2147826086956522 0.1333333333333333 0  0.01652173913043478 0.15 0  0 0.15 0  0.03304347826086956 0.15 0  0.04956521739130434 0.15 0  0.06608695652173913 0.15 0  0.08260869565217391 0.15 0  0.09913043478260869 0.15 0  0.1156521739130435 0.15 0  0.1321739130434783 0.15 0  0.148695652173913 0.15 0  0.1652173913043478 0.15 0  0.1817391304347826 0.15 0  0.1982608695652174 0.15 0  0.2147826086956522 0.15 0  0.2313043478260869 0.15 0  0.01652173913043478 0.1666666666666667 0  0 0.1666666666666667 0  0.03304347826086956 0.1666666666666667 0  0.04956521739130434 0.1666666666666667 0  0.06608695652173913 0.1666666666666667 0  0.08260869565217391 0.1666666666666667 0  0.09913043478260869 0.1666666666666667 0  0.1156521739130435 0.1666666666666667 0  0.1321739130434783 0.1666666666666667 0  0.148695652173913 0.1666666666666667 0  0.1652173913043478 0.1666666666666667 0  0.1817391304347826 0.1666666666666667 0  0.1982608695652174 0.1666666666666667 0  0.2147826086956522 0.1666666666666667 0  0.2313043478260869 0.1666666666666667 0  0.2478260869565218 0.1666666666666667 0  0.01652173913043478 0.1833333333333333 0  0 0.1833333333333333 0  0.03304347826086956 0.1833333333333333 0  0.04956521739130434 0.1833333333333333 0  0.06608695652173913 0.1833333333333333 0  0.08260869565217391 0.1833333333333333 0  0.09913043478260869 0.1833333333333333 0  0.1156521739130435 0.1833333333333333 0  0.1321739130434783 0.1833333333333333 0  0.148695652173913 0.1833333333333333 0  0.1652173913043478 0.1833333333333333 0  0.1817391304347826 0.1833333333333333 0  0.1982608695652174 0.1833333333333333 0  0.2147826086956522 0.1833333333333333 0  0.2313043478260869 0.1833333333333333 0  0.2478260869565218 0.1833333333333333 0  0.2643478260869565 0.1833333333333333 0  0.01652173913043478 0.2 0  0 0.2 0  0.03304347826086956 0.2 0  0.04956521739130434 0.2 0  0.06608695652173913 0.2 0  0.08260869565217391 0.2 0  0.09913043478260869 0.2 0  0.1156521739130435 0.2 0  0.1321739130434783 0.2 0  0.148695652173913 0.2 0  0.1652173913043478 0.2 0  0.1817391304347826 0.2 0  0.1982608695652174 0.2 0  0.2147826086956522 0.2 0  0.2313043478260869 0.2 0  0.2478260869565218 0.2 0  0.2643478260869565 0.2 0  0.2808695652173913 0.2 0  0.01652173913043478 0.2166666666666667 0  0 0.2166666666666667 0  0.03304347826086956 0.2166666666666667 0  0.04956521739130434 0.2166666666666667 0  0.06608695652173913 0.2166666666666667 0  0.08260869565217391 0.2166666666666667 0  0.09913043478260869 0.2166666666666667 0  0.1156521739130435 0.2166666666666667 0  0.1321739130434783 0.2166666666666667 0  0.148695652173913 0.2166666666666667 0  0.1652173913043478 0.2166666666666667 0  0.1817391304347826 0.2166666666666667 0  0.1982608695652174 0.2166666666666667 0  0.2147826086956522 0.2166666666666667 0  0.2313043478260869 0.2166666666666667 0  0.2478260869565218 0.2166666666666667 0  0.2643478260869565 0.2166666666666667 0  0.2808695652173913 0.2166666666666667 0  0.2973913043478261 0.2166666666666667 0  0.01652173913043478 0.2333333333333333 0  0 0.2333333333333333 0  0.03304347826086956 0.2333333333333333 0  0.04956521739130434 0.2333333333333333 0  0.06608695652173913 0.2333333333333333 0  0.08260869565217391 0.2333333333333333 0  0.09913043478260869 0.2333333333333333 0  0.1156521739130435 0.2333333333333333 0  0.1321739130434783 0.2333333333333333 0  0.148695652173913 0.2333333333333333 0  0.1652173913043478 0.2333333333333333 0  0.1817391304347826 0.2333333333333333 0  0.1982608695652174 0.2333333333333333 0  0.2147826086956522 0.2333333333333333 0  0.2313043478260869 0.2333333333333333 0  0.2478260869565218 0.2333333333333333 0  0.2643478260869565 0.2333333333333333 0  0.2808695652173913 0.2333333333333333 0  0.2973913043478261 0.2333333333333333 0  0.01652173913043478 0.25 0  0 0.25 0  0.03304347826086956 0.25 0  0.04956521739130434 0.25 0  0.06608695652173913 0.25 0  0.08260869565217391 0.25 0  0.09913043478260869 0.25 0  0.1156521739130435 0.25 0  0.1321739130434783 0.25 0  0.148695652173913 0.25 0  0.1652173913043478 0.25 0  0.1817391304347826 0.25 0  0.1982608695652174 0.25 0  0.2147826086956522 0.25 0  0.2313043478260869 0.25 0  0.2478260869565218 0.25 0  0.2643478260869565 0.25 0  0.2808695652173913 0.25 0  0.2973913043478261 0.25 0  0.01652173913043478 0.2666666666666667 0  0 0.2666666666666667 0  0.03304347826086956 0.2666666666666667 0  0.04956521739130434 0.2666666666666667 0  0.06608695652173913 0.2666666666666667 0  0.08260869565217391 0.2666666666666667 0  0.09913043478260869 0.2666666666666667 0  0.1156521739130435 0.2666666666666667 0  0.1321739130434783 0.2666666666666667 0  0.148695652173913 0.2666666666666667 0  0.1652173913043478 0.2666666666666667 0  0.1817391304347826 0.2666666666666667 0  0.1982608695652174 0.2666666666666667 0  0.2147826086956522 0.2666666666666667 0  0.2313043478260869 0.2666666666666667 0  0.2478260869565218 0.2666666666666667 0  0.2643478260869565 0.2666666666666667 0  0.2808695652173913 0.2666666666666667 0  0.2973913043478261 0.2666666666666667 0  0.3139130434782609 0.2666666666666667 0  0.01652173913043478 0.2833333333333333 0  0 0.2833333333333333 0  0.03304347826086956 0.2833333333333333 0  0.04956521739130434 0.2833333333333333 0  0.06608695652173913 0.2833333333333333 0  0.08260869565217391 0.2833333333333333 0  0.09913043478260869 0.2833333333333333 0  0.1156521739130435 0.2833333333333333 0  0.1321739130434783 0.2833333333333333 0  0.148695652173913 0.2833333333333333 0  0.1652173913043478 0.2833333333333333 0  0.1817391304347826 0.2833333333333333 0  0.1982608695652174 0.2833333333333333 0  0.2147826086956522 0.2833333333333333 0  0.2313043478260869 0.2833333333333333 0  0.2478260869565218 0.2833333333333333 0  0.2643478260869565 0.2833333333333333 0  0.2808695652173913 0.2833333333333333 0  0.2973913043478261 0.2833333333333333 0  0.3139130434782609 0.2833333333333333 0  0.3304347826086956 0.2833333333333333 0  0.01652173913043478 0.3 0  0 0.3 0  0.03304347826086956 0.3 0  0.04956521739130434 0.3 0  0.06608695652173913 0.3 0  0.08260869565217391 0.3 0  0.09913043478260869 0.3 0  0.1156521739130435 0.3 0  0.1321739130434783 0.3 0  0.148695652173913 0.3 0  0.1652173913043478 0.3 0  0.1817391304347826 0.3 0  0.1982608695652174 0.3 0  0.2147826086956522 0.3 0  0.2313043478260869 0.3 0  0.2478260869565218 0.3 0  0.2643478260869565 0.3 0  0.2808695652173913 0.3 0  0.2973913043478261 0.3 0  0.3139130434782609 0.3 0  0.3304347826086956 0.3 0  0.3469565217391304 0.3 0  0.01652173913043478 0.3166666666666667 0  0 0.3166666666666667 0  0.03304347826086956 0.3166666666666667 0  0.04956521739130434 0.31666666
[...]
<PointData  Vectors="Displacement"> 
<DataArray  type="Float64"  Name="Displacement"  NumberOfComponents="3" format="ascii">0.0000000000000000e+00 0.0000000000000000e+00 0.0000000000000000e+00  7.4783435855208627e-06 3.7930862947680795e-06 0.0000000000000000e+00  3.9187072055215902e-06 2.0493855717266544e-06 0.0000000000000000e+00  0.0000000000000000e+00 0.0000000000000000e+00 0.0000000000000000e+00  1.4392302736484787e-05 8.8910324086749463e-06 0.0000000000000000e+00  8.2261307432214086e-06 7.0797481394995067e-06 0.0000000000000000e+00  2.1153013555390662e-05 1.6401042448904571e-05 0.0000000000000000e+00  1.2375258636412332e-05 1.4629364022288094e-05 0.0000000000000000e+00  2.7831938104315161e-05 2.6466552946506061e-05 0.0000000000000000e+00  1.6368263102973253e-05 2.4731957445458478e-05 0.0000000000000000e+00  3.4508135509407937e-05 3.9144055096859404e-05 0.0000000000000000e+00  2.0261214020566184e-05 3.7406024577136794e-05 0.0000000000000000e+00  2.4094213392899366e-05 5.2855472848593066e-05 0.0000000000000000e+00  1.2079036835656965e-06 1.4665636263620702e-06 0.0000000000000000e+00  0.0000000000000000e+00 0.0000000000000000e+00 0.0000000000000000e+00  2.5842226634405011e-06 6.2135218194649749e-06 0.0000000000000000e+00  3.9618621596300483e-06 1.3787361835910855e-05 0.0000000000000000e+00  5.2000082108833318e-06 2.3960106541997421e-05 0.0000000000000000e+00  6.2950502742958533e-06 3.6605590136682569e-05 0.0000000000000000e+00  7.2952014664951493e-06 5.1959951477211352e-05 0.0000000000000000e+00  8.0951971390771570e-06 7.0603564784505854e-05 0.0000000000000000e+00  -1.3668371004676567e-06 1.6112450694479416e-06 0.0000000000000000e+00  0.0000000000000000e+00 0.0000000000000000e+00 0.0000000000000000e+00  -2.7827197350309342e-06 6.2941762334720467e-06 0.0000000000000000e+00  -4.1700943708067216e-06 1.3872790200391866e-05 0.0000000000000000e+00  -5.5668844055721226e-06 2.4163429679349588e-05 0.0000000000000000e+00  -7.1375197946641597e-06 3.6772061568266320e-05 0.0000000000000000e+00  -8.9753464802741366e-06 5.1909965083259809e-05 0.0000000000000000e+00  -1.1206405462205908e-05 7.0728109758056408e-05 0.0000000000000000e+00  -1.3915577702085088e-05 9.2708014579122815e-05 0.0000000000000000e+00  -4.0199304914055077e-06 2.4593403632855118e-06 0.0000000000000000e+00  0.0000000000000000e+00 0.0000000000000000e+00 0.0000000000000000e+00  -8.0801355103797158e-06 7.2246446624580981e-06 0.0000000000000000e+00  -1.2151962409913994e-05 1.4711355528254760e-05 0.0000000000000000e+00  -1.5785525695569191e-05 2.4875935357168321e-05 0.0000000000000000e+00  -1.8598818627528914e-05 3.7359409090364048e-05 0.0000000000000000e+00  -2.2020203922707587e-05 5.2306936642831461e-05 0.0000000000000000e+00  -2.8864394558697810e-05 7.1369457782157478e-05 0.0000000000000000e+00  -3.5717360825751185e-05 9.3628536178231065e-05 0.0000000000000000e+00  -4.0705552521668579e-05 1.1829694188621671e-04 0.0000000000000000e+00  -6.5008861031571424e-06 3.7975744262771213e-06 0.0000000000000000e+00  0.0000000000000000e+00 0.0000000000000000e+00 0.0000000000000000e+00  -1.2886916462247700e-05 8.5762905496437119e-06 0.0000000000000000e+00  -1.9703908182492572e-05 1.6066982375442344e-05 0.0000000000000000e+00  -2.6026725900829356e-05 2.6087040657018123e-05 0.0000000000000000e+00  -2.4488131197290133e-05 4.2417026843722365e-05 0.0000000000000000e+00  -2.6688975859921265e-05 5.8790522182288042e-05 0.0000000000000000e+00  -3.0784808563443253e-05 7.8292852432478745e-05 0.0000000000000000e+00  -3.5481131038092298e-05 1.0001567775770368e-04 0.0000000000000000e+00  -3.9863810704198862e-05 1.2378534013773827e-04 0.0000000000000000e+00  -4.3627257571850697e-05 1.5001237518125530e-04 0.0000000000000000e+00  -4.1339408149000627e-06 6.5403904140679653e-06 0.0000000000000000e+00  0.0000000000000000e+00 0.0000000000000000e+00 0.0000000000000000e+00  -9.2040476563819436e-06 1.3197643699886131e-05 0.0000000000000000e+00  -1.4588264509420765e-05 2.1752521431427395e-05 0.0000000000000000e+00  -1.9649772627424497e-05 3.2496634652154623e-05 0.0000000000000000e+00  -2.3685173640786328e-05 4.6471278750724464e-05 0.0000000000000000e+00  -2.7109053979287075e-05 6.3758391299390102e-05 0.0000000000000000e+00  -3.1086533474136143e-05 8.3340543070903756e-05 0.0000000000000000e+00  -3.5195867857028311e-05 1.0482870722649986e-04 0.0000000000000000e+00  -3.9122502781011305e-05 1.2813408910856251e-04 0.0000000000000000e+00  -4.2591316661935713e-05 1.5348148588958236e-04 0.0000000000000000e+00  -4.5292748882315846e-05 1.8080475691186916e-04 0.0000000000000000e+00  -3.3775436534770736e-06 8.1441728332145203e-06 0.0000000000000000e+00  0.0000000000000000e+00 0.0000000000000000e+00 0.0000000000000000e+00  -7.5374936657551363e-06 1.6507392191522307e-05 0.0000000000000000e+00  -1.2255923182717789e-05 2.6150521370891412e-05 0.0000000000000000e+00  -1.7136624346576639e-05 3.7631227308049966e-05 0.0000000000000000e+00  -2.1915460372920764e-05 5.1627714802552468e-05 0.0000000000000000e+00  -2.6418009276679048e-05 6.8449321760575426e-05 0.0000000000000000e+00  -3.0679375923238063e-05 8.7687678556658673e-05 0.0000000000000000e+00  -3.4755640300480783e-05 1.0878805394481673e-04 0.0000000000000000e+00  -3.8571063574226294e-05 1.3161903313616124e-04 0.0000000000000000e+00  -4.1996018597498821e-05 1.5623135975965913e-04 0.0000000000000000e+00  -4.4855968204795197e-05 1.8254620487255955e-04 0.0000000000000000e+00  -4.7049626118440768e-05 2.1027016604046545e-04 0.0000000000000000e+00  -3.1456281993132750e-06 9.2924696990761523e-06 0.0000000000000000e+00  0.0000000000000000e+00 0.0000000000000000e+00 0.0000000000000000e+00  -6.9266354208729200e-06 1.8949479890537265e-05 0.0000000000000000e+00  -1.1269251879524118e-05 2.9635398591177361e-05 0.0000000000000000e+00  -1.5961020345932135e-05 4.1864167501515687e-05 0.0000000000000000e+00  -2.0789438310880562e-05 5.6150896318303313e-05 0.0000000000000000e+00  -2.5531917409260494e-05 7.2755323819177788e-05 0.0000000000000000e+00  -3.0023282706388393e-05 9.1532658355153438e-05 0.0000000000000000e+00  -3.4211024844942864e-05 1.1216662041465559e-04 0.0000000000000000e+00  -3.8086910108949738e-05 1.3448976418388667e-04 0.0000000000000000e+00  -4.1602367169363435e-05 1.5845905381855368e-04 0.0000000000000000e+00  -4.4679732300888823e-05 1.8399619499546204e-04 0.0000000000000000e+00  -4.7278094722699916e-05 2.1096734045854975e-04 0.0000000000000000e+00  -4.9430248113799220e-05 2.3939620843164774e-04 0.0000000000000000e+00  -3.1288295717264737e-06 1.0195299047552585e-05 0.0000000000000000e+00  0.0000000000000000e+00 0.0000000000000000e+00 0.0000000000000000e+00  -6.7804267891845693e-06 2.0846538733080146e-05 0.0000000000000000e+00  -1.0922793323962810e-05 3.2406605577417132e-05 0.0000000000000000e+00  -1.5430748468344207e-05 4.5291294883941942e-05 0.0000000000000000e+00  -2.0137297143685604e-05 5.9889072183320399e-05 0.0000000000000000e+00  -2.4845413328271481e-05 7.6415820611075842e-05 0.0000000000000000e+00  -2.9380809261813465e-05 9.4847820158063637e-05 0.0000000000000000e+00  -3.3645966936048856e-05 1.1503524486597313e-04 0.0000000000000000e+00  -3.7606861524774052e-05 1.3685824216450593e-04 0.0000000000000000e+00  -4.1237527494938244e-05 1.6024596368134576e-04 0.0000000000000000e+00  -4.4503747761178895e-05 1.8512579046981115e-04 0.0000000000000000e+00  -4.7386940636813669e-05 2.1142164434077441e-04 0.0000000000000000e+00  -4.9891869462454190e-05 2.3913010010856252e-04 0.0000000000000000e+00  -5.1999257866086971e-05 2.6827793423350103e-04 0.0000000000000000e+00  -3.2021260343552600e-06 1.0930143400924299e-05 0.0000000000000000e+00  0.0000000000000000e+00 0.0000000000000000e+00 0.0000000000000000e+00  -6.8330953629000900e-06 2.2354561951935668e-05 0.0000000000000000e+00  -1.0868706696608896e-05 3.4607974752419266e-05 0.0000000000000000e+00  -1.5224305316493101e-05 4.8019684128907444e-05 0.0000000000000000e+00  -1.9772581293753431e-05 6.2887480507111228e-05 0.0000000000000000e+00  -2.4357571326736050e-05 7.9395004386599666e-05 0.0000000000000000e+00  -2.8832501102897706e-05 9.7579082237914702e-05 0.0000000000000000e+00  -3.3096947181213151e-05 1.1738601424389897e-04 0.0000000000000000e+00  -3.7098835617529147e-05 1.3874846318522738e-04 0.0000000000000000e+00  -4.0808950917127416e-05 1.6160650781968643e-04 0.0000000000000000e+00  -4.4205320965038857e-05 1.8589855298063563e-04 0.0000000000000000e+00  -4.7274997462840401e-05 2.1156736407828335e-04 0.0000000000000000e+00  -5.0010800791309413e-05 2.3858298111641561e-04 0.0000000000000000e+00  -5.2390539786893350e-05 2.6690286502742302e-04 0.0000000000000000e+00  -5.4378484232122160e-05 2.9636525590616880e-04 0.0000000000000000e+00  -3.3085581626211699e-06 1.1528744068693402e-05 0.0000000000000000e+00  0.0000000000000000e+00 0.0000000000000000e+00 0.0000000000000000e+00  -6.9623985250761467e-06 2.3552480671823854e-05 0.0000000000000000e+00  -1.0936656439605683e-05 3.6336897595345414e-05 0.0000000000000000e+00  -1.5167717075940223e-05 5.0147955388646972e-05 0.0000000000000000e+00  -1.9559081697293906e-05 6.5222964391764560e-05 0.0000000000000000e+00  -2.3992471741485515e-05 8.1722884393134452e-05 0.0000000000000000e+00  -2.8352729287976768e-05 9.9714864861257644e-05 0.0000000000000000e+00  -3.2551697707315087e-05 1.1919958316386330e-04 0.0000000000000000e+00  -3.6533666342008281e-05 1.4014971663241552e-04 0.0000000000000000e+00  -4.0265054945490020e-05 1.6252602656406735e-04 0.0000000000000000e+00  -4.3724573362481100e-05 1.8628070057870202e-04 0.0000000000000000e+00  -4.6898819137264451e-05 2.1136404324455932e-04 0.0000000000000000e+00  -4.9776356207303460e-05 2.3772985815782353e-04 0.0000000000000000e+00  -5.2338511088271022e-05 2.6530938008980612e-04 0.0000000000000000e+00  -5.4564122195235560e-05 2.9396829556126072e-04 0.0000000000000000e+00  -5.6451851332768867e-05 3.2353870004353633e-04 0.0000000000000000e+00  -3.4204575316700775e-06 1.2005967250994380e-05 0.0000000000000000e+00  0.0000000000000000e+00 0.0000000000000000e+00 0.0000000000000000e+00  -7.1090839712382270e-06 2.4484115488348571e-05 0.0000000000000000e+00  -1.1039703479500220e-05 3.7658690035366809e-05 0.0000000000000000e+00  -1.5161745914269178e-05 5.1752911319971277e-05 0.0000000000000000e+00  -1.9402079008004232e-05 6.6965472453644600e-05 0.0000000000000000e+00  -2.3672719991872112e-05 8.3442107507853590e-05 0.0000000000000000e+00  -2.7886413908578439e-05 1.0126510663269230e-04 0.0000000000000000e+00  -3.1971496772287798e-05 1.2046602686784484e-04 0.0000000000000000e+00  -3.5877146792418216e-05 1.4104511023261686e-04 0.0000000000000000e+00  -3.9569805593252141e-05 1.6298226394936442e-04 0.0000000000000000e+00  -4.3027748745849826e-05 1.8624268019699943e-04 0.0000000000000000e+00  -4.6236572690001178e-05 2.1078209659027209e-04 0.0000000000000000e+00  -4.9184167397957944e-05 2.3654748247797433e-04 0.0000000000000000e+00  -5.1856524754923569e-05 2.6346266851825915e-04 0.0000000000000000e+00  -5.4241807418882877e-05 2.9141148210491729e-04 0.0000000000000000e+00  -5.6341687135746883e-05 3.2025293996241713e-04 0.0000000000000000e+00  -5.8174831306772622e-05 3.4983389102432569e-04 0.0000000000000000e+00  -3.5236089556298224e-06 1.2369915836142148e-05 0.0000000000000000e+00  0.0000000000000000e+00 0.0000000000000000e+00 0.0000000000000000e+00  -7.2425272416800477e-06 2.5175701607823338e-05 0.0000000000000000e+00  -1.1130505071541112e-05 3.8616821696791600e-05 0.0000000000000000e+00  -1.5146668970655833e-05 5.2889413242038144e-05 0.0000000000000000e+00  -1.9236019372305690e-05 6.8168598508208382e-05 0.0000000000000000e+00  -2.3334346432890906e-05 8.4590586860583162e-05 0.0000000000000000e+00  -2.7377579219364579e-05 1.0224550051803741e-04 0.0000000000000000e+00  -3.1310759664783420e-05 1.2118274246243368e-04 0.0000000000000000e+00  -3.5092059597824968e-05 1.4142080636594031e-04 0.0000000000000000e+00  -3.8691912292056751e-05 1.6295440807741036e-04 0.0000000000000000e+00  -4.2090232561020312e-05 1.8575945954576098e-04 0.0000000000000000e+00  -4.5273246961398704e-05 2.0979693823233646e-04 0.0000000000000000e+00  -4.8230163937182796e-05 2.3501300160184348e-04 0.0000000000000000e+00  -5.0951316100872291e-05 2.6133220872742702e-04 0.0000000000000000e+00  -5.3430973127482514e-05 2.8865170556072363e-04 0.0000000000000000e+00  -5.5673318913277033e-05 3.1684946848896655e-04 0.0000000000000000e+00  -5.7694960566945043e-05 3.4579260645457638e-04 0.0000000000000000e+00  -5.9524887109793523e-05 3.7534531743148200e-04 0.0000000000000000e+00  -3.6102173332617775e-06 1.2625375729973295e-05 0.0000000000000000e+00  0.0000000000000000e+00 0.0000000000000000e+00 0.0000000000000000e+00  -7.3455389709211644e-06 2.5643239503737824e-05 0.0000000000000000e+00  -1.1180981373393970e-05 3.9239238161734605e-05 0.0000000000000000e+00  -1.5083968493927596e-05 5.3593912753206215e-05 0.0000000000000000e+00  -1.9014298186391002e-05 6.8869203954910463e-05 0.0000000000000000e+00  -2.2926905405444147e-05 8.5196210059753827e-05 0.0000000000000000e+00  -2.6777090857786760e-05 1.0266963820065090e-04 0.0000000000000000e+00  -3.0525631769549906e-05 1.2134953793851594e-04 0.0000000000000000e+00  -3.4141419813255289e-05 1.4126625349912496e-04 0.0000000000000000e+00  -3.7601484517151465e-05 1.6242503486131894e-04 0.0000000000000000e+00  -4.0889650359170497e-05 1.8480993854520168e-04 0.0000000000000000e+00  -4.3994661058912213e-05 2.0838682619298107e-04 0.0000000000000000e+00  -4.6908307342619052e-05 2.3310400162409044e-04 0.0000000000000000e+00  -4.9624746077201807e-05 2.5888984810357391e-04 0.0000000000000000e+00  -5.2142368742334535e-05 2.8565181368523371e-04 0.0000000000000000e+00  -5.4467099983758800e-05 3.1328173807445778e-04 0.0000000000000000e+00  -5.6614126370140769e-05 3.4166179401397934e-04 0.0000000000000000e+00  -5.8608183641694887e-05 3.7067045659026329e-04 0.0000000000000000e+00  -3.6755927533708470e-06 1.2774875134557418e-05 0.0000000000000000e+00  0.0000000000000000e+00 0.0000000000000000e+00 0.0000000000000000e+00  -7.4073068103006528e-06 2.5895626450084192e-05 0.0000000000000000e+00  -1.1172493288575652e-05 3.9542110893297076e-05 0.0000000000000000e+00  -1.4946424221247774e-05 5.3887939733408949e-05 0.0000000000000000e+00  -1.8701836498486007e-05 6.9089351710361466e-05 0.0000000000000000e+00  -2.2409961449258175e-05 8.5275855877136781e-05 0.0000000000000000e+00  -2.6042909114339577e-05 1.0254551793352653e-04 0.0000000000000000e+00  -2.9576144965889291e-05 1.2096499645817845e-04 0.0000000000000000e+00  -3.2989881058258210e-05 1.4057214049125201e-04 0.0000000000000000e+00  -3.6269213019891604e-05 1.6137917166498826e-04 0.0000000000000000e+00  -3.9403498562015587e-05 1.8337582835276041e-04 0.0000000000000000e+00  -4.2385406590888306e-05 2.0653197444933126e-04 0.0000000000000000e+00  -4.5210063644634284e-05 2.3079890251680060e-04 0.0000000000000000e+00  -4.7875007371800793e-05 2.5610940930293738e-04 0.0000000000000000e+00  -5.0381493700167659e-05 2.8237890434371820e-04 0.0000000000000000e+00  -5.2736449920021356e-05 3.0950946260447390e-04 0.0000000000000000e+00  -5.4953668295804289e-05 3.3739443856022267e-04 0.0000000000000000e+00  -5.7054144630019752e-05 3.6592318623451830e-04 0.0000000000000000e+00  -3.7164687622819860e-06 1.2818890825541058e-05 0.0000000000000000e+00  0.0000000000000000e+00 0.0000000000000000e+00 0.0000000000000000e+00  -7.4198553607253666e-06 2.5935940212556311e-05 0.0000000000000000e+00  -1.1090713919180670e-05 3.9531930964247971e-05 0.0000000000000000e+00  -1.4712359423837956e-05 5.3780603584565680e-05 0.0000000000000000e+00  -1.8269794955299045e-05 6.8838276930684799e-05 0.0000000000000000e+00  -2.1749155288747611e-05 8.4835763967994250e-05 0.0000000000000000e+00  -2.5137931354322362e-05 1.0187416406122531e-04 0.0000000000000000e+00  -2.8425524726723067e-05 1.2002430909777872e-04 0.0000000000000000e+00  -3.1603582980315100e-05 1.3932844037975198e-04 0.0000000000000000e+00  -3.4665959647957481e-05 1.5980280661963820e-04 0.0000000000000000e+00  -3.7608441352195909e-05 1.8144051183404623e-04 0.0000000000000000e+00  -4.0428404757846942e-05 2.0421408502763208e-04 0.0000000000000000e+00  -4.3124630157034934e-05 2.2807735544711473e-04 0.0000000000000000e+00  -4.5697627329945620e-05 2.5296684644049536e-04 0.0000000000000000e+00  -4.8150658253414983e-05 2.7880382708172683e-04 0.0000000000000000e+00  -5.0491024863288398e-05 3.0549775200235124e-04 0.0000000000000000e+00  -5.2730931853131888e-05 3.3295007564599575e-04 0.0000000000000000e+00  -5.4887793779494376e-05 3.6105813967512470e-04 0.0000000000000000e+00  -5.6983984784251914e-05 3.8971885071322182e-04 0.0000000000000000e+00  -3.7300337553154605e-06 1.2755714509140744e-05 0.0000000000000000e+00  0.0000000000000000e+00 0.0000000000000000e+00 0.0000000000000000e+00  -7.3760011352973634e-06 2.5761781132077372e-05 0.0000000000000000e+00  -1.0922540267644597e-05 3.9206454263876058e-05 0.0000000000000000e+00  -1.4361856051131835e-05 5.3270026105129997e-05 0.0000000000000000e+00  -1.7691600125188842e-05 6.8113755067533525e-05 0.0000000000000000e+00  -2.0912603873437585e-05 8.3872136620155943e-05 0.0000000000000000e+00  -2.4027232497892025e-05 1.0064920324584743e-04 0.0000000000000000e+00  -2.7038421698803634e-05 1.1851816647576054e-04 0.0000000000000000e+00  -2.9949154710653774e-05 1.3752312356832546e-04 0.0000000000000000e+00  -3.2762200142766769e-05 1.5768173902240096e-04 0.0000000000000000e+00  -3.5480046561554687e-05 1.7898822694263327e-04 0.0000000000000000e+00  -3.8104988647611118e-05 2.0141611978036764e-04 0.0000000000000000e+00  -4.0639397761602181e-05 2.2492059519392689e-04 0.0000000000000000e+00  -4.3086302737632794e-05 2.4944057938971933e-04 0.0000000000000000e+00  -4.5450304851779068e-05 2.7490120466574169e-04 0.0000000000000000e+00  -4.7738555774176825e-05 3.0121689696119974e-04 0.0000000000000000e+00  -4.9961437779822476e-05 3.2829465528542013e-04 0.0000000000000000e+00  -5.2132837622430782e-05 3.5603734273503400e-04 0.0000000000000000e+00  -5.4269980553854332e-05 3.8434679375660627e-04 0.0000000000000000e+00  -5.6392830823277002e-05 4.1312659960263733e-04 0.0000000000000000e+00  -3.7132294556525378e-06 1.2581099051318854e-05 0.0000000000000000e+00  0.0000000000000000e+00 0.0000000000000000e+00 0.0000000000000000e+00  -7.2678379675801340e-06 2.5364961402199092e-05 0.0000000000000000e+00  -1.0653743982080323e-05 3.8554732828399821e-05 0.0000000000000000e+00  -1.3873745919132009e-05 5.2343819676483938e-05 0.0000000000000000e+00  -1.6939595407981018e-05 6.6902783930231647e-05 0.0000000000000000e+00  -1.9867620334395469e-05 8.2371608559095980e-05 0.0000000000000000e+00  -2.2675255145529191e-05 9.8856875922025264e-05 0.0000000000000000e+00  -2.5378820717824258e-05 1.1643236892535580e-04 0.0000000000000000e+00  -2.7992369091595814e-05 1.3514157429195215e-04 0.0000000000000000e+00  -3.0527308005026555e-05 1.5500100778423456e-04 0.0000000000000000e+00  -3.2992571101721963e-05 1.7600370086460001e-04 0.0000000000000000e+00  -3.5395089831213861e-05 1.9812231388494254e-04 0.0000000000000000e+00  -3.7740429480831041e-05 2.2131179901802088e-04 0.0000000000000000e+00  -4.0033585139135571e-05 2.4551187744053713e-04 0.0000000000000000e+00  -4.2279900388350608e-05 2.7064964578474960e-04 0.0000000000000000e+00  -4.4485925724816104e-05 2.9664240471637246e-04 0.0000000000000000e+00  -4.6660014207429799e-05 3.2340053323158551e-04 0.0000000000000000e+00  -4.8812586971199503e-05 3.5083032552124473e-04 0.0000000000000000e+00  -5.0956035051277403e-05 3.7883662879597906e-04 0.0000000000000000e+00  -5.3104231091430549e-05 4.0732513614004259e-04 0.0000000000000000e+00  -5.5271624570097612e-05 4.3620423461945195e-04 0.0000000000000000e+00  -3.6620477158342625e-06 1.2287627089384998e-05 0.0000000000000000e+00  0.0000000000000000e+00 0.0000000000000000e+00 0.0000000000000000e+00  -7.0851855667634552e-06 2.4730529995872990e-05 0.0000000000000000e+00  -1.0266591367392821e-05 3.7556282396055803e-05 0.0000000000000000e+00  -1.3222618453613023e-05 5.09787251