<?xml version="1.0"?>
<VTKFile type="UnstructuredGrid"  version="0.1"  >
<UnstructuredGrid>
<Piece  NumberOfPoints="629" NumberOfCells="1162">
<Points>
<DataArray  type="Float64"  NumberOfComponents="3"  format="ascii">0.7104347826086956 0 0  0.7269565217391304 0 0  0.7269565217391304 0.01666666666666667 0  0.7104347826086956 0.01666666666666667 0  0.7434782608695653 0 0  0.7434782608695653 0.01666666666666667 0  0.7599999999999999 0 0  0.7599999999999999 0.01666666666666667 0  0.7765217391304348 0 0  0.7765217391304348 0.01666666666666667 0  0.7930434782608695 0 0  0.7930434782608695 0.01666666666666667 0  0.8095652173913043 0 0  0.8095652173913043 0.01666666666666667 0  0.8260869565217391 0 0  0.8260869565217391 0.01666666666666667 0  0.8426086956521739 0 0  0.8426086956521739 0.01666666666666667 0  0.8591304347826086 0 0  0.8591304347826086 0.01666666666666667 0  0.8756521739130434 0 0  0.8756521739130434 0.01666666666666667 0  0.8921739130434783 0 0  0.8921739130434783 0.01666666666666667 0  0.908695652173913 0 0  0.908695652173913 0.01666666666666667 0  0.9252173913043478 0 0  0.9252173913043478 0.01666666666666667 0  0.9417391304347826 0 0  0.9417391304347826 0.01666666666666667 0  0.9582608695652173 0 0  0.9582608695652173 0.01666666666666667 0  0.9747826086956521 0 0  0.9747826086956521 0.01666666666666667 0  0.991304347826087 0 0  0.991304347826087 0.01666666666666667 0  1.007826086956522 0 0  1.007826086956522 0.01666666666666667 0  1.024347826086957 0 0  1.024347826086957 0.01666666666666667 0  0.7269565217391304 0.03333333333333333 0  0.7104347826086956 0.03333333333333333 0  0.7434782608695653 0.03333333333333333 0  0.7599999999999999 0.03333333333333333 0  0.7765217391304348 0.03333333333333333 0  0.7930434782608695 0.03333333333333333 0  0.8095652173913043 0.03333333333333333 0  0.8260869565217391 0.03333333333333333 0  0.8426086956521739 0.03333333333333333 0  0.8591304347826086 0.03333333333333333 0  0.8756521739130434 0.03333333333333333 0  0.8921739130434783 0.03333333333333333 0  0.908695652173913 0.03333333333333333 0  0.9252173913043478 0.03333333333333333 0  0.9417391304347826 0.03333333333333333 0  0.9582608695652173 0.03333333333333333 0  0.9747826086956521 0.03333333333333333 0  0.991304347826087 0.03333333333333333 0  1.007826086956522 0.03333333333333333 0  1.024347826086957 0.03333333333333333 0  1.040869565217391 0.03333333333333333 0  0.7269565217391304 0.05 0  0.7434782608695653 0.05 0  0.7599999999999999 0.05 0  0.7765217391304348 0.05 0  0.7930434782608695 0.05 0  0.8095652173913043 0.05 0  0.8260869565217391 0.05 0  0.8426086956521739 0.05 0  0.8591304347826086 0.05 0  0.8756521739130434 0.05 0  0.8921739130434783 0.05 0  0.908695652173913 0.05 0  0.9252173913043478 0.05 0  0.9417391304347826 0.05 0  0.9582608695652173 0.05 0  0.9747826086956521 0.05 0  0.991304347826087 0.05 0  1.007826086956522 0.05 0  1.024347826086957 0.05 0  1.040869565217391 0.05 0  1.057391304347826 0.05 0  0.7434782608695653 0.06666666666666667 0  0.7599999999999999 0.06666666666666667 0  0.7765217391304348 0.06666666666666667 0  0.7930434782608695 0.06666666666666667 0  0.8095652173913043 0.06666666666666667 0  0.8260869565217391 0.06666666666666667 0  0.8426086956521739 0.06666666666666667 0  0.8591304347826086 0.06666666666666667 0  0.8756521739130434 0.06666666666666667 0  0.8921739130434783 0.06666666666666667 0  0.908695652173913 0.06666666666666667 0  0.9252173913043478 0.06666666666666667 0  0.9417391304347826 0.06666666666666667 0  0.9582608695652173 0.06666666666666667 0  0.9747826086956521 0.06666666666666667 0  0.991304347826087 0.06666666666666667 0  1.007826086956522 0.06666666666666667 0  1.024347826086957 0.06666666666666667 0  1.040869565217391 0.06666666666666667 0  1.057391304347826 0.06666666666666667 0  1.073913043478261 0.06666666666666667 0  0.7599999999999999 0.08333333333333333 0  0.7765217391304348 0.08333333333333333 0  0.7930434782608695 0.08333333333333333 0  0.8095652173913043 0.08333333333333333 0  0.8260869565217391 0.08333333333333333 0  0.8426086956521739 0.08333333333333333 0  0.8591304347826086 0.08333333333333333 0  0.8756521739130434 0.08333333333333333 0  0.8921739130434783 0.08333333333333333 0  0.908695652173913 0.08333333333333333 0  0.9252173913043478 0.08333333333333333 0  0.9417391304347826 0.08333333333333333 0  0.9582608695652173 0.08333333333333333 0  0.9747826086956521 0.08333333333333333 0  0.991304347826087 0.08333333333333333 0  1.007826086956522 0.08333333333333333 0  1.024347826086957 0.08333333333333333 0  1.040869565217391 0.08333333333333333 0  1.057391304347826 0.08333333333333333 0  1.073913043478261 0.08333333333333333 0  1.090434782608696 0.08333333333333333 0  0.7765217391304348 0.1 0  0.7930434782608695 0.1 0  0.8095652173913043 0.1 0  0.8260869565217391 0.1 0  0.8426086956521739 0.1 0  0.8591304347826086 0.1 0  0.8756521739130434 0.1 0  0.8921739130434783 0.1 0  0.908695652173913 0.1 0  0.9252173913043478 0.1 0  0.9417391304347826 0.1 0  0.9582608695652173 0.1 0  0.9747826086956521 0.1 0  0.991304347826087 0.1 0  1.007826086956522 0.1 0  1.024347826086957 0.1 0  1.040869565217391 0.1 0  1.057391304347826 0.1 0  1.073913043478261 0.1 0  1.090434782608696 0.1 0  1.10695652173913 0.1 0  0.7930434782608695 0.1166666666666667 0  0.8095652173913043 0.1166666666666667 0  0.8260869565217391 0.1166666666666667 0  0.8426086956521739 0.1166666666666667 0  0.8591304347826086 0.1166666666666667 0  0.8756521739130434 0.1166666666666667 0  0.8921739130434783 0.1166666666666667 0  0.908695652173913 0.1166666666666667 0  0.9252173913043478 0.1166666666666667 0  0.9417391304347826 0.1166666666666667 0  0.9582608695652173 0.1166666666666667 0  0.9747826086956521 0.1166666666666667 0  0.991304347826087 0.1166666666666667 0  1.007826086956522 0.1166666666666667 0  1.024347826086957 0.1166666666666667 0  1.040869565217391 0.1166666666666667 0  1.057391304347826 0.1166666666666667 0  1.073913043478261 0.1166666666666667 0  1.090434782608696 0.1166666666666667 0  1.10695652173913 0.1166666666666667 0  1.123478260869565 0.1166666666666667 0  0.8095652173913043 0.1333333333333333 0  0.8260869565217391 0.1333333333333333 0  0.8426086956521739 0.1333333333333333 0  0.8591304347826086 0.1333333333333333 0  0.8756521739130434 0.1333333333333333 0  0.8921739130434783 0.1333333333333333 0  0.908695652173913 0.1333333333333333 0  0.9252173913043478 0.1333333333333333 0  0.9417391304347826 0.1333333333333333 0  0.9582608695652173 0.1333333333333333 0  0.9747826086956521 0.1333333333333333 0  0.991304347826087 0.1333333333333333 0  1.007826086956522 0.1333333333333333 0  1.024347826086957 0.1333333333333333 0  1.040869565217391 0.1333333333333333 0  1.057391304347826 0.1333333333333333 0  1.073913043478261 0.1333333333333333 0  1.090434782608696 0.1333333333333333 0  1.10695652173913 0.1333333333333333 0  1.123478260869565 0.1333333333333333 0  1.14 0.1333333333333333 0  0.8260869565217391 0.15 0  0.8426086956521739 0.15 0  0.8591304347826086 0.15 0  0.8756521739130434 0.15 0  0.8921739130434783 0.15 0  0.908695652173913 0.15 0  0.9252173913043478 0.15 0  0.9417391304347826 0.15 0  0.9582608695652173 0.15 0  0.9747826086956521 0.15 0  0.991304347826087 0.15 0  1.007826086956522 0.15 0  1.024347826086957 0.15 0  1.040869565217391 0.15 0  1.057391304347826 0.15 0  1.073913043478261 0.15 0  1.090434782608696 0.15 0  1.10695652173913 0.15 0  1.123478260869565 0.15 0  1.14 0.15 0  1.156521739130435 0.15 0  0.8426086956521739 0.1666666666666667 0  0.8591304347826086 0.1666666666666667 0  0.8756521739130434 0.1666666666666667 0  0.8921739130434783 0.1666666666666667 0  0.908695652173913 0.1666666666666667 0  0.9252173913043478 0.1666666666666667 0  0.9417391304347826 0.1666666666666667 0  0.9582608695652173 0.1666666666666667 0  0.9747826086956521 0.1666666666666667 0  0.991304347826087 0.1666666666666667 0  1.007826086956522 0.1666666666666667 0  1.024347826086957 0.1666666666666667 0  1.040869565217391 0.1666666666666667 0  1.057391304347826 0.1666666666666667 0  1.073913043478261 0.1666666666666667 0  1.090434782608696 0.1666666666666667 0  1.10695652173913 0.1666666666666667 0  1.123478260869565 0.1666666666666667 0  1.14 0.1666666666666667 0  1.156521739130435 0.1666666666666667 0  1.17304347826087 0.1666666666666667 0  0.8591304347826086 0.1833333333333333 0  0.8756521739130434 0.1833333333333333 0  0.8921739130434783 0.1833333333333333 0  0.908695652173913 0.1833333333333333 0  0.9252173913043478 0.1833333333333333 0  0.9417391304347826 0.1833333333333333 0  0.9582608695652173 0.1833333333333333 0  0.9747826086956521 0.1833333333333333 0  0.991304347826087 0.1833333333333333 0  1.007826086956522 0.1833333333333333 0  1.024347826086957 0.1833333333333333 0  1.040869565217391 0.1833333333333333 0  1.057391304347826 0.1833333333333333 0  1.073913043478261 0.1833333333333333 0  1.090434782608696 0.1833333333333333 0  1.10695652173913 0.1833333333333333 0  1.123478260869565 0.1833333333333333 0  1.14 0.1833333333333333 0  1.156521739130435 0.1833333333333333 0  1.17304347826087 0.1833333333333333 0  1.189565217391304 0.1833333333333333 0  0.8756521739130434 0.2 0  0.8921739130434783 0.2 0  0.908695652173913 0.2 0  0.9252173913043478 0.2 0  0.9417391304347826 0.2 0  0.9582608695652173 0.2 0  0.9747826086956521 0.2 0  0.991304347826087 0.2 0  1.007826086956522 0.2 0  1.024347826086957 0.2 0  1.040869565217391 0.2 0  1.057391304347826 0.2 0  1.073913043478261 0.2 0  1.090434782608696 0.2 0  1.10695652173913 0.2 0  1.123478260869565 0.2 0  1.14 0.2 0  1.156521739130435 0.2 0  1.17304347826087 0.2 0  1.189565217391304 0.2 0  1.206086956521739 0.2 0  0.8921739130434783 0.2166666666666667 0  0.908695652173913 0.2166666666666667 0  0.9252173913043478 0.2166666666666667 0  0.9417391304347826 0.2166666666666667 0  0.9582608695652173 0.2166666666666667 0  0.9747826086956521 0.2166666666666667 0  0.991304347826087 0.2166666666666667 0  1.007826086956522 0.2166666666666667 0  1.02434782608
[...]
<PointData  Vectors="Displacement"> 
<DataArray  type="Float64"  Name="Displacement"  NumberOfComponents="3" format="ascii">1.0025034458632883e-04 8.5259326268096835e-04 0.0000000000000000e+00  1.0209586854477549e-04 8.7032193488795814e-04 0.0000000000000000e+00  8.4218466327925099e-05 8.6970131761571017e-04 0.0000000000000000e+00  8.2314558556128702e-05 8.5197210862839837e-04 0.0000000000000000e+00  1.0394891178934787e-04 8.8801071681042889e-04 0.0000000000000000e+00  8.6106689257306509e-05 8.8739201203031997e-04 0.0000000000000000e+00  1.0580761615849140e-04 9.0567605313825715e-04 0.0000000000000000e+00  8.7979973981197214e-05 9.0505884965001238e-04 0.0000000000000000e+00  1.0767204067698890e-04 9.2333825878059374e-04 0.0000000000000000e+00  8.9838531506191465e-05 9.2272129285494195e-04 0.0000000000000000e+00  1.0954121700086926e-04 9.4101951461511785e-04 0.0000000000000000e+00  9.1684664124691234e-05 9.4040209528590288e-04 0.0000000000000000e+00  1.1141247496132779e-04 9.5873476143825559e-04 0.0000000000000000e+00  9.3523246521462592e-05 9.5811723430509158e-04 0.0000000000000000e+00  1.1328298654061284e-04 9.7648835368789068e-04 0.0000000000000000e+00  9.5358528501174333e-05 9.7587120353703012e-04 0.0000000000000000e+00  1.1515095261070181e-04 9.9427837744302814e-04 0.0000000000000000e+00  9.7192747232147835e-05 9.9366184971602135e-04 0.0000000000000000e+00  1.1701556920146578e-04 1.0121009158450141e-03 0.0000000000000000e+00  9.9026676605575858e-05 1.0114852032692839e-03 0.0000000000000000e+00  1.1887666184865969e-04 1.0299517348282073e-03 0.0000000000000000e+00  1.0086021430271817e-04 1.0293371249863897e-03 0.0000000000000000e+00  1.2073458074507219e-04 1.0478272509458495e-03 0.0000000000000000e+00  1.0269243529308132e-04 1.0472140453110261e-03 0.0000000000000000e+00  1.2259025366101966e-04 1.0657261238786551e-03 0.0000000000000000e+00  1.0452159445927095e-04 1.0651143734238258e-03 0.0000000000000000e+00  1.2444497223229768e-04 1.0836510498068580e-03 0.0000000000000000e+00  1.0634567884683368e-04 1.0830403853417290e-03 0.0000000000000000e+00  1.2629970488767001e-04 1.1016088099344240e-03 0.0000000000000000e+00  1.0816356011971913e-04 1.1009986935517368e-03 0.0000000000000000e+00  1.2815450404584622e-04 1.1196074428490061e-03 0.0000000000000000e+00  1.0997574883417193e-04 1.1189974700494343e-03 0.0000000000000000e+00  1.3000850587970134e-04 1.1376527774721865e-03 0.0000000000000000e+00  1.1178411268203422e-04 1.1370426996747817e-03 0.0000000000000000e+00  1.3186027758919550e-04 1.1557464977192248e-03 0.0000000000000000e+00  1.1359120605624567e-04 1.1551361685658342e-03 0.0000000000000000e+00  1.3370817807127606e-04 1.1738855539003929e-03 0.0000000000000000e+00  1.1539975511208820e-04 1.1732748725813034e-03 0.0000000000000000e+00  1.3555058854682658e-04 1.1920623533882547e-03 0.0000000000000000e+00  1.1721236792957991e-04 1.1914512261049785e-03 0.0000000000000000e+00  6.6377036751466065e-05 8.6906291765073067e-04 0.0000000000000000e+00  6.4453550042084933e-05 8.5133229172777096e-04 0.0000000000000000e+00  6.8299037949061162e-05 8.8676473461943837e-04 0.0000000000000000e+00  7.0186948221136127e-05 9.0444045275937638e-04 0.0000000000000000e+00  7.2038949633764383e-05 9.2211150221061574e-04 0.0000000000000000e+00  7.3850897553272339e-05 9.3979587790781794e-04 0.0000000000000000e+00  7.5644228288429240e-05 9.5751161898600403e-04 0.0000000000000000e+00  7.7437206982280881e-05 9.7526551165930196e-04 0.0000000000000000e+00  7.9235217125170283e-05 9.9305587404173272e-04 0.0000000000000000e+00  8.1038191930150991e-05 1.0108788086369803e-03 0.0000000000000000e+00  8.2845601185704379e-05 1.0287306961111896e-03 0.0000000000000000e+00  8.4655579156181870e-05 1.0466086763241387e-03 0.0000000000000000e+00  8.6463281639815462e-05 1.0645116067711181e-03 0.0000000000000000e+00  8.8260991856350197e-05 1.0824412263693028e-03 0.0000000000000000e+00  9.0042380662176100e-05 1.1004026799876152e-03 0.0000000000000000e+00  9.1808244865446034e-05 1.1184032323522369e-03 0.0000000000000000e+00  9.3565094095397181e-05 1.1364486854039046e-03 0.0000000000000000e+00  9.5320905888373011e-05 1.1545407458579287e-03 0.0000000000000000e+00  9.7083716674437899e-05 1.1726765119520668e-03 0.0000000000000000e+00  9.8860683090604099e-05 1.1908484946164209e-03 0.0000000000000000e+00  1.0065814369601038e-04 1.2090450258162996e-03 0.0000000000000000e+00  4.9143382161186743e-05 8.6766848673387395e-04 0.0000000000000000e+00  5.0444790603630787e-05 8.8612205993259614e-04 0.0000000000000000e+00  5.2356577093479745e-05 9.0381149853037152e-04 0.0000000000000000e+00  5.4213123568204366e-05 9.2149472952414544e-04 0.0000000000000000e+00  5.6011566576353369e-05 9.3919252536370029e-04 0.0000000000000000e+00  5.7773244091285565e-05 9.5691449104280582e-04 0.0000000000000000e+00  5.9527743346341344e-05 9.7466850711770497e-04 0.0000000000000000e+00  6.1288976336263342e-05 9.9245719570354124e-04 0.0000000000000000e+00  6.3059105427743393e-05 1.0102784788514124e-03 0.0000000000000000e+00  6.4837318493152901e-05 1.0281288923581495e-03 0.0000000000000000e+00  6.6620981700859719e-05 1.0460060219115068e-03 0.0000000000000000e+00  6.8403514282956460e-05 1.0639097184285964e-03 0.0000000000000000e+00  7.0174291332219141e-05 1.0818426774296774e-03 0.0000000000000000e+00  7.1923553242688541e-05 1.0998095786361041e-03 0.0000000000000000e+00  7.3649965274445321e-05 1.1178153105262506e-03 0.0000000000000000e+00  7.5361513385010826e-05 1.1358637722140511e-03 0.0000000000000000e+00  7.7070305238363928e-05 1.1539561824679954e-03 0.0000000000000000e+00  7.8789029533589991e-05 1.1720896205903151e-03 0.0000000000000000e+00  8.0529474022876968e-05 1.1902568908116883e-03 0.0000000000000000e+00  8.2302193062828364e-05 1.2084465973990347e-03 0.0000000000000000e+00  8.4117322591867262e-05 1.2266434680773763e-03 0.0000000000000000e+00  3.9109920749233891e-05 8.7651514836601632e-04 0.0000000000000000e+00  4.1882101729883106e-05 8.9421662511647484e-04 0.0000000000000000e+00  4.4563839494311123e-05 9.1189980048574277e-04 0.0000000000000000e+00  4.7176081021179217e-05 9.2962735525116901e-04 0.0000000000000000e+00  4.9725575534002064e-05 9.4741762063106779e-04 0.0000000000000000e+00  5.2217809954911854e-05 9.6527647485379153e-04 0.0000000000000000e+00  5.4657497828908138e-05 9.8320528129038163e-04 0.0000000000000000e+00  5.7047431157689390e-05 1.0012001675290712e-03 0.0000000000000000e+00  5.9389091197731858e-05 1.0192544989918435e-03 0.0000000000000000e+00  6.1683157356805536e-05 1.0373625516411282e-03 0.0000000000000000e+00  6.3929412594577269e-05 1.0555213158557179e-03 0.0000000000000000e+00  6.6127059373418182e-05 1.0737303238913887e-03 0.0000000000000000e+00  6.8276123808153367e-05 1.0919900190831976e-03 0.0000000000000000e+00  7.0379225075085141e-05 1.1103001941691294e-03 0.0000000000000000e+00  7.2442192740534248e-05 1.1286599989419755e-03 0.0000000000000000e+00  7.4473172143203585e-05 1.1470676077814663e-03 0.0000000000000000e+00  7.6481158084445126e-05 1.1655188444727393e-03 0.0000000000000000e+00  7.8474823511863161e-05 1.1840063513193376e-03 0.0000000000000000e+00  8.0461826152956648e-05 1.2025193209852386e-03 0.0000000000000000e+00  8.2448279907958107e-05 1.2210437786927778e-03 0.0000000000000000e+00  8.4437968429925124e-05 1.2395640597210073e-03 0.0000000000000000e+00  3.1672556619185549e-05 8.8409304318512601e-04 0.0000000000000000e+00  3.5088774464716038e-05 9.0177397497732373e-04 0.0000000000000000e+00  3.8413516335329337e-05 9.1953842741684889e-04 0.0000000000000000e+00  4.1646989682144133e-05 9.3741647178632935e-04 0.0000000000000000e+00  4.4785135182962235e-05 9.5541162662008100e-04 0.0000000000000000e+00  4.7825629165110368e-05 9.7351760481270125e-04 0.0000000000000000e+00  5.0769113364998000e-05 9.9172346476684428e-04 0.0000000000000000e+00  5.3618302493748753e-05 1.0100169617840576e-03 0.0000000000000000e+00  5.6376986660364756e-05 1.0283876522896795e-03 0.0000000000000000e+00  5.9049409454606346e-05 1.0468284357676156e-03 0.0000000000000000e+00  6.1640026986127159e-05 1.0653352465618104e-03 0.0000000000000000e+00  6.4153608690185068e-05 1.0839055408116416e-03 0.0000000000000000e+00  6.6595421637499256e-05 1.1025368651067301e-03 0.0000000000000000e+00  6.8971271638260131e-05 1.1212264139316228e-03 0.0000000000000000e+00  7.1287398512052456e-05 1.1399706441336528e-03 0.0000000000000000e+00  7.3550139305064024e-05 1.1587643514199509e-03 0.0000000000000000e+00  7.5765407180480539e-05 1.1775998799464047e-03 0.0000000000000000e+00  7.7938199655675305e-05 1.1964667796647934e-03 0.0000000000000000e+00  8.0072154452913040e-05 1.2153520503773263e-03 0.0000000000000000e+00  8.2169165526265768e-05 1.2342411348225575e-03 0.0000000000000000e+00  8.4229253220143078e-05 1.2531189796635579e-03 0.0000000000000000e+00  2.5853500938120626e-05 8.9116977519500219e-04 0.0000000000000000e+00  2.9785084975064332e-05 9.0897450659601481e-04 0.0000000000000000e+00  3.3606736219747231e-05 9.2695858621477309e-04 0.0000000000000000e+00  3.7303576441989504e-05 9.4511689249088227e-04 0.0000000000000000e+00  4.0867170673288856e-05 9.6343165831137530e-04 0.0000000000000000e+00  4.4295722159746216e-05 9.8188109711393255e-04 0.0000000000000000e+00  4.7592470943371900e-05 1.0004445333683515e-03 0.0000000000000000e+00  5.0763603318507730e-05 1.0191053673960831e-03 0.0000000000000000e+00  5.3816597590024321e-05 1.0378520524567823e-03 0.0000000000000000e+00  5.6759167260501412e-05 1.0566774034713458e-03 0.0000000000000000e+00  5.9598657403843068e-05 1.0755769521130834e-03 0.0000000000000000e+00  6.2341707427093269e-05 1.0945473156006354e-03 0.0000000000000000e+00  6.4994114900914461e-05 1.1135851672683236e-03 0.0000000000000000e+00  6.7560899143453455e-05 1.1326864542164463e-03 0.0000000000000000e+00  7.0046396220110893e-05 1.1518455622280157e-03 0.0000000000000000e+00  7.2454230945610083e-05 1.1710546611166184e-03 0.0000000000000000e+00  7.4787193666509100e-05 1.1903034176705140e-03 0.0000000000000000e+00  7.7047084187010969e-05 1.2095791881211978e-03 0.0000000000000000e+00  7.9234608114887636e-05 1.2288676818135451e-03 0.0000000000000000e+00  8.1349439518332587e-05 1.2481536725819880e-03 0.0000000000000000e+00  8.3390428401517561e-05 1.2674213244085000e-03 0.0000000000000000e+00  2.1328407245087841e-05 8.9797813382105180e-04 0.0000000000000000e+00  2.5650232315519422e-05 9.1608391936447522e-04 0.0000000000000000e+00  2.9824395938096987e-05 9.3443120909834010e-04 0.0000000000000000e+00  3.3835839765851899e-05 9.5298470327771171e-04 0.0000000000000000e+00  3.7680713948013141e-05 9.7170784259988248e-04 0.0000000000000000e+00  4.1363028362961384e-05 9.9056901738202459e-04 0.0000000000000000e+00  4.4891225322963007e-05 1.0095443779592820e-03 0.0000000000000000e+00  4.8275436492277687e-05 1.0286180116755330e-03 0.0000000000000000e+00  5.1525653358059860e-05 1.0477804445547859e-03 0.0000000000000000e+00  5.4650672012226133e-05 1.0670264021063725e-03 0.0000000000000000e+00  5.7657588453984082e-05 1.0863526467986711e-03 0.0000000000000000e+00  6.0551702578017706e-05 1.1057563298520327e-03 0.0000000000000000e+00  6.3336733255506679e-05 1.1252337639533570e-03 0.0000000000000000e+00  6.6015167418918271e-05 1.1447794806954327e-03 0.0000000000000000e+00  6.8588569743072044e-05 1.1643856291624259e-03 0.0000000000000000e+00  7.1057791577172470e-05 1.1840417657358869e-03 0.0000000000000000e+00  7.3423094428958825e-05 1.2037350507350666e-03 0.0000000000000000e+00  7.5684248563894987e-05 1.2234507732265473e-03 0.0000000000000000e+00  7.7840667978936243e-05 1.2431729338050737e-03 0.0000000000000000e+00  7.9891559597626156e-05 1.2628846470897992e-03 0.0000000000000000e+00  8.1836012382496159e-05 1.2825684148417716e-03 0.0000000000000000e+00  1.7802544807472468e-05 9.0482399634426959e-04 0.0000000000000000e+00  2.2379670030141108e-05 9.2338888907944042e-04 0.0000000000000000e+00  2.6767477667778381e-05 9.4221266367937534e-04 0.0000000000000000e+00  3.0961278496830358e-05 9.6123941556967591e-04 0.0000000000000000e+00  3.4966994393565188e-05 9.8042437751404057e-04 0.0000000000000000e+00  3.8795929140742634e-05 9.9973596103664834e-04 0.0000000000000000e+00  4.2460867171253286e-05 1.0191545480412814e-03 0.0000000000000000e+00  4.5973609115650837e-05 1.0386696262406707e-03 0.0000000000000000e+00  4.9343682950690329e-05 1.0582764754996055e-03 0.0000000000000000e+00  5.2577885217988777e-05 1.0779731793507808e-03 0.0000000000000000e+00  5.5680380412616124e-05 1.0977583050660112e-03 0.0000000000000000e+00  5.8653156619061628e-05 1.1176292331443757e-03 0.0000000000000000e+00  6.1496637140118031e-05 1.1375810460068755e-03 0.0000000000000000e+00  6.4210275450189117e-05 1.1576059380314482e-03 0.0000000000000000e+00  6.6793039497762858e-05 1.1776930945506872e-03 0.0000000000000000e+00  6.9243763460671867e-05 1.1978289643459765e-03 0.0000000000000000e+00  7.1561393448745753e-05 1.2179978004827167e-03 0.0000000000000000e+00  7.3745159731517610e-05 1.2381822713749854e-03 0.0000000000000000e+00  7.5794667562195789e-05 1.2583639835305966e-03 0.0000000000000000e+00  7.7709877355021774e-05 1.2785238950053833e-03 0.0000000000000000e+00  7.9490984169901363e-05 1.2986426247819285e-03 0.0000000000000000e+00  1.4984968492386309e-05 9.1201938480960445e-04 0.0000000000000000e+00  1.9682154368901876e-05 9.3114996490372185e-04 0.0000000000000000e+00  2.4159855585316652e-05 9.5051197386593822e-04 0.0000000000000000e+00  2.8428064649899955e-05 9.7004583983260472e-04 0.0000000000000000e+00  3.2502240324265887e-05 9.8971269088223078e-04 0.0000000000000000e+00  3.6398243082717779e-05 1.0094907508526817e-03 0.0000000000000000e+00  4.0129456435125564e-05 1.0293703701766015e-03 0.0000000000000000e+00  4.3705535049483278e-05 1.0493491605400322e-03 0.0000000000000000e+00  4.7132217506134267e-05 1.0694279409689423e-03 0.0000000000000000e+00  5.0411782625378148e-05 1.0896077035459069e-03 0.0000000000000000e+00  5.3543859113711424e-05 1.1098875255825514e-03 0.0000000000000000e+00  5.6526360485016560e-05 1.1302633067409452e-03 0.0000000000000000e+00  5.9356368608274491e-05 1.1507272161999024e-03 0.0000000000000000e+00  6.2030860543920682e-05 1.1712677103833226e-03 0.0000000000000000e+00  6.4547241741820847e-05 1.1918699656699593e-03 0.0000000000000000e+00  6.6903695974933331e-05 1.2125165591704060e-03 0.0000000000000000e+00  6.9099374878254873e-05 1.2331882235435457e-03 0.0000000000000000e+00  7.1134432823677493e-05 1.2538645452082539e-03 0.0000000000000000e+00  7.3009903462851208e-05 1.2745245476003142e-03 0.0000000000000000e+00  7.4727432992289462e-05 1.2951471147727496e-03 0.0000000000000000e+00  7.6288906545392735e-05 1.3157111797415591e-03 0.0000000000000000e+00  1.2585799748222325e-05 9.1983018934943431e-04 0.0000000000000000e+00  1.7285348534816491e-05 9.3956230506474854e-04 0.0000000000000000e+00  2.1757529612120630e-05 9.5946948566347614e-04 0.0000000000000000e+00  2.6023815282644328e-05 9.7950755250759600e-04 0.0000000000000000e+00  3.0103764996054519e-05 9.9965541059613078e-04 0.0000000000000000e+00  3.4012125842257620e-05 1.0199070776030915e-03 0.0000000000000000e+00  3.7757992847420832e-05 1.0402648287685618e-03 0.0000000000000000e+00  4.1345169610235990e-05 1.0607339311367496e-03 0.0000000000000000e+00  4.4773162871508523e-05 1.0813189126147849e-03 0.0000000000000000e+00  4.8038466609950138e-05 1.1020211259387960e-03 0.0000000000000000e+00  5.1135891795707184e-05 1.1228374121222901e-03 0.0000000000000000e+00  5.4059760022679766e-05 1.1437596726896018e-03 0.0000000000000000e+00  5.6804854722681765e-05 1.1647751218879653e-03 0.0000000000000000e+00  5.9367097452038954e-05 1.1858669824481324e-03 0.0000000000000000e+00  6.1743965059942124e-05 1.2070154147597451e-03 0.0000000000000000e+00  6.3934677199120119e-05 1.2281985079263353e-03 0.0000000000000000e+00  6.5940173136388089e-05 1.2493932123348753e-03 0.0000000000000000e+00  6.7762887219726214e-05 1.2705761387963176e-03 0.0000000000000000e+00  6.9406336801654118e-05 1.2917241554649642e-03 0.0000000000000000e+00  7.0874546517961731e-05 1.3128146937594076e-03 0.0000000000000000e+00  7.2171345156815588e-05 1.3338256611211126e-03 0.0000000000000000e+00  1.0334057370524485e-05 9.2842858567936852e-04 0.0000000000000000e+00  1.4955184752332289e-05 9.4873215927097963e-04 0.0000000000000000e+00  1.9364388487838046e-05 9.6915322375212332e-04 0.0000000000000000e+00  2.3585432337818627e-05 9.8967596771351216e-04 0.0000000000000000e+00  2.7633962077358773e-05 1.0103019966507675e-03 0.0000000000000000e+00  3.1517585362418866e-05 1.0310411994410766e-03 0.0000000000000000e+00  3.5237098256998561e-05 1.0519052928944428e-03 0.0000000000000000e+00  3.8788199331031826e-05 1.0729035240150573e-03 0.0000000000000000e+00  4.2163359600589475e-05 1.0940400158151796e-03 0.0000000000000000e+00  4.5353612800584606e-05 1.1153124927760121e-03 0.0000000000000000e+00  4.8350078441686160e-05 1.1367121264542806e-03 0.0000000000000000e+00  5.1145117591249156e-05 1.1582241655056947e-03 0.0000000000000000e+00  5.3733112418527119e-05 1.1798290182570841e-03 0.0000000000000000e+00  5.6110912505791526e-05 1.2015035319428106e-03 0.0000000000000000e+00  5.8277998602936830e-05 1.2232222971374452e-03 0.0000000000000000e+00  6.0236397298815168e-05 1.2449588700483103e-03 0.0000000000000000e+00  6.1990361490682353e-05 1.2666868389423780e-03 0.0000000000000000e+00  6.3545822988427613e-05 1.2883806588885273e-03 0.0000000000000000e+00  6.4909623659855243e-05 1.3100161555484281e-03 0.0000000000000000e+00  6.6088540384850672e-05 1.3315705726467816e-03 0.0000000000000000e+00  6.7088144951865647e-05 1.3530220159299056e-03 0.0000000000000000e+00  8.0104304348022686e-06 9.3787141280693269e-04 0.0000000000000000e+00  1.2519235677014410e-05 9.5868127211190643e-04 0.0000000000000000e+00  1.6844695766389472e-05 9.7957737211519665e-04 0.0000000000000000e+00  2.1002394904227557e-05 1.0005740334676017e-03 0.0000000000000000e+00  2.4997181255778990e-05 1.0216922727304394e-03 0.0000000000000000e+00  2.8825561826251388e-05 1.0429524579611475e-03 0.0000000000000000e+00  3.2478270903121811e-05 1.0643697308122793e-03 0.0000000000000000e+00  3.5942808706758578e-05 1.0859513210760170e-03 0.0000000000000000e+00  3.9205745113369606e-05 1.1076955239807192e-03 0.0000000000000000e+00  4.2254579300829921e-05 1.1295920336060309e-03 0.0000000000000000e+00  4.5079065122812768e-05 1.1516231457714943e-03 0.0000000000000000e+00  4.7672040874750464e-05 1.1737653711486437e-03 0.0000000000000000e+00  5.0029858696558315e-05 1.1959911585465695e-03 0.0000000000000000e+00  5.2152499594302287e-05 1.2182705723874567e-03 0.0000000000000000e+00  5.4043423485740071e-05 1.2405728481166914e-03 0.0000000000000000e+00  5.5709168983395973e-05 1.2628677727368712e-03 0.0000000000000000e+00  5.7158695640207273e-05 1.2851268225754931e-03 0.0000000000000000e+00  5.8402451555395622e-05 1.3073239551992010e-03 0.0000000000000000e+00  5.9451150944937251e-05 1.3294359090819739e-03 0.0000000000000000e+00  6.0314264764753537e-05 1.3514418136244188e-03 0.0000000000000000e+00  6.0998269093365864e-05 1.3733218682166479e-03 0.0000000000000000e+00  5.4776654275724665e-06 9.4812099721795621e-04 0.0000000000000000e+00  9.8791966866040491e-06 9.6938072679756738e-04 0.0000000000000000e+00  1.4122595530545335e-05 9.9073748544994023e-04 0.0000000000000000e+00  1.8208377145839470e-05 1.0122272773256189e-03 0.0000000000000000e+00  2.2127370228858987e-05 1.0338813512601561e-03 0.0000000000000000e+00  2.5864166058618355e-05 1.0557218012466631e-03 0.0000000000000000e+00  2.9400373083272666e-05 1.0777590412652063e-03 0.0000000000000000e+00  3.2717484570041169e-05 1.0999912691666087e-03 0.0000000000000000e+00  3.5799069206702557e-05 1.1224055876943697e-03 0.0000000000000000e+00  3.8632205089088364e-05 1.1449800382748400e-03 0.0000000000000000e+00  4.1208282556883811e-05 1.1676859035770685e-03 0.0000000000000000e+00  4.3523357234091060e-05 1.1904899506627084e-03 0.0000000000000000e+00  4.5578188319583929e-05 1.2133565133353350e-03 0.0000000000000000e+