<?xml version="1.0"?>
<VTKFile type="UnstructuredGrid"  version="0.1"  >
<UnstructuredGrid>
<Piece  NumberOfPoints="640" NumberOfCells="1181">
<Points>
<DataArray  type="Float64"  NumberOfComponents="3"  format="ascii">2.973913043478261 0 0  2.990434782608696 0 0  2.990434782608696 0.01666666666666667 0  2.973913043478261 0.01666666666666667 0  3.006956521739131 0 0  3.006956521739131 0.01666666666666667 0  3.023478260869565 0 0  3.023478260869565 0.01666666666666667 0  3.04 0 0  3.04 0.01666666666666667 0  3.056521739130435 0 0  3.056521739130435 0.01666666666666667 0  3.073043478260869 0 0  3.073043478260869 0.01666666666666667 0  3.089565217391304 0 0  3.089565217391304 0.01666666666666667 0  3.106086956521739 0 0  3.106086956521739 0.01666666666666667 0  3.122608695652174 0 0  3.122608695652174 0.01666666666666667 0  3.139130434782609 0 0  3.139130434782609 0.01666666666666667 0  3.155652173913043 0 0  3.155652173913043 0.01666666666666667 0  3.172173913043478 0 0  3.172173913043478 0.01666666666666667 0  3.188695652173913 0 0  3.188695652173913 0.01666666666666667 0  3.205217391304347 0 0  3.205217391304347 0.01666666666666667 0  3.221739130434782 0 0  3.221739130434782 0.01666666666666667 0  3.238260869565217 0 0  3.238260869565217 0.01666666666666667 0  2.990434782608696 0.03333333333333333 0  2.973913043478261 0.03333333333333333 0  3.006956521739131 0.03333333333333333 0  3.023478260869565 0.03333333333333333 0  3.04 0.03333333333333333 0  3.056521739130435 0.03333333333333333 0  3.073043478260869 0.03333333333333333 0  3.089565217391304 0.03333333333333333 0  3.106086956521739 0.03333333333333333 0  3.122608695652174 0.03333333333333333 0  3.139130434782609 0.03333333333333333 0  3.155652173913043 0.03333333333333333 0  3.172173913043478 0.03333333333333333 0  3.188695652173913 0.03333333333333333 0  3.205217391304347 0.03333333333333333 0  3.221739130434782 0.03333333333333333 0  3.238260869565217 0.03333333333333333 0  3.254782608695652 0.03333333333333333 0  2.990434782608696 0.05 0  3.006956521739131 0.05 0  3.023478260869565 0.05 0  3.04 0.05 0  3.056521739130435 0.05 0  3.073043478260869 0.05 0  3.089565217391304 0.05 0  3.106086956521739 0.05 0  3.122608695652174 0.05 0  3.139130434782609 0.05 0  3.155652173913043 0.05 0  3.172173913043478 0.05 0  3.188695652173913 0.05 0  3.205217391304347 0.05 0  3.221739130434782 0.05 0  3.238260869565217 0.05 0  3.254782608695652 0.05 0  3.271304347826087 0.05 0  3.006956521739131 0.06666666666666667 0  2.990434782608696 0.06666666666666667 0  3.023478260869565 0.06666666666666667 0  3.04 0.06666666666666667 0  3.056521739130435 0.06666666666666667 0  3.073043478260869 0.06666666666666667 0  3.089565217391304 0.06666666666666667 0  3.106086956521739 0.06666666666666667 0  3.122608695652174 0.06666666666666667 0  3.139130434782609 0.06666666666666667 0  3.155652173913043 0.06666666666666667 0  3.172173913043478 0.06666666666666667 0  3.188695652173913 0.06666666666666667 0  3.205217391304347 0.06666666666666667 0  3.221739130434782 0.06666666666666667 0  3.238260869565217 0.06666666666666667 0  3.254782608695652 0.06666666666666667 0  3.271304347826087 0.06666666666666667 0  3.287826086956521 0.06666666666666667 0  3.006956521739131 0.08333333333333333 0  3.023478260869565 0.08333333333333333 0  3.04 0.08333333333333333 0  3.056521739130435 0.08333333333333333 0  3.073043478260869 0.08333333333333333 0  3.089565217391304 0.08333333333333333 0  3.106086956521739 0.08333333333333333 0  3.122608695652174 0.08333333333333333 0  3.139130434782609 0.08333333333333333 0  3.155652173913043 0.08333333333333333 0  3.172173913043478 0.08333333333333333 0  3.188695652173913 0.08333333333333333 0  3.205217391304347 0.08333333333333333 0  3.221739130434782 0.08333333333333333 0  3.238260869565217 0.08333333333333333 0  3.254782608695652 0.08333333333333333 0  3.271304347826087 0.08333333333333333 0  3.287826086956521 0.08333333333333333 0  3.304347826086957 0.08333333333333333 0  3.023478260869565 0.1 0  3.006956521739131 0.1 0  3.04 0.1 0  3.056521739130435 0.1 0  3.073043478260869 0.1 0  3.089565217391304 0.1 0  3.106086956521739 0.1 0  3.122608695652174 0.1 0  3.139130434782609 0.1 0  3.155652173913043 0.1 0  3.172173913043478 0.1 0  3.188695652173913 0.1 0  3.205217391304347 0.1 0  3.221739130434782 0.1 0  3.238260869565217 0.1 0  3.254782608695652 0.1 0  3.271304347826087 0.1 0  3.287826086956521 0.1 0  3.304347826086957 0.1 0  3.320869565217391 0.1 0  3.023478260869565 0.1166666666666667 0  3.04 0.1166666666666667 0  3.056521739130435 0.1166666666666667 0  3.073043478260869 0.1166666666666667 0  3.089565217391304 0.1166666666666667 0  3.106086956521739 0.1166666666666667 0  3.122608695652174 0.1166666666666667 0  3.139130434782609 0.1166666666666667 0  3.155652173913043 0.1166666666666667 0  3.172173913043478 0.1166666666666667 0  3.188695652173913 0.1166666666666667 0  3.205217391304347 0.1166666666666667 0  3.221739130434782 0.1166666666666667 0  3.238260869565217 0.1166666666666667 0  3.254782608695652 0.1166666666666667 0  3.271304347826087 0.1166666666666667 0  3.287826086956521 0.1166666666666667 0  3.304347826086957 0.1166666666666667 0  3.320869565217391 0.1166666666666667 0  3.337391304347826 0.1166666666666667 0  3.04 0.1333333333333333 0  3.023478260869565 0.1333333333333333 0  3.056521739130435 0.1333333333333333 0  3.073043478260869 0.1333333333333333 0  3.089565217391304 0.1333333333333333 0  3.106086956521739 0.1333333333333333 0  3.122608695652174 0.1333333333333333 0  3.139130434782609 0.1333333333333333 0  3.155652173913043 0.1333333333333333 0  3.172173913043478 0.1333333333333333 0  3.188695652173913 0.1333333333333333 0  3.205217391304347 0.1333333333333333 0  3.221739130434782 0.1333333333333333 0  3.238260869565217 0.1333333333333333 0  3.254782608695652 0.1333333333333333 0  3.271304347826087 0.1333333333333333 0  3.287826086956521 0.1333333333333333 0  3.304347826086957 0.1333333333333333 0  3.320869565217391 0.1333333333333333 0  3.337391304347826 0.1333333333333333 0  3.353913043478261 0.1333333333333333 0  3.04 0.15 0  3.056521739130435 0.15 0  3.073043478260869 0.15 0  3.089565217391304 0.15 0  3.106086956521739 0.15 0  3.122608695652174 0.15 0  3.139130434782609 0.15 0  3.155652173913043 0.15 0  3.172173913043478 0.15 0  3.188695652173913 0.15 0  3.205217391304347 0.15 0  3.221739130434782 0.15 0  3.238260869565217 0.15 0  3.254782608695652 0.15 0  3.271304347826087 0.15 0  3.287826086956521 0.15 0  3.304347826086957 0.15 0  3.320869565217391 0.15 0  3.337391304347826 0.15 0  3.353913043478261 0.15 0  3.370434782608696 0.15 0  3.056521739130435 0.1666666666666667 0  3.073043478260869 0.1666666666666667 0  3.089565217391304 0.1666666666666667 0  3.106086956521739 0.1666666666666667 0  3.122608695652174 0.1666666666666667 0  3.139130434782609 0.1666666666666667 0  3.155652173913043 0.1666666666666667 0  3.172173913043478 0.1666666666666667 0  3.188695652173913 0.1666666666666667 0  3.205217391304347 0.1666666666666667 0  3.221739130434782 0.1666666666666667 0  3.238260869565217 0.1666666666666667 0  3.254782608695652 0.1666666666666667 0  3.271304347826087 0.1666666666666667 0  3.287826086956521 0.1666666666666667 0  3.304347826086957 0.1666666666666667 0  3.320869565217391 0.1666666666666667 0  3.337391304347826 0.1666666666666667 0  3.353913043478261 0.1666666666666667 0  3.370434782608696 0.1666666666666667 0  3.386956521739131 0.1666666666666667 0  3.073043478260869 0.1833333333333333 0  3.089565217391304 0.1833333333333333 0  3.106086956521739 0.1833333333333333 0  3.122608695652174 0.1833333333333333 0  3.139130434782609 0.1833333333333333 0  3.155652173913043 0.1833333333333333 0  3.172173913043478 0.1833333333333333 0  3.188695652173913 0.1833333333333333 0  3.205217391304347 0.1833333333333333 0  3.221739130434782 0.1833333333333333 0  3.238260869565217 0.1833333333333333 0  3.254782608695652 0.1833333333333333 0  3.271304347826087 0.1833333333333333 0  3.287826086956521 0.1833333333333333 0  3.304347826086957 0.1833333333333333 0  3.320869565217391 0.1833333333333333 0  3.337391304347826 0.1833333333333333 0  3.353913043478261 0.1833333333333333 0  3.370434782608696 0.1833333333333333 0  3.386956521739131 0.1833333333333333 0  3.403478260869565 0.1833333333333333 0  3.089565217391304 0.2 0  3.106086956521739 0.2 0  3.122608695652174 0.2 0  3.139130434782609 0.2 0  3.155652173913043 0.2 0  3.172173913043478 0.2 0  3.188695652173913 0.2 0  3.205217391304347 0.2 0  3.221739130434782 0.2 0  3.238260869565217 0.2 0  3.254782608695652 0.2 0  3.271304347826087 0.2 0  3.287826086956521 0.2 0  3.304347826086957 0.2 0  3.320869565217391 0.2 0  3.337391304347826 0.2 0  3.353913043478261 0.2 0  3.370434782608696 0.2 0  3.386956521739131 0.2 0  3.403478260869565 0.2 0  3.419999999999999 0.2 0  3.106086956521739 0.2166666666666667 0  3.122608695652174 0.2166666666666667 0  3.139130434782609 0.2166666666666667 0  3.155652173913043 0.2166666666666667 0  3.172173913043478 0.2166666666666667 0  3.188695652173913 0.2166666666666667 0  3.205217391304347 0.2166666666666667 0  3.221739130434782 0.2166666666666667 0  3.238260869565217 0.2166666666666667 0  3.254782608695652 0.2166666666666667 0  3.271304347826087 0.2166666666666667 0  3.287826086956521 0.2166666666666667 0  3.304347826086957 0.2166666666666667 0  3.320869565217391 0.2166666666666667 0  3.337391304347826 0.2166666666666667 0  3.353913043478261 0.2166666666666667 0  3.370434782608696 0.2166666666666667 0  3.386956521739131 0.2166666666666667 0  3.403478260869565 0.2166666666666667 0  3.419999999999999 0.2166666666666667 0  3.436521739130435 0.2166666666666667 0  3.122608695652174 0.2333333333333333 0  3.139130434782609 0.2333333333333333 0  3.155652173913043 0.2333333333333333 0  3.172173913043478 0.2333333333333333 0  3.188695652173913 0.2333333333333333 0  3.205217391304347 0.2333333333333333 0  3.221739130434782 0.2333333333333333 0  3.238260869565217 0.2333333333333333 0  3.254782
[...]
<CellData  Scalars="sigma_m"> 
<DataArray  type="Float64"  Name="sigma_m"  format="ascii">1.9577612159482513e+06   5.3971334270275831e+06   2.2162558304351456e+06   4.6472480006907312e+06   2.6076234198894287e+06   3.7381953247998012e+06   2.9605802448388361e+06   3.1715001660367991e+06   3.2505635090528731e+06   2.8559677162629892e+06   3.4650088376156306e+06   2.7344865978374379e+06   3.6296621430688803e+06   2.7127311266124216e+06   3.7148800647828556e+06   2.7327886885481495e+06   3.6206655416714363e+06   2.7462597984440103e+06   3.2176439387737573e+06   2.7095205021986561e+06   2.4491928654350978e+06   2.5564212974775298e+06   1.4552051083122899e+06   2.0090738703952243e+06   1.1782283544864713e+06   1.7427636436463171e+06   8.1594154384681573e-03   1.5695827433476641e+01   0.0000000000000000e+00   1.6885950825368264e-08   0.0000000000000000e+00   0.0000000000000000e+00   5.4719780878932895e+06   9.2737114444812499e+06   4.7466939281336768e+06   7.0524840489369594e+06   3.7103125940872855e+06   3.7027240361608728e+06   3.1266217664004322e+06   3.0311829382415679e+06   2.8280664363221913e+06   2.0271981609029581e+06   2.7142408447771771e+06   1.8359983997498131e+06   2.6934918244367568e+06   1.7805341234701800e+06   2.7023737722538961e+06   1.8516732927245875e+06   2.7065772560985917e+06   2.0447148387264754e+06   2.7081503902673526e+06   2.3825401204026844e+06   2.7166107091029561e+06   2.8136629119692496e+06   2.6284258014120981e+06   3.3009368430415033e+06   3.9024265041056834e+06   4.4028104595197635e+06   3.0570338669820735e+01   5.7150896277165823e+06   8.2055487122103249e-08   6.5722406982201234e-02   0.0000000000000000e+00   9.5539694942351973e-10   0.0000000000000000e+00   2.5672656202427601e+02   3.4448602850474635e+03   4.4627936377924721e-01   1.0364278399256616e+06   5.2920155401417787e+01   2.8308299409322939e+06   5.3148040052696271e+05   1.9306333996944479e+06   1.2137103485131375e+06   1.7407263172738350e+06   8.4184459313417540e+05   1.7329694503684780e+06   7.7782773247777135e+05   1.8262115451306156e+06   9.3368901861095498e+05   1.9907555306453777e+06   1.2506095924561645e+06   2.1647934356974778e+06   1.7473367386358785e+06   2.3656829578296132e+06   2.1885631474528420e+06   2.5224034434552770e+06   2.7365454674696303e+06   3.2607726873078132e+06   3.7973285491223861e+06   5.7635749037532061e+06   6.4811186405405393e+06   3.2238311400307612e+03   7.6827781348452317e+06   3.4473327129840753e-05   4.2876633900883672e+02   0.0000000000000000e+00   5.3826394302607464e-06   0.0000000000000000e+00   6.9439726377931697e-10   0.0000000000000000e+00   4.3067564658248482e-06   5.4195093076191418e-10   4.4301662616297532e+00   4.5106381348860630e-05   7.3681116754536238e+05   3.1045399059363099e+03   5.5810532200705621e+05   2.1028046200913563e+05   7.1437638173969823e+05   9.0692412463104527e+04   9.1727943733792938e+05   3.4124633286777622e+05   1.1411266095456539e+06   8.5393579068132152e+05   1.1516519112362005e+06   1.6277973455657391e+06   1.2942671312136468e+06   1.6387312617289950e+06   1.5961991093896297e+06   1.4619369649477527e+06   2.0895194165554678e+06   2.0203777483526922e+06   3.4104572269257968e+06   3.2249507895154497e+06   5.2581795503260903e+06   4.8396035268859398e+06   4.2643138829592327e+06   5.6213616200501155e+06   1.3407377422895211e+01   4.9539757360771568e+06   2.5596887258136200e-08   2.5831420593263310e+00   6.3828057426963543e-09   0.0000000000000000e+00   0.0000000000000000e+00   0.0000000000000000e+00   2.6686674337797839e-05   2.0523032769164675e-07   2.9323801139022995e+04   1.5508216254528492e+02   1.8045346457953571e+05   6.1239746741184918e+05   1.1334655569297296e+05   5.9560056008383445e+05   4.0744260186359275e+05   1.0176089620473004e+06   6.0010850308058993e+05   1.9243023916164467e+06   6.2309788064322353e+05   3.6349554564631279e+06   9.0556286071618344e+05   3.6454914964672471e+06   1.4484915635257973e+06   3.2517943593622055e+06   1.1402986983341340e+06   2.1194150122428476e+06   1.1040130357453022e+06   1.5743393081652913e+06   2.3517823227631953e+06   2.5451869736877698e+06   3.5181162365935552e+06   3.3957775276599289e+06   4.4624054592013592e+06   4.2961388972671516e+06   1.8556507648196155e+06   4.7081223783428669e+06   1.0034345752217120e-02   1.4451745290052546e+06   1.3614045498253882e-03   0.0000000000000000e+00   0.0000000000000000e+00   2.7934238913404005e-03   1.9301576298444892e-04   1.2698529092701619e+05   4.6483429855504888e+05   6.9263820363169408e+05   8.5369723226381827e+05   1.1725083720161200e+06   1.2558025249154866e+06   1.9351063567979585e+06   1.6303000519781525e+06   3.2325583710426912e+06   3.0014686106450944e+06   4.0084391436543195e+06   5.6878384060118459e+06   2.7388880294870613e+06   1.6590436452663352e+06   3.7629171845925287e+06   3.2045356713600922e+05   3.6563937935632095e+06   4.7102399249798125e+06   2.1331786548214774e+06   2.5800341773574585e+06   5.8126193098018225e+05   1.5539109828967373e+06   1.1894280268197954e+06   1.5982033978397832e+06   2.3940192837733519e+06   2.5183804267419651e+06   3.2994586438919739e+06   3.3789184848092883e+06   4.0938891951582450e+06   4.5215972637087116e+06   1.6786230870821028e+03   4.7419279166796459e+06   1.4280001321462979e+02   1.3054955535013797e-06   9.2853215971654245e+03   2.4638808681571923e+03   1.6847658792251637e+06   2.2017765889485395e+06   1.4578724975940508e+06   1.9302440854045691e+06   2.0367020237690064e+06   1.7780584647025438e+06   2.8835837853725716e+06   2.0050309876982472e+06   4.4320190815182161e+06   2.4798196086884197e+06   5.1283593178315539e+02   4.0730703954793137e+02   2.6858484470023325e-03   7.5643373749438361e-05   3.8933746408820989e-03   8.7305137032147224e-07   7.9541447533786163e+02   3.3157910852731239e-04   4.0929798461665786e+06   1.2786130743543006e+03   2.7222295836178833e+06   2.2681273053378379e+06   1.2548381326538376e+06   1.5492568450394960e+06   5.0930395887904550e+05   1.1128617977425891e+06   1.5092220794119728e+06   1.6897531945672741e+06   2.5326431770932241e+06   2.5304446274113688e+06   3.3346976929211183e+06   3.2104369180109883e+06   1.9024515568392351e+06   3.2659899834531182e+06   1.6901473873246324e+06   2.5024113023970309e+06   2.9098000194870690e+06   2.0099710832710336e+06   2.4165573280084743e+06   1.6866575949169996e+06   1.8222905953582146e+06   1.9185905005781595e+06   1.4810899838427147e+06   2.3198716700974316e+06   1.5500935863610427e+06   5.0062258679008009e+04   5.3155941048080509e+05   2.8938095763115812e-06   3.7434922504191668e-06   0.0000000000000000e+00   0.0000000000000000e+00   0.0000000000000000e+00   0.0000000000000000e+00   0.0000000000000000e+00   0.0000000000000000e+00   5.3144456905557518e-04   0.0000000000000000e+00   6.6922588902044401e+04   8.9350117073815798e-04   2.8541882857103306e+06   2.2870501411791012e+05   1.7162751218434735e+06   1.8282362586449855e+06   5.5277447014607803e+05   8.2856540690691501e+05   9.2855264278970379e+05   1.1934747964405629e+06   1.9034588852676530e+06   2.0309135949008977e+06   2.4842535942819607e+06   2.5969498166547325e+06   3.1048275760945836e+06   3.4683420040276409e+06   3.3789759629219095e+06   2.5587751793819354e+06   1.7266348821236207e+06   1.8816424813698456e+06   1.3888482867561115e+06   1.2392457933536780e+06   1.1671388619022036e+06   8.9728119924957457e+05   1.0616855130255430e+06   5.0559716395332408e+05   3.9923618857044688e-03   5.3076181167675561e-02   0.0000000000000000e+00   0.0000000000000000e+00   0.0000000000000000e+00   0.0000000000000000e+00   0.0000000000000000e+00   0.0000000000000000e+00   0.0000000000000000e+00   0.0000000000000000e+00   0.0000000000000000e+00   0.0000000000000000e+00   0.0000000000000000e+00   0.0000000000000000e+00   2.6457656902868793e-02   0.0000000000000000e+00   7.2322979745751992e+05   6.9456192525411020e-02   1.7923281118804112e+06   5.3985605067489517e+05   6.6865876874824264e+05   8.2970396423142229e+05   6.0423105372172582e+05   8.7897879707558430e+05   1.3470542342128074e+06   1.4605494749085859e+06   2.0507362563585788e+06   2.0869946885280546e+06   2.5122079344994179e+06   2.4260613710550154e+06   2.2470637726677149e+06   1.2451873977826349e+06   7.9446138889626705e+05   4.9568840832838550e+05   4.6167851628632360e+05   1.5519026802611296e+05   3.3401217204630262e+02   2.1146648753431746e+03   0.0000000000000000e+00   0.0000000000000000e+00   0.0000000000000000e+00   0.0000000000000000e+00   0.0000000000000000e+00   0.0000000000000000e+00   0.0000000000000000e+00   0.0000000000000000e+00   0.0000000000000000e+00   0.0000000000000000e+00   0.0000000000000000e+00   0.0000000000000000e+00   0.0000000000000000e+00   0.0000000000000000e+00   0.0000000000000000e+00   0.0000000000000000e+00   8.3716135049861567e-09   0.0000000000000000e+00   2.0017700787796553e+00   2.2336843255063782e-08   1.4393813305789435e+06   1.1239104587745016e+01   6.7351085992473853e+05   5.0787364676206524e+05   4.0413861050553492e+05   4.9067917873620655e+05   1.1348498663621037e+06   1.2524516974213498e+06   1.7157729593122469e+06   1.7744521771884307e+06   1.9563689346491823e+06   2.0175028285608008e+06   2.2538913786578495e+06   4.2063684826076601e+05   2.7066005447590980e+05   3.6238007931509521e+05   2.1892942911840494e-07   5.9951984532155862e-07   0.0000000000000000e+00   0.0000000000000000e+00   0.0000000000000000e+00   0.0000000000000000e+00   0.0000000000000000e+00   0.0000000000000000e+00   0.0000000000000000e+00   0.0000000000000000e+00   0.0000000000000000e+00   0.0000000000000000e+00   0.0000000000000000e+00   0.0000000000000000e+00   0.0000000000000000e+00   0.0000000000000000e+00   0.0000000000000000e+00   0.0000000000000000e+00   0.0000000000000000e+00   0.0000000000000000e+00   0.0000000000000000e+00   0.0000000000000000e+00   5.4540075791578262e-06   0.0000000000000000e+00   1.0179315553079970e+04   4.1928308138374133e-05   5.5195784293057781e+05   1.6411602375658049e+05   4.5429855526481353e+05   4.7482587882831262e+05   1.0640179704309197e+06   1.1217303784020895e+06   1.4716593094969622e+06   1.5255503209281748e+06   1.8054618585915803e+06   1.8566231166150710e+06   2.2586870494593969e+06   3.2200092666206622e-06   0.0000000000000000e+00   0.0000000000000000e+00   0.0000000000000000e+00   0.0000000000000000e+00   0.0000000000000000e+00   0.0000000000000000e+00   0.0000000000000000e+00   0.0000000000000000e+00   0.0000000000000000e+00   0.0000000000000000e+00   0.0000000000000000e+00   0.0000000000000000e+00   0.0000000000000000e+00   0.0000000000000000e+00   0.0000000000000000e+00   0.0000000000000000e+00   0.0000000000000000e+00   0.0000000000000000e+00   0.0000000000000000e+00   0.0000000000000000e+00   0.0000000000000000e+00   0.0000000000000000e+00   0.0000000000000000e+00   0.0000000000000000e+00   0.0000000000000000e+00   0.0000000000000000e+00   4.0833733957560892e-01   1.2132698755131986e-09   1.8878043626852430e+05   1.0125230150411452e+01   5.5252076896417211e+05   5.0449670619568526e+05   9.9404427184212429e+05   1.0431133721993106e+06   1.3642741076994077e+06   1.4165418508169397e+06   1.6317823317487240e+06   1.6509813705208830e+06   1.5842784185875140e+06   0.0000000000000000e+00   0.0000000000000000e+00   0.0000000000000000e+00   0.0000000000000000e+00   0.0000000000000000e+00   0.0000000000000000e+00   0.0000000000000000e+00   0.0000000000000000e+00   0.0000000000000000e+00   0.0000000000000000e+00   0.0000000000000000e+00   0.0000000000000000e+00   0.0000000000000000e+00   0.0000000000000000e+00   0.0000000000000000e+00   0.0000000000000000e+00   0.0000000000000000e+00   0.0000000000000000e+00   0.0000000000000000e+00   0.0000000000000000e+00   0.0000000000000000e+00   0.0000000000000000e+00   0.0000000000000000e+00   0.0000000000000000e+00   0.0000000000000000e+00   0.0000000000000000e+00   0.0000000000000000e+00   5.5120309371514938e-05   0.0000000000000000e+00   1.1404088933192203e+04   1.6521357708070843e-03   5.5732684812013316e+05   2.4583314874665759e+05   1.0738805861976543e+06   1.1217843488895628e+06   1.4187556524184637e+06   1.4342655011293467e+06   1.5155334325303466e+06   1.5028103561298165e+06   1.3809872563340419e+06   0.0000000000000000e+00   0.0000000000000000e+00   0.0000000000000000e+00   0.0000000000000000e+00   0.0000000000000000e+00   0.0000000000000000e+00   0.0000000000000000e+00   0.0000000000000000e+00   0.0000000000000000e+00   0.0000000000000000e+00   0.0000000000000000e+00   0.0000000000000000e+00   0.0000000000000000e+00   0.0000000000000000e+00   0.0000000000000000e+00   0.0000000000000000e+00   0.0000000000000000e+00   0.0000000000000000e+00   0.0000000000000000e+00   0.0000000000000000e+00   0.0000000000000000e+00   0.0000000000000000e+00   0.0000000000000000e+00   0.0000000000000000e+00   0.0000000000000000e+00   0.0000000000000000e+00   0.0000000000000000e+00   2.8470840354744422e-08   0.0000000000000000e+00   5.6509763336381525e+02   7.2569987013466495e-07   9.9748909140826634e+05   2.9572108056104487e+04   1.4365426137521882e+06   1.3919387403034046e+06   1.5126896608219920e+06   1.5004362423529606e+06   1.4646907159188667e+06   1.4501011629134146e+06   1.3271790947002980e+06   0.0000000000000000e+00   0.0000000000000000e+00   0.0000000000000000e+00   0.0000000000000000e+00   0.0000000000000000e+00   0.0000000000000000e+00   0.0000000000000000e+00   0.0000000000000000e+00   0.0000000000000000e+00   0.0000000000000000e+00   0.0000000000000000e+00   0.0000000000000000e+00   0.0000000000000000e+00   0.0000000000000000e+00   0.0000000000000000e+00   0.0000000000000000e+00   0.0000000000000000e+00   0.0000000000000000e+00   0.0000000000000000e+00   0.0000000000000000e+00   0.0000000000000000e+00   0.0000000000000000e+00   0.0000000000000000e+00   0.0000000000000000e+00   0.0000000000000000e+00   0.0000000000000000e+00   0.0000000000000000e+00   0.0000000000000000e+00   0.0000000000000000e+00   4.2855984611125425e-01   0.0000000000000000e+00   1.1731679096852608e+06   2.0506342357561341e+01   1.6254143258258174e+06   1.4625714572593293e+06   1.5861051667728743e+06   1.5699044116809680e+06   1.5265866128719193e+06   1.5171050426347002e+06   1.2819566673199553e+06   0.0000000000000000e+00   0.0000000000000000e+00   0.0000000000000000e+00   0.0000000000000000e+00   0.0000000000000000e+00   0.0000000000000000e+00   0.0000000000000000e+00   0.0000000000000000e+00   0.0000000000000000e+00   0.0000000000000000e+00   0.0000000000000000e+00   0.0000000000000000e+00   0.0000000000000000e+00   0.0000000000000000e+00   0.0000000000000000e+00   0.0000000000000000e+00   0.0000000000000000e+00   0.0000000000000000e+00   0.0000000000000000e+00   0.0000000000000000e+00   0.0000000000000000e+00   0.0000000000000000e+00   0.0000000000000000e+00   0.0000000000000000e+00   0.0000000000000000e+00   0.0000000000000000e+00   0.0000000000000000e+00   0.0000000000000000e+00   0.0000000000000000e+00   2.5008475204503099e-04   0.0000000000000000e+00   3.6244758737356646e+05   1.0087254009078591e-02   1.6498903026931048e+06   1.0685902920948218e+06   1.8023648930749644e+06   1.8186282959230053e+06   1.6933568369858582e+06   1.6510559498956904e+06   1.2649509745266417e+06   0.0000000000000000e+00   0.0000000000000000e+00   0.0000000000000000e+00   0.0000000000000000e+00   0.0000000000000000e+00   0.0000000000000000e+00   0.0000000000000000e+00   0.0000000000000000e+00   0.0000000000000000e+00   0.0000000000000000e+00   0.0000000000000000e+00   0.0000000000000000e+00   0.0000000000000000e+00   0.0000000000000000e+00   0.0000000000000000e+00   0.0000000000000000e+00   0.0000000000000000e+00   0.0000000000000000e+00   0.0000000000000000e+00   0.0000000000000000e+00   0.0000000000000000e+00   0.0000000000000000e+00   0.0000000000000000e+00   0.0000000000000000e+00   0.0000000000000000e+00   0.0000000000000000e+00   0.0000000000000000e+00   0.0000000000000000e+00   0.0000000000000000e+00   1.8864981610555365e-07   0.0000000000000000e+00   3.5544556712843751e+03   5.1619738430113036e-06   2.1881789804672897e+06   1.3952261092746985e+05   2.2460351907801074e+06   2.2238728437448889e+06   1.9367613370688052e+06   1.8882083060857444e+06   1.4020430390194093e+06   0.0000000000000000e+00   0.0000000000000000e+00   0.0000000000000000e+00   0.0000000000000000e+00   0.0000000000000000e+00   0.0000000000000000e+00   0.0000000000000000e+00   0.0000000000000000e+00   0.0000000000000000e+00   0.0000000000000000e+00   0.0000000000000000e+00   0.0000000000000000e+00   0.0000000000000000e+00   0.0000000000000000e+00   0.0000000000000000e+00   0.0000000000000000e+00   0.0000000000000000e+00   0.0000000000000000e+00   0.0000000000000000e+00   0.0000000000000000e+00   0.0000000000000000e+00   0.0000000000000000e+00   0.0000000000000000e+00   0.0000000000000000e+00   0.0000000000000000e+00   0.0000000000000000e+00   0.0000000000000000e+00   0.0000000000000000e+00   0.0000000000000000e+00   0.0000000000000000e+00   0.0000000000000000e+00   1.3827341428941393e+00   1.9144077133522629e-09   2.4815148753872211e+06   4.2476616610446214e+01   2.7940326474223495e+06   2.4604908065796318e+06   2.2852138806305127e+06   2.2000263132720049e+06   1.7933029263353078e+06   0.0000000000000000e+00   0.0000000000000000e+00   0.0000000000000000e+00   0.0000000000000000e+00   0.0000000000000000e+00   0.0000000000000000e+00   0.0000000000000000e+00   0.0000000000000000e+00   0.0000000000000000e+00   0.0000000000000000e+00   0.0000000000000000e+00   0.0000000000000000e+00   0.0000000000000000e+00   0.0000000000000000e+00   0.0000000000000000e+00   0.0000000000000000e+00   0.0000000000000000e+00   0.0000000000000000e+00   0.0000000000000000e+00   0.0000000000000000e+00   0.0000000000000000e+00   0.0000000000000000e+00   0.0000000000000000e+00   0.0000000000000000e+00   0.0000000000000000e+00   0.0000000000000000e+00   0.0000000000000000e+00   0.0000000000000000e+00   0.0000000000000000e+00   0.0000000000000000e+00   0.0000000000000000e+00   2.2370782211013357e-04   0.0000000000000000e+00   3.0417922334769834e+05   4.4999422851720854e-03   2.7212802706901385e+06   1.1271269590913558e+06   2.7985021702035442e+06   2.9096028761090590e+06   2.2041709449642026e+06   0.0000000000000000e+00   0.0000000000000000e+00   0.0000000000000000e+00   0.0000000000000000e+00   0.0000000000000000e+00   0.0000000000000000e+00   0.0000000000000000e+00   0.0000000000000000e+00   0.0000000000000000e+00   0.0000000000000000e+00   0.0000000000000000e+00   0.0000000000000000e+00   0.0000000000000000e+00   0.0000000000000000e+00   0.0000000000000000e+00   0.0000000000000000e+00   0.0000000000000000e+00   0.0000000000000000e+00   0.0000000000000000e+00   0.0000000000000000e+00   0.0000000000000000e+00   0.0000000000000000e+00   0.0000000000000000e+00   0.0000000000000000e+00   0.0000000000000000e+00   0.0000000000000000e+00   0.0000000000000000e+00   0.0000000000000000e+00   0.0000000000000000e+00   0.0000000000000000e+00   0.0000000000000000e+00   3.0453946351461120e-08   0.0000000000000000e+00   1.1762160004214995e+02   4.1600699287158719e-07   4.1808595697668660e+06   2.1324430808353177e+03   4.0305720030680029e+06   3.6550739204713544e+06   2.5497697928305743e+06   0.0000000000000000e+00   0.0000000000000000e+00   0.0000000000000000e+00   0.0000000000000000e+00   0.0000000000000000e+00   0.0000000000000000e+00   0.0000000000000000e+00   0.0000000000000000e+00   0.0000000000000000e+00   0.0000000000000000e+00   0.0000000000000000e+00   0.0000000000000000e+00   0.0000000000000000e+00   0.0000000000000000e+00   0.0000000000000000e+00   0.0000000000000000e+00   0.0000000000000000e+00   0.0000000000000000e+00   0.0000000000000000e+00   0.0000000000000000e+00   0.0000000000000000e+00   0.0000000000000000e+00   0.0000000000000000e+00   0.0000000000000000e+00   0.0000000000000000e+00   0.0000000000000000e+00   0.0000000000000000e+00   0.0000000000000000e+00   0.0000000000000000e+00   0.0000000000000000e+00   0.0000000000000000e+00   0.0000000000000000e+00   0.00000000