<?xml version="1.0"?>
<VTKFile type="UnstructuredGrid"  version="0.1"  >
<UnstructuredGrid>
<Piece  NumberOfPoints="639" NumberOfCells="1175">
<Points>
<DataArray  type="Float64"  NumberOfComponents="3"  format="ascii">1.321739130434783 0 0  1.338260869565217 0 0  1.338260869565217 0.01666666666666667 0  1.354782608695652 0 0  1.354782608695652 0.01666666666666667 0  1.371304347826087 0 0  1.371304347826087 0.01666666666666667 0  1.387826086956522 0 0  1.387826086956522 0.01666666666666667 0  1.404347826086957 0 0  1.404347826086957 0.01666666666666667 0  1.420869565217391 0 0  1.420869565217391 0.01666666666666667 0  1.437391304347826 0 0  1.437391304347826 0.01666666666666667 0  1.453913043478261 0 0  1.453913043478261 0.01666666666666667 0  1.470434782608696 0 0  1.470434782608696 0.01666666666666667 0  1.486956521739131 0 0  1.486956521739131 0.01666666666666667 0  1.503478260869565 0 0  1.503478260869565 0.01666666666666667 0  1.52 0 0  1.52 0.01666666666666667 0  1.536521739130435 0 0  1.536521739130435 0.01666666666666667 0  1.55304347826087 0 0  1.55304347826087 0.01666666666666667 0  1.569565217391304 0 0  1.569565217391304 0.01666666666666667 0  1.586086956521739 0 0  1.586086956521739 0.01666666666666667 0  1.602608695652174 0 0  1.602608695652174 0.01666666666666667 0  1.619130434782609 0 0  1.619130434782609 0.01666666666666667 0  1.635652173913043 0 0  1.635652173913043 0.01666666666666667 0  1.652173913043478 0 0  1.652173913043478 0.01666666666666667 0  1.668695652173913 0 0  1.668695652173913 0.01666666666666667 0  1.685217391304348 0 0  1.685217391304348 0.01666666666666667 0  1.701739130434782 0 0  1.701739130434782 0.01666666666666667 0  1.718260869565217 0 0  1.718260869565217 0.01666666666666667 0  1.734782608695652 0 0  1.734782608695652 0.01666666666666667 0  1.751304347826087 0 0  1.751304347826087 0.01666666666666667 0  1.767826086956522 0 0  1.767826086956522 0.01666666666666667 0  1.784347826086957 0 0  1.784347826086957 0.01666666666666667 0  1.800869565217391 0 0  1.800869565217391 0.01666666666666667 0  1.817391304347826 0 0  1.817391304347826 0.01666666666666667 0  1.833913043478261 0 0  1.833913043478261 0.01666666666666667 0  1.850434782608696 0 0  1.850434782608696 0.01666666666666667 0  1.86695652173913 0 0  1.86695652173913 0.01666666666666667 0  1.883478260869565 0 0  1.883478260869565 0.01666666666666667 0  1.354782608695652 0.03333333333333333 0  1.371304347826087 0.03333333333333333 0  1.387826086956522 0.03333333333333333 0  1.404347826086957 0.03333333333333333 0  1.420869565217391 0.03333333333333333 0  1.437391304347826 0.03333333333333333 0  1.453913043478261 0.03333333333333333 0  1.470434782608696 0.03333333333333333 0  1.486956521739131 0.03333333333333333 0  1.503478260869565 0.03333333333333333 0  1.52 0.03333333333333333 0  1.536521739130435 0.03333333333333333 0  1.55304347826087 0.03333333333333333 0  1.569565217391304 0.03333333333333333 0  1.586086956521739 0.03333333333333333 0  1.602608695652174 0.03333333333333333 0  1.619130434782609 0.03333333333333333 0  1.635652173913043 0.03333333333333333 0  1.652173913043478 0.03333333333333333 0  1.668695652173913 0.03333333333333333 0  1.685217391304348 0.03333333333333333 0  1.701739130434782 0.03333333333333333 0  1.718260869565217 0.03333333333333333 0  1.734782608695652 0.03333333333333333 0  1.751304347826087 0.03333333333333333 0  1.767826086956522 0.03333333333333333 0  1.784347826086957 0.03333333333333333 0  1.800869565217391 0.03333333333333333 0  1.817391304347826 0.03333333333333333 0  1.833913043478261 0.03333333333333333 0  1.850434782608696 0.03333333333333333 0  1.86695652173913 0.03333333333333333 0  1.883478260869565 0.03333333333333333 0  1.371304347826087 0.05 0  1.387826086956522 0.05 0  1.404347826086957 0.05 0  1.420869565217391 0.05 0  1.437391304347826 0.05 0  1.453913043478261 0.05 0  1.470434782608696 0.05 0  1.486956521739131 0.05 0  1.503478260869565 0.05 0  1.52 0.05 0  1.536521739130435 0.05 0  1.55304347826087 0.05 0  1.569565217391304 0.05 0  1.586086956521739 0.05 0  1.602608695652174 0.05 0  1.619130434782609 0.05 0  1.635652173913043 0.05 0  1.652173913043478 0.05 0  1.668695652173913 0.05 0  1.685217391304348 0.05 0  1.701739130434782 0.05 0  1.718260869565217 0.05 0  1.734782608695652 0.05 0  1.751304347826087 0.05 0  1.767826086956522 0.05 0  1.784347826086957 0.05 0  1.800869565217391 0.05 0  1.817391304347826 0.05 0  1.833913043478261 0.05 0  1.850434782608696 0.05 0  1.86695652173913 0.05 0  1.883478260869565 0.05 0  1.387826086956522 0.06666666666666667 0  1.404347826086957 0.06666666666666667 0  1.420869565217391 0.06666666666666667 0  1.437391304347826 0.06666666666666667 0  1.453913043478261 0.06666666666666667 0  1.470434782608696 0.06666666666666667 0  1.486956521739131 0.06666666666666667 0  1.503478260869565 0.06666666666666667 0  1.52 0.06666666666666667 0  1.536521739130435 0.06666666666666667 0  1.55304347826087 0.06666666666666667 0  1.569565217391304 0.06666666666666667 0  1.586086956521739 0.06666666666666667 0  1.602608695652174 0.06666666666666667 0  1.619130434782609 0.06666666666666667 0  1.635652173913043 0.06666666666666667 0  1.652173913043478 0.06666666666666667 0  1.668695652173913 0.06666666666666667 0  1.685217391304348 0.06666666666666667 0  1.701739130434782 0.06666666666666667 0  1.718260869565217 0.06666666666666667 0  1.734782608695652 0.06666666666666667 0  1.751304347826087 0.06666666666666667 0  1.767826086956522 0.06666666666666667 0  1.784347826086957 0.06666666666666667 0  1.800869565217391 0.06666666666666667 0  1.817391304347826 0.06666666666666667 0  1.833913043478261 0.06666666666666667 0  1.850434782608696 0.06666666666666667 0  1.86695652173913 0.06666666666666667 0  1.883478260869565 0.06666666666666667 0  1.404347826086957 0.08333333333333333 0  1.420869565217391 0.08333333333333333 0  1.437391304347826 0.08333333333333333 0  1.453913043478261 0.08333333333333333 0  1.470434782608696 0.08333333333333333 0  1.486956521739131 0.08333333333333333 0  1.503478260869565 0.08333333333333333 0  1.52 0.08333333333333333 0  1.536521739130435 0.08333333333333333 0  1.55304347826087 0.08333333333333333 0  1.569565217391304 0.08333333333333333 0  1.586086956521739 0.08333333333333333 0  1.602608695652174 0.08333333333333333 0  1.619130434782609 0.08333333333333333 0  1.635652173913043 0.08333333333333333 0  1.652173913043478 0.08333333333333333 0  1.668695652173913 0.08333333333333333 0  1.685217391304348 0.08333333333333333 0  1.701739130434782 0.08333333333333333 0  1.718260869565217 0.08333333333333333 0  1.734782608695652 0.08333333333333333 0  1.751304347826087 0.08333333333333333 0  1.767826086956522 0.08333333333333333 0  1.784347826086957 0.08333333333333333 0  1.800869565217391 0.08333333333333333 0  1.817391304347826 0.08333333333333333 0  1.833913043478261 0.08333333333333333 0  1.850434782608696 0.08333333333333333 0  1.86695652173913 0.08333333333333333 0  1.883478260869565 0.08333333333333333 0  1.420869565217391 0.1 0  1.437391304347826 0.1 0  1.453913043478261 0.1 0  1.470434782608696 0.1 0  1.486956521739131 0.1 0  1.503478260869565 0.1 0  1.52 0.1 0  1.536521739130435 0.1 0  1.55304347826087 0.1 0  1.569565217391304 0.1 0  1.586086956521739 0.1 0  1.602608695652174 0.1 0  1.619130434782609 0.1 0  1.635652173913043 0.1 0  1.652173913043478 0.1 0  1.668695652173913 0.1 0  1.685217391304348 0.1 0  1.701739130434782 0.1 0  1.718260869565217 0.1 0  1.734782608695652 0.1 0  1.751304347826087 0.1 0  1.767826086956522 0.1 0  1.784347826086957 0.1 0  1.800869565217391 0.1 0  1.817391304347826 0.1 0  1.833913043478261 0.1 0  1.850434782608696 0.1 0  1.86695652173913 0.1 0  1.883478260869565 0.1 0  1.437391304347826 0.1166666666666667 0  1.453913043478261 0.1166666666666667 0  1.470434782608696 0.1166666666666667 0  1.486956521739131 0.1166666666666667 0  1.503478260869565 0.1166666666666667 0  1.52 0.1166666666666667 0  1.536521739130435 0.1166666666666667 0  1.55304347826087 0.1166666666666667 0  1.569565217391304 0.1166666666666667 0  1.586086956521739 0.1166666666666667 0  1.602608695652174 0.1166666666666667 0  1.619130434782609 0.1166666666666667 0  1.635652173913043 0.1166666666666667 0  1.652173913043478 0.1166666666666667 0  1.668695652173913 0.1166666666666667 0  1.685217391304348 0.1166666666666667 0  1.701739130434782 0.1166666666666667 0  1.718260869565217 0.1166666666666667 0  1.734782608695652 0.1166666666666667 0  1.751304347826087 0.1166666666666667 0  1.767826086956522 0.1166666666666667 0  1.784347826086957 0.1166666666666667 0  1.800869565217391 0.1166666666666667 0  1.817391304347826 0.1166666666666667 0  1.833913043478261 0.1166666666666667 0  1.850434782608696 0.1166666666666667 0  1.86695652173913 0.1166666666666667 0  1.883478260869565 0.1166666666666667 0  1.453913043478261 0.1333333333333333 0  1.470434782608696 0.1333333333333333 0  1.486956521739131 0.1333333333333333 0  1.503478260869565 0.1333333333333333 0  1.52 0.1333333333333333 0  1.536521739130435 0.1333333333333333 0  1.55304347826087 0.1333333333333333 0  1.569565217391304 0.1333333333333333 0  1.586086956521739 0.1333333333333333 0  1.602608695652174 0.1333333333333333 0  1.619130434782609 0.1333333333333333 0  1.635652173913043 0.1333333333333333 0  1.652173913043478 0.1333333333333333 0  1.668695652173913 0.1333333333333333 0  1.685217391304348 0.1333333333333333 0  1.701739130434782 0.1333333333333333 0  1.718260869565217 0.1333333333333333 0  1.734782608695652 0.1333333333333333 0  1.751304347826087 0.1333333333333333 0  1.767826086956522 0.1333333333333333 0  1.784347826086957 0.1333333333333333 0  1.800869565217391 0.1333333333333333 0  1.817391304347826 0.1333333333333333 0  1.833913043478261 0.1333333333333333 0  1.850434782608696 0.1333333333333333 0  1.86695652173913 0.1333333333333333 0  1.883478260869565 0.1333333333333333 0  1.470434782608696 0.15 0  1.486956521739131 0.15 0  1.503478260869565 0.15 0  1.52 0.15 0  1.5365217391304
[...]
<PointData  Vectors="Displacement"> 
<DataArray  type="Float64"  Name="Displacement"  NumberOfComponents="3" format="ascii">1.6750423161454396e-04 1.5096284481686218e-03 0.0000000000000000e+00  1.6922690367387753e-04 1.5261409726398671e-03 0.0000000000000000e+00  1.5267808891960974e-04 1.5255298582827522e-03 0.0000000000000000e+00  1.7094175363250002e-04 1.5424985809506658e-03 0.0000000000000000e+00  1.5458778176900557e-04 1.5418689512329766e-03 0.0000000000000000e+00  1.7263347224614120e-04 1.5587038120115457e-03 0.0000000000000000e+00  1.5654361448559244e-04 1.5580390913891692e-03 0.0000000000000000e+00  1.7424087120025179e-04 1.5746615701285357e-03 0.0000000000000000e+00  1.5862139351199492e-04 1.5739922205140048e-03 0.0000000000000000e+00  1.7570754611136218e-04 1.5900012777830350e-03 0.0000000000000000e+00  1.6087224450811677e-04 1.5893790816224676e-03 0.0000000000000000e+00  1.7707467850791738e-04 1.6042540769361637e-03 0.0000000000000000e+00  1.6324046478479086e-04 1.6036922510477166e-03 0.0000000000000000e+00  1.7847651132063281e-04 1.6173042691466390e-03 0.0000000000000000e+00  1.6555437229698184e-04 1.6167526943105014e-03 0.0000000000000000e+00  1.7998839899144333e-04 1.6295517289743266e-03 0.0000000000000000e+00  1.6767273148908963e-04 1.6289953630943676e-03 0.0000000000000000e+00  1.8160452644335262e-04 1.6413800133534217e-03 0.0000000000000000e+00  1.6960835729265691e-04 1.6408375070258922e-03 0.0000000000000000e+00  1.8332582679340511e-04 1.6530211642411194e-03 0.0000000000000000e+00  1.7138599781894363e-04 1.6524774343414817e-03 0.0000000000000000e+00  1.8516086512053402e-04 1.6647519246562430e-03 0.0000000000000000e+00  1.7303175696668452e-04 1.6641868368106854e-03 0.0000000000000000e+00  1.8709314144600047e-04 1.6768137882648138e-03 0.0000000000000000e+00  1.7461101328097278e-04 1.6762294781833117e-03 0.0000000000000000e+00  1.8906519750115899e-04 1.6893604991768624e-03 0.0000000000000000e+00  1.7614123466799309e-04 1.6887856669410444e-03 0.0000000000000000e+00  1.9104791186581922e-04 1.7023728524579538e-03 0.0000000000000000e+00  1.7763858756208707e-04 1.7018141415135429e-03 0.0000000000000000e+00  1.9309242297533205e-04 1.7157774670948302e-03 0.0000000000000000e+00  1.7915100922533773e-04 1.7152098844511680e-03 0.0000000000000000e+00  1.9531940729373653e-04 1.7295706112131902e-03 0.0000000000000000e+00  1.8075303367298245e-04 1.7289491944185694e-03 0.0000000000000000e+00  1.9785486794710521e-04 1.7439036015051501e-03 0.0000000000000000e+00  1.8250350882518561e-04 1.7431937156449132e-03 0.0000000000000000e+00  2.0077557228215278e-04 1.7590466375729755e-03 0.0000000000000000e+00  1.8442142474017368e-04 1.7582358200071641e-03 0.0000000000000000e+00  2.0407812178580614e-04 1.7753432944425794e-03 0.0000000000000000e+00  1.8646684220647116e-04 1.7744490277726763e-03 0.0000000000000000e+00  2.0769791892137342e-04 1.7931175554879548e-03 0.0000000000000000e+00  1.8856674009949570e-04 1.7921678970353649e-03 0.0000000000000000e+00  2.1157705708588128e-04 1.8125932307903306e-03 0.0000000000000000e+00  1.9069126008493576e-04 1.8115925727475409e-03 0.0000000000000000e+00  2.1557919971577292e-04 1.8341062906741664e-03 0.0000000000000000e+00  1.9273036480337873e-04 1.8331304323033267e-03 0.0000000000000000e+00  2.1963298300240787e-04 1.8577186326129509e-03 0.0000000000000000e+00  1.9462905231258491e-04 1.8567525439213760e-03 0.0000000000000000e+00  2.2377312701458928e-04 1.8835565084076278e-03 0.0000000000000000e+00  1.9645233323359909e-04 1.8825212727555242e-03 0.0000000000000000e+00  2.2779726754986371e-04 1.9121408868842625e-03 0.0000000000000000e+00  1.9811572796984961e-04 1.9111527555680241e-03 0.0000000000000000e+00  2.3148961182155474e-04 1.9432452121431422e-03 0.0000000000000000e+00  1.9964423836920525e-04 1.9423363218701200e-03 0.0000000000000000e+00  2.3474419348025054e-04 1.9764436085318656e-03 0.0000000000000000e+00  2.0109704670923646e-04 1.9756114959763572e-03 0.0000000000000000e+00  2.3750336265955985e-04 2.0112993206992838e-03 0.0000000000000000e+00  2.0251056903677753e-04 2.0105411765200688e-03 0.0000000000000000e+00  2.3973241975763852e-04 2.0473008846115621e-03 0.0000000000000000e+00  2.0394227431573967e-04 2.0466011996342621e-03 0.0000000000000000e+00  2.4136226367093069e-04 2.0838369060116393e-03 0.0000000000000000e+00  2.0547159247437001e-04 2.0832503929256109e-03 0.0000000000000000e+00  2.4237495817513169e-04 2.1200378836062272e-03 0.0000000000000000e+00  2.0709182457269340e-04 2.1195916951330753e-03 0.0000000000000000e+00  2.4284358161228808e-04 2.1552257330886030e-03 0.0000000000000000e+00  2.0867045901500625e-04 2.1548813844028932e-03 0.0000000000000000e+00  2.4280820850274297e-04 2.1890688220142823e-03 0.0000000000000000e+00  2.1013009731246838e-04 2.1888446985296158e-03 0.0000000000000000e+00  2.4228283787849876e-04 2.2211714296725168e-03 0.0000000000000000e+00  2.1143565961828431e-04 2.2211073608690781e-03 0.0000000000000000e+00  1.3815368800132829e-04 1.5412001762425040e-03 0.0000000000000000e+00  1.4020350000435003e-04 1.5573272860826221e-03 0.0000000000000000e+00  1.4238067736697106e-04 1.5731719967755954e-03 0.0000000000000000e+00  1.4528036647438368e-04 1.5884896014672115e-03 0.0000000000000000e+00  1.4911384689830846e-04 1.6027951966906967e-03 0.0000000000000000e+00  1.5311516105517362e-04 1.6159878826719082e-03 0.0000000000000000e+00  1.5587314244299769e-04 1.6283308717784629e-03 0.0000000000000000e+00  1.5793214737100497e-04 1.6402179075208840e-03 0.0000000000000000e+00  1.5982565687719830e-04 1.6520037255171446e-03 0.0000000000000000e+00  1.6113570582677850e-04 1.6637354499251177e-03 0.0000000000000000e+00  1.6222656750598959e-04 1.6757684447239166e-03 0.0000000000000000e+00  1.6322032880182875e-04 1.6883950617644912e-03 0.0000000000000000e+00  1.6413025714535220e-04 1.7015107250602426e-03 0.0000000000000000e+00  1.6499363818935883e-04 1.7149435126836089e-03 0.0000000000000000e+00  1.6588054543382967e-04 1.7286355374302939e-03 0.0000000000000000e+00  1.6682496085410544e-04 1.7427892424865428e-03 0.0000000000000000e+00  1.6780668613560059e-04 1.7577385996970251e-03 0.0000000000000000e+00  1.6872968491381135e-04 1.7739261794896262e-03 0.0000000000000000e+00  1.6944909140089264e-04 1.7916889310037891e-03 0.0000000000000000e+00  1.6995649625033447e-04 1.8110807842034891e-03 0.0000000000000000e+00  1.7014497150316760e-04 1.8327779392267075e-03 0.0000000000000000e+00  1.7002987303479879e-04 1.8565381486643302e-03 0.0000000000000000e+00  1.6958544739010159e-04 1.8821216352926608e-03 0.0000000000000000e+00  1.6876117496185524e-04 1.9108539997714138e-03 0.0000000000000000e+00  1.6800132300231273e-04 1.9420731070228382e-03 0.0000000000000000e+00  1.6756715051911381e-04 1.9752965061307116e-03 0.0000000000000000e+00  1.6755910243501618e-04 2.0101515679330139e-03 0.0000000000000000e+00  1.6808426838566321e-04 2.0460503146585746e-03 0.0000000000000000e+00  1.6931761229692537e-04 2.0825274841868441e-03 0.0000000000000000e+00  1.7184657292161542e-04 2.1188697055276582e-03 0.0000000000000000e+00  1.7487766062050108e-04 2.1541813077323815e-03 0.0000000000000000e+00  1.7765618439619335e-04 2.1880346926213463e-03 0.0000000000000000e+00  1.8094215614721199e-04 2.2204406912822404e-03 0.0000000000000000e+00  1.2813273417912300e-04 1.5570625080619006e-03 0.0000000000000000e+00  1.3209376859433204e-04 1.5727833028091112e-03 0.0000000000000000e+00  1.3545180813365367e-04 1.5878062209928631e-03 0.0000000000000000e+00  1.3862938084200740e-04 1.6019892459740658e-03 0.0000000000000000e+00  1.4157601262253439e-04 1.6154063878967818e-03 0.0000000000000000e+00  1.4406520069697450e-04 1.6281494245931562e-03 0.0000000000000000e+00  1.4596351162290993e-04 1.6395527057474898e-03 0.0000000000000000e+00  1.4842511068660709e-04 1.6514594542930540e-03 0.0000000000000000e+00  1.4960653696972979e-04 1.6635046134012667e-03 0.0000000000000000e+00  1.5005767769611159e-04 1.6755152324680559e-03 0.0000000000000000e+00  1.5031691052989313e-04 1.6882308007865054e-03 0.0000000000000000e+00  1.5059143853379914e-04 1.7015129107682762e-03 0.0000000000000000e+00  1.5080882066545098e-04 1.7150301798668527e-03 0.0000000000000000e+00  1.5102875266000259e-04 1.7286411961683981e-03 0.0000000000000000e+00  1.5126705621959971e-04 1.7426470426030137e-03 0.0000000000000000e+00  1.5146424210530919e-04 1.7574535281063839e-03 0.0000000000000000e+00  1.5143246264613297e-04 1.7736400691006761e-03 0.0000000000000000e+00  1.5096754910089768e-04 1.7916067388280717e-03 0.0000000000000000e+00  1.5001676870795652e-04 1.8109625854550633e-03 0.0000000000000000e+00  1.4830591477079180e-04 1.8328661149968947e-03 0.0000000000000000e+00  1.4663085123625252e-04 1.8566426321164086e-03 0.0000000000000000e+00  1.4537032846964306e-04 1.8819476177907954e-03 0.0000000000000000e+00  1.4143553725488045e-04 1.9109295895500950e-03 0.0000000000000000e+00  1.3736912289050895e-04 1.9422497378660045e-03 0.0000000000000000e+00  1.3472069223644312e-04 1.9753615990049469e-03 0.0000000000000000e+00  1.3240427228636888e-04 2.0101543542986816e-03 0.0000000000000000e+00  1.3966033162435683e-04 2.0467156830932124e-03 0.0000000000000000e+00  1.4419924979192086e-04 2.0822828943180263e-03 0.0000000000000000e+00  1.4725457004140808e-04 2.1173739418281308e-03 0.0000000000000000e+00  1.4937057535243720e-04 2.1519651403284013e-03 0.0000000000000000e+00  1.5007295485303150e-04 2.1858721072463973e-03 0.0000000000000000e+00  1.4826011226496736e-04 2.2193455812764638e-03 0.0000000000000000e+00  1.2355082531375391e-04 1.5722595205471793e-03 0.0000000000000000e+00  1.2623718792394395e-04 1.5874947822008489e-03 0.0000000000000000e+00  1.2870114718994204e-04 1.6019068391591041e-03 0.0000000000000000e+00  1.3092494754358278e-04 1.6155916617385576e-03 0.0000000000000000e+00  1.3286793113569711e-04 1.6286111010778573e-03 0.0000000000000000e+00  1.3447934349434374e-04 1.6407970911522269e-03 0.0000000000000000e+00  1.3572006518859165e-04 1.6528053240252541e-03 0.0000000000000000e+00  1.3665467933367861e-04 1.6648501206112810e-03 0.0000000000000000e+00  1.3711904732617854e-04 1.6754850180640901e-03 0.0000000000000000e+00  1.3700114444473657e-04 1.6882428582989377e-03 0.0000000000000000e+00  1.3691462059168560e-04 1.7017918735316366e-03 0.0000000000000000e+00  1.3670322369390531e-04 1.7154538987397532e-03 0.0000000000000000e+00  1.3646899940202649e-04 1.7288935753939196e-03 0.0000000000000000e+00  1.3623742578177636e-04 1.7426330160387029e-03 0.0000000000000000e+00  1.3594485702648197e-04 1.7571844891413081e-03 0.0000000000000000e+00  1.3524718921238010e-04 1.7733865234084076e-03 0.0000000000000000e+00  1.3383072087884033e-04 1.7915577501410338e-03 0.0000000000000000e+00  1.3255294839424245e-04 1.8108413962640273e-03 0.0000000000000000e+00  1.2893692584624292e-04 1.8330540344009508e-03 0.0000000000000000e+00  1.2530457212297377e-04 1.8568189865814620e-03 0.0000000000000000e+00  1.2535614378013840e-04 1.8852718464646150e-03 0.0000000000000000e+00  1.2495603195901070e-04 1.9168735696088646e-03 0.0000000000000000e+00  1.2314935754396023e-04 1.9480126000369345e-03 0.0000000000000000e+00  1.2164174783270513e-04 1.9800250792025276e-03 0.0000000000000000e+00  1.2119571498556135e-04 2.0131823580373989e-03 0.0000000000000000e+00  1.2260237359259442e-04 2.0464908699751945e-03 0.0000000000000000e+00  1.2505622903796347e-04 2.0813355976182783e-03 0.0000000000000000e+00  1.2738495747352904e-04 2.1158698600368805e-03 0.0000000000000000e+00  1.2950742713031856e-04 2.1498454976525182e-03 0.0000000000000000e+00  1.3153253201369047e-04 2.1831247557978022e-03 0.0000000000000000e+00  1.3386846103899541e-04 2.2153419556608565e-03 0.0000000000000000e+00  1.1729225370649271e-04 1.5879289958616147e-03 0.0000000000000000e+00  1.1904149628052370e-04 1.6025341079975747e-03 0.0000000000000000e+00  1.2060223640583929e-04 1.6164502677545726e-03 0.0000000000000000e+00  1.2193686816605106e-04 1.6297260505136908e-03 0.0000000000000000e+00  1.2299392067037173e-04 1.6423757161894629e-03 0.0000000000000000e+00  1.2370571482130804e-04 1.6547271318864297e-03 0.0000000000000000e+00  1.2410696194130100e-04 1.6669093068795858e-03 0.0000000000000000e+00  1.2412336366833871e-04 1.6785676087051316e-03 0.0000000000000000e+00  1.2355722733045678e-04 1.6908529512021230e-03 0.0000000000000000e+00  1.2305713077889600e-04 1.7022453089356900e-03 0.0000000000000000e+00  1.2285513404914193e-04 1.7161265855740269e-03 0.0000000000000000e+00  1.2253340949549990e-04 1.7292335747200491e-03 0.0000000000000000e+00  1.2219009739790321e-04 1.7425129251448736e-03 0.0000000000000000e+00  1.2185830784320167e-04 1.7565347754075586e-03 0.0000000000000000e+00  1.2110776654436649e-04 1.7727897965524131e-03 0.0000000000000000e+00  1.1953575753902688e-04 1.7909513721226082e-03 0.0000000000000000e+00  1.1590263176552030e-04 1.8108013967241771e-03 0.0000000000000000e+00  1.1626949083134868e-04 1.8382193185466173e-03 0.0000000000000000e+00  1.1427937033732523e-04 1.8637766608365159e-03 0.0000000000000000e+00  1.1206371947696329e-04 1.8913428896948075e-03 0.0000000000000000e+00  1.1030602712719617e-04 1.9216664148154852e-03 0.0000000000000000e+00  1.0886688899063550e-04 1.9526258370803423e-03 0.0000000000000000e+00  1.0763925766635080e-04 1.9839747268817830e-03 0.0000000000000000e+00  1.0701707541184800e-04 2.0159330675686474e-03 0.0000000000000000e+00  1.0722635579096865e-04 2.0482225670902070e-03 0.0000000000000000e+00  1.0813519488482743e-04 2.0814631696724571e-03 0.0000000000000000e+00  1.0965995179629764e-04 2.1148803122064855e-03 0.0000000000000000e+00  1.1154276102453181e-04 2.1478965607513957e-03 0.0000000000000000e+00  1.1376023501813815e-04 2.1801906510665876e-03 0.0000000000000000e+00  1.1640964866463117e-04 2.2113253785198497e-03 0.0000000000000000e+00  1.0958003940286528e-04 1.6038447619339347e-03 0.0000000000000000e+00  1.1051829616366461e-04 1.6179418163663390e-03 0.0000000000000000e+00  1.1127980576662632e-04 1.6314337779533266e-03 0.0000000000000000e+00  1.1181427992515961e-04 1.6443955878670089e-03 0.0000000000000000e+00  1.1206804435519641e-04 1.6570254052423847e-03 0.0000000000000000e+00  1.1204784633919635e-04 1.6694303542409031e-03 0.0000000000000000e+00  1.1175307991360279e-04 1.6816308654736131e-03 0.0000000000000000e+00  1.1105525422457784e-04 1.6940355431392653e-03 0.0000000000000000e+00  1.1024760859388621e-04 1.7047450665404157e-03 0.0000000000000000e+00  1.0979342459466371e-04 1.7169926142592518e-03 0.0000000000000000e+00  1.0967423934604410e-04 1.7294589319872048e-03 0.0000000000000000e+00  1.0958503696240995e-04 1.7420613817917823e-03 0.0000000000000000e+00  1.0959852247171217e-04 1.7550678876945367e-03 0.0000000000000000e+00  1.0909008548433038e-04 1.7711069845473720e-03 0.0000000000000000e+00  1.0919706089243651e-04 1.7935901346521337e-03 0.0000000000000000e+00  1.0701379191219290e-04 1.8169188816037857e-03 0.0000000000000000e+00  1.0425745593373636e-04 1.8428087263434886e-03 0.0000000000000000e+00  1.0189236469583516e-04 1.8696570405535749e-03 0.0000000000000000e+00  9.9204545123433231e-05 1.8974752281769181e-03 0.0000000000000000e+00  9.6728935204728369e-05 1.9268632719985387e-03 0.0000000000000000e+00  9.4796571529954743e-05 1.9570628503889592e-03 0.0000000000000000e+00  9.3330953526570774e-05 1.9877377701705465e-03 0.0000000000000000e+00  9.2365709476872746e-05 2.0188282620416009e-03 0.0000000000000000e+00  9.1983801210061258e-05 2.0502662639008875e-03 0.0000000000000000e+00  9.2193173153534049e-05 2.0822701899084932e-03 0.0000000000000000e+00  9.3057834836581701e-05 2.1144450278460566e-03 0.0000000000000000e+00  9.4499604354043539e-05 2.1463706073333684e-03 0.0000000000000000e+00  9.6429640348361922e-05 2.1776883824035495e-03 0.0000000000000000e+00  9.8777549505527364e-05 2.2080566621131741e-03 0.0000000000000000e+00  1.0063113846767437e-04 1.6200197902631673e-03 0.0000000000000000e+00  1.0088177291536296e-04 1.6336705523766855e-03 0.0000000000000000e+00  1.0095090949350853e-04 1.6468462786478112e-03 0.0000000000000000e+00  1.0078024547912274e-04 1.6596997197511939e-03 0.0000000000000000e+00  1.0032550718066640e-04 1.6723080049175561e-03 0.0000000000000000e+00  9.9596802416496787e-05 1.6847823973035198e-03 0.0000000000000000e+00  9.8739458654552602e-05 1.6976539668679695e-03 0.0000000000000000e+00  9.8487009451957792e-05 1.7083913916214584e-03 0.0000000000000000e+00  9.8294874779069201e-05 1.7181591851987842e-03 0.0000000000000000e+00  9.8151587584893775e-05 1.7295140832971343e-03 0.0000000000000000e+00  9.8228933482770935e-05 1.7413313813724436e-03 0.0000000000000000e+00  9.8410722165876403e-05 1.7534535038753604e-03 0.0000000000000000e+00  9.8936796560877442e-05 1.7645735525843678e-03 0.0000000000000000e+00  9.8513040050846195e-05 1.7955773963934435e-03 0.0000000000000000e+00  9.5733724664899647e-05 1.8218778399357240e-03 0.0000000000000000e+00  9.2378535236961444e-05 1.8484158475263039e-03 0.0000000000000000e+00  8.9128315639044257e-05 1.8754722923475797e-03 0.0000000000000000e+00  8.6023899692436789e-05 1.9033552087577026e-03 0.0000000000000000e+00  8.3177296032995826e-05 1.9321685425656638e-03 0.0000000000000000e+00  8.0814821319105421e-05 1.9616300260494653e-03 0.0000000000000000e+00  7.8971250784955275e-05 1.9915602725322306e-03 0.0000000000000000e+00  7.7644354658988528e-05 2.0218579843670793e-03 0.0000000000000000e+00  7.6851237261656299e-05 2.0524639542351896e-03 0.0000000000000000e+00  7.6617505935553586e-05 2.0834156385571320e-03 0.0000000000000000e+00  7.6998948168760653e-05 2.1144731697595050e-03 0.0000000000000000e+00  7.7972504856448589e-05 2.1453476106006821e-03 0.0000000000000000e+00  7.9461828449415070e-05 2.1757592866921780e-03 0.0000000000000000e+00  8.1353362945654737e-05 2.2054737639230527e-03 0.0000000000000000e+00  9.0747957229111260e-05 1.6363596478376043e-03 0.0000000000000000e+00  9.0462240044381252e-05 1.6496633311218337e-03 0.0000000000000000e+00  8.9992211829600168e-05 1.6626561514996802e-03 0.0000000000000000e+00  8.9369972974032456e-05 1.6754035216619296e-03 0.0000000000000000e+00  8.8562352727243718e-05 1.6877399124893848e-03 0.0000000000000000e+00  8.8313708340067651e-05 1.6996074445925645e-03 0.0000000000000000e+00  8.8239146225202906e-05 1.7089317386557029e-03 0.0000000000000000e+00  8.8056346745541336e-05 1.7187444237493968e-03 0.0000000000000000e+00  8.7815372446604481e-05 1.7294705042042360e-03 0.0000000000000000e+00  8.7741208495650255e-05 1.7405448802626572e-03 0.0000000000000000e+00  8.7827405647116576e-05 1.7521764066985301e-03 0.0000000000000000e+00  8.7926694708946062e-05 1.7714689976263899e-03 0.0000000000000000e+00  8.5087407235025670e-05 1.7992584114705247e-03 0.0000000000000000e+00  8.2569456666467365e-05 1.8269228989011470e-03 0.0000000000000000e+00  7.9312166295709966e-05 1.8541182145976329e-03 0.0000000000000000e+00  7.5849920106655239e-05 1.8813940016974499e-03 0.0000000000000000e+00  7.2473253612500747e-05 1.9091401412556989e-03 0.0000000000000000e+00  6.9380983554767568e-05 1.9374761104602181e-03 0.0000000000000000e+00  6.6723902153229363e-05 1.9662878742524440e-03 0.0000000000000000e+00  6.4563684175370870e-05 1.9954909453116969e-03 0.0000000000000000e+00  6.2918769058978687e-05 2.0250135960886971e-03 0.0000000000000000e+00  6.1798681203004886e-05 2.0547971399460232e-03 0.0000000000000000e+00  6.1220828441460438e-05 2.0848038260540386e-03 0.0000000000000000e+00  6.1214102299452126e-05 2.1148684561713787e-03 0.0000000000000000e+00  6.1762371255396254e-05 2.1447900870089054e-03 0.0000000000000000e+00  6.2802495713118340e-05 2.1743715441035847e-03 0.0000000000000000e+00  6.4229373287747702e-05 2.2034637564774581e-03 0.0000000000000000e+00  8.0298425756336337e-05 1.6527624820402037e-03 0.0000000000000000e+00  7.9658160055974309e-05 1.6658620751244003e-03 0.0000000000000000e+00  7.8840923655568856e-05 1.6784784400343340e-03 0.0000000000000000e+00  7.8679916853940381e-05 1.6908122194757083e-03 0.0000000000000000e+00  7.8644479222599593e-05 1.6999712932317225e-03 0.0000000000000000e+