<?xml version="1.0"?>
<VTKFile type="UnstructuredGrid"  version="0.1"  >
<UnstructuredGrid>
<Piece  NumberOfPoints="650" NumberOfCells="1199">
<Points>
<DataArray  type="Float64"  NumberOfComponents="3"  format="ascii">3.238260869565217 0 0  3.254782608695652 0 0  3.254782608695652 0.01666666666666667 0  3.238260869565217 0.01666666666666667 0  3.271304347826087 0 0  3.271304347826087 0.01666666666666667 0  3.287826086956521 0 0  3.287826086956521 0.01666666666666667 0  3.304347826086957 0 0  3.304347826086957 0.01666666666666667 0  3.320869565217391 0 0  3.320869565217391 0.01666666666666667 0  3.337391304347826 0 0  3.337391304347826 0.01666666666666667 0  3.353913043478261 0 0  3.353913043478261 0.01666666666666667 0  3.370434782608696 0 0  3.370434782608696 0.01666666666666667 0  3.386956521739131 0 0  3.386956521739131 0.01666666666666667 0  3.403478260869565 0 0  3.403478260869565 0.01666666666666667 0  3.419999999999999 0 0  3.419999999999999 0.01666666666666667 0  3.436521739130435 0 0  3.436521739130435 0.01666666666666667 0  3.453043478260869 0 0  3.453043478260869 0.01666666666666667 0  3.469565217391304 0 0  3.469565217391304 0.01666666666666667 0  3.486086956521739 0 0  3.486086956521739 0.01666666666666667 0  3.502608695652174 0 0  3.502608695652174 0.01666666666666667 0  3.519130434782609 0 0  3.519130434782609 0.01666666666666667 0  3.535652173913043 0 0  3.535652173913043 0.01666666666666667 0  3.552173913043478 0 0  3.552173913043478 0.01666666666666667 0  3.568695652173913 0 0  3.568695652173913 0.01666666666666667 0  3.585217391304347 0 0  3.585217391304347 0.01666666666666667 0  3.601739130434782 0 0  3.601739130434782 0.01666666666666667 0  3.618260869565217 0 0  3.618260869565217 0.01666666666666667 0  3.634782608695652 0 0  3.634782608695652 0.01666666666666667 0  3.651304347826087 0 0  3.651304347826087 0.01666666666666667 0  3.667826086956521 0 0  3.667826086956521 0.01666666666666667 0  3.684347826086956 0 0  3.684347826086956 0.01666666666666667 0  3.700869565217391 0 0  3.700869565217391 0.01666666666666667 0  3.717391304347826 0 0  3.717391304347826 0.01666666666666667 0  3.733913043478261 0 0  3.733913043478261 0.01666666666666667 0  3.750434782608695 0 0  3.750434782608695 0.01666666666666667 0  3.766956521739131 0 0  3.766956521739131 0.01666666666666667 0  3.783478260869565 0 0  3.783478260869565 0.01666666666666667 0  3.8 0 0  3.8 0.01666666666666667 0  3.254782608695652 0.03333333333333333 0  3.271304347826087 0.03333333333333333 0  3.287826086956521 0.03333333333333333 0  3.304347826086957 0.03333333333333333 0  3.320869565217391 0.03333333333333333 0  3.337391304347826 0.03333333333333333 0  3.353913043478261 0.03333333333333333 0  3.370434782608696 0.03333333333333333 0  3.386956521739131 0.03333333333333333 0  3.403478260869565 0.03333333333333333 0  3.419999999999999 0.03333333333333333 0  3.436521739130435 0.03333333333333333 0  3.453043478260869 0.03333333333333333 0  3.469565217391304 0.03333333333333333 0  3.486086956521739 0.03333333333333333 0  3.502608695652174 0.03333333333333333 0  3.519130434782609 0.03333333333333333 0  3.535652173913043 0.03333333333333333 0  3.552173913043478 0.03333333333333333 0  3.568695652173913 0.03333333333333333 0  3.585217391304347 0.03333333333333333 0  3.601739130434782 0.03333333333333333 0  3.618260869565217 0.03333333333333333 0  3.634782608695652 0.03333333333333333 0  3.651304347826087 0.03333333333333333 0  3.667826086956521 0.03333333333333333 0  3.684347826086956 0.03333333333333333 0  3.700869565217391 0.03333333333333333 0  3.717391304347826 0.03333333333333333 0  3.733913043478261 0.03333333333333333 0  3.750434782608695 0.03333333333333333 0  3.766956521739131 0.03333333333333333 0  3.783478260869565 0.03333333333333333 0  3.8 0.03333333333333333 0  3.271304347826087 0.05 0  3.287826086956521 0.05 0  3.304347826086957 0.05 0  3.320869565217391 0.05 0  3.337391304347826 0.05 0  3.353913043478261 0.05 0  3.370434782608696 0.05 0  3.386956521739131 0.05 0  3.403478260869565 0.05 0  3.419999999999999 0.05 0  3.436521739130435 0.05 0  3.453043478260869 0.05 0  3.469565217391304 0.05 0  3.486086956521739 0.05 0  3.502608695652174 0.05 0  3.519130434782609 0.05 0  3.535652173913043 0.05 0  3.552173913043478 0.05 0  3.568695652173913 0.05 0  3.585217391304347 0.05 0  3.601739130434782 0.05 0  3.618260869565217 0.05 0  3.634782608695652 0.05 0  3.651304347826087 0.05 0  3.667826086956521 0.05 0  3.684347826086956 0.05 0  3.700869565217391 0.05 0  3.717391304347826 0.05 0  3.733913043478261 0.05 0  3.750434782608695 0.05 0  3.766956521739131 0.05 0  3.783478260869565 0.05 0  3.8 0.05 0  3.287826086956521 0.06666666666666667 0  3.304347826086957 0.06666666666666667 0  3.320869565217391 0.06666666666666667 0  3.337391304347826 0.06666666666666667 0  3.353913043478261 0.06666666666666667 0  3.370434782608696 0.06666666666666667 0  3.386956521739131 0.06666666666666667 0  3.403478260869565 0.06666666666666667 0  3.419999999999999 0.06666666666666667 0  3.436521739130435 0.06666666666666667 0  3.453043478260869 0.06666666666666667 0  3.469565217391304 0.06666666666666667 0  3.486086956521739 0.06666666666666667 0  3.502608695652174 0.06666666666666667 0  3.519130434782609 0.06666666666666667 0  3.535652173913043 0.06666666666666667 0  3.552173913043478 0.06666666666666667 0  3.568695652173913 0.06666666666666667 0  3.585217391304347 0.06666666666666667 0  3.601739130434782 0.06666666666666667 0  3.618260869565217 0.06666666666666667 0  3.634782608695652 0.06666666666666667 0  3.651304347826087 0.06666666666666667 0  3.667826086956521 0.06666666666666667 0  3.684347826086956 0.06666666666666667 0  3.700869565217391 0.06666666666666667 0  3.717391304347826 0.06666666666666667 0  3.733913043478261 0.06666666666666667 0  3.750434782608695 0.06666666666666667 0  3.766956521739131 0.06666666666666667 0  3.783478260869565 0.06666666666666667 0  3.8 0.06666666666666667 0  3.304347826086957 0.08333333333333333 0  3.320869565217391 0.08333333333333333 0  3.337391304347826 0.08333333333333333 0  3.353913043478261 0.08333333333333333 0  3.370434782608696 0.08333333333333333 0  3.386956521739131 0.08333333333333333 0  3.403478260869565 0.08333333333333333 0  3.419999999999999 0.08333333333333333 0  3.436521739130435 0.08333333333333333 0  3.453043478260869 0.08333333333333333 0  3.469565217391304 0.08333333333333333 0  3.486086956521739 0.08333333333333333 0  3.502608695652174 0.08333333333333333 0  3.519130434782609 0.08333333333333333 0  3.535652173913043 0.08333333333333333 0  3.552173913043478 0.08333333333333333 0  3.568695652173913 0.08333333333333333 0  3.585217391304347 0.08333333333333333 0  3.601739130434782 0.08333333333333333 0  3.618260869565217 0.08333333333333333 0  3.634782608695652 0.08333333333333333 0  3.651304347826087 0.08333333333333333 0  3.667826086956521 0.08333333333333333 0  3.684347826086956 0.08333333333333333 0  3.700869565217391 0.08333333333333333 0  3.717391304347826 0.08333333333333333 0  3.733913043478261 0.08333333333333333 0  3.750434782608695 0.08333333333333333 0  3.766956521739131 0.08333333333333333 0  3.783478260869565 0.08333333333333333 0  3.8 0.08333333333333333 0  3.320869565217391 0.1 0  3.337391304347826 0.1 0  3.353913043478261 0.1 0  3.370434782608696 0.1 0  3.386956521739131 0.1 0  3.403478260869565 0.1 0  3.419999999999999 0.1 0  3.436521739130435 0.1 0  3.453043478260869 0.1 0  3.469565217391304 0.1 0  3.486086956521739 0.1 0  3.502608695652174 0.1 0  3.519130434782609 0.1 0  3.535652173913043 0.1 0  3.552173913043478 0.1 0  3.568695652173913 0.1 0  3.585217391304347 0.1 0  3.601739130434782 0.1 0  3.618260869565217 0.1 0  3.634782608695652 0.1 0  3.651304347826087 0.1 0  3.667826086956521 0.1 0  3.684347826086956 0.1 0  3.700869565217391 0.1 0  3.717391304347826 0.1 0  3.733913043478261 0.1 0  3.750434782608695 0.1 0  3.766956521739131 0.1 0  3.783478260869565 0.1 0  3.8 0.1 0  3.337391304347826 0.1166666666666667 0  3.353913043478261 0.1166666666666667 0  3.370434782608696 0.1166666666666667 0  3.386956521739131 0.1166666666666667 0  3.403478260869565 0.1166666666666667 0  3.419999999999999 0.1166666666666667 0  3.436521739130435 0.1166666666666667 0  3.453043478260869 0.1166666666666667 0  3.469565217391304 0.1166666666666667 0  3.486086956521739 0.1166666666666667 0  3.502608695652174 0.1166666666666667 0  3.519130434782609 0.1166666666666667 0  3.535652173913043 0.1166666666666667 0  3.552173913043478 0.1166666666666667 0  3.568695652173913 0.1166666666666667 0  3.585217391304347 0.1166666666666667 0  3.601739130434782 0.1166666666666667 0  3.618260869565217 0.1166666666666667 0  3.634782608695652 0.1166666666666667 0  3.651304347826087 0.1166666666666667 0  3.667826086956521 0.1166666666666667 0  3.684347826086956 0.1166666666666667 0  3.700869565217391 0.1166666666666667 0  3.717391304347826 0.1166666666666667 0  3.733913043478261 0.1166666666666667 0  3.750434782608695 0.1166666666666667 0  3.766956521739131 0.1166666666666667 0  3.783478260869565 0.1166666666666667 0  3.8 0.1166666666666667 0  3.353913043478261 0.1333333333333333 0  3.370434782608696 0.1333333333333333 0  3.386956521739131 0.1333333333333333 0  3.403478260869565 0.1333333333333333 0  3.419999999999999 0.1333333333333333 0  3.436521739130435 0.1333333333333333 0  3.453043478260869 0.1333333333333333 0  3.469565217391304 0.1333333333333333 0  3.486086956521739 0.1333333333333333 0  3.502608695652174 0.1333333333333333 0  3.519130434782609 0.1333333333333333 0  3.535652173913043 0.1333333333333333 0  3.552173913043478 0.1333333333333333 0  3.568695652173913 0.1333333333333333 0  3.585217391304347 0.1333333333333333 0  3.601739130434782 0.1333333333333333 0  3.618260869565217 0.1333333333333333 0  3.634782608695652 0.1333333333333333 0  3.651304347826087 0.1333333333333333 0  3.667826086956521 0.1333333333333333 0  3.684347826086956 0.1333333333333333 0  3.700869565217391 0.1333333333333333 0  3.717391304347826 0.13333333
[...]
<PointData  Vectors="Displacement"> 
<DataArray  type="Float64"  Name="Displacement"  NumberOfComponents="3" format="ascii">9.1546074414448908e-04 9.4895310166614923e-03 0.0000000000000000e+00  9.7605833015591283e-04 9.5333211121057231e-03 0.0000000000000000e+00  9.2836146310671546e-04 9.5154283547298820e-03 0.0000000000000000e+00  8.7999388206670703e-04 9.4709754431658421e-03 0.0000000000000000e+00  1.0342278703972811e-03 9.5897910409524102e-03 0.0000000000000000e+00  9.7449518319072043e-04 9.5727121950166961e-03 0.0000000000000000e+00  1.0893686312008074e-03 9.6588966680783168e-03 0.0000000000000000e+00  1.0179038823053233e-03 9.6428109484979225e-03 0.0000000000000000e+00  1.1405878720396933e-03 9.7406719639418840e-03 0.0000000000000000e+00  1.0578619455542870e-03 9.7259032849324537e-03 0.0000000000000000e+00  1.1868127416136420e-03 9.8346466717436579e-03 0.0000000000000000e+00  1.0935624585007768e-03 9.8215416508022884e-03 0.0000000000000000e+00  1.2270281828225399e-03 9.9397796553192166e-03 0.0000000000000000e+00  1.1242831837133915e-03 9.9286227117688693e-03 0.0000000000000000e+00  1.2603654527951560e-03 1.0054716156051118e-02 0.0000000000000000e+00  1.1494016142595722e-03 1.0045748350745377e-02 0.0000000000000000e+00  1.2861530595297296e-03 1.0177812172892934e-02 0.0000000000000000e+00  1.1684388812113907e-03 1.0171211708660087e-02 0.0000000000000000e+00  1.3039876235844642e-03 1.0307173514014971e-02 0.0000000000000000e+00  1.1811208535805395e-03 1.0303027602757479e-02 0.0000000000000000e+00  1.3137835654217877e-03 1.0440773092215848e-02 0.0000000000000000e+00  1.1874121170360645e-03 1.0439066477034645e-02 0.0000000000000000e+00  1.3157777615704471e-03 1.0576592638397789e-02 0.0000000000000000e+00  1.1875154736347019e-03 1.0577212932626251e-02 0.0000000000000000e+00  1.3104947104018746e-03 1.0712745836746853e-02 0.0000000000000000e+00  1.1818456066469991e-03 1.0715499482969786e-02 0.0000000000000000e+00  1.2986906285293708e-03 1.0847562765907216e-02 0.0000000000000000e+00  1.1709902885209279e-03 1.0852194034178876e-02 0.0000000000000000e+00  1.2812912393837755e-03 1.0979640835722006e-02 0.0000000000000000e+00  1.1556671685060307e-03 1.0985850748774950e-02 0.0000000000000000e+00  1.2593309332718800e-03 1.1107870690973555e-02 0.0000000000000000e+00  1.1366802940414285e-03 1.1115334740627945e-02 0.0000000000000000e+00  1.2338964292683394e-03 1.1231443762378144e-02 0.0000000000000000e+00  1.1148784285129620e-03 1.1239828184779772e-02 0.0000000000000000e+00  1.2060768952142484e-03 1.1349844444491594e-02 0.0000000000000000e+00  1.0911171708123735e-03 1.1358820438656459e-02 0.0000000000000000e+00  1.1769222364231746e-03 1.1462829879916063e-02 0.0000000000000000e+00  1.0662266028802971e-03 1.1472085177811267e-02 0.0000000000000000e+00  1.1474103546579141e-03 1.1570401411884845e-02 0.0000000000000000e+00  1.0409852342444504e-03 1.1579649077478259e-02 0.0000000000000000e+00  1.1184230813848246e-03 1.1672771566808265e-02 0.0000000000000000e+00  1.0161001639806908e-03 1.1681756244794462e-02 0.0000000000000000e+00  1.0907297210493412e-03 1.1770329559471883e-02 0.0000000000000000e+00  9.9219285439397270e-04 1.1778831560696536e-02 0.0000000000000000e+00  1.0649767077394547e-03 1.1863607415129091e-02 0.0000000000000000e+00  9.6978959332059077e-04 1.1871445114856778e-02 0.0000000000000000e+00  1.0416817249517968e-03 1.1953247886184057e-02 0.0000000000000000e+00  9.4931560260140156e-04 1.1960278919164140e-02 0.0000000000000000e+00  1.0212307123129802e-03 1.2039974495576301e-02 0.0000000000000000e+00  9.3109180452752478e-04 1.2046096174735167e-02 0.0000000000000000e+00  1.0038764052372655e-03 1.2124563337118812e-02 0.0000000000000000e+00  9.1533343044458259e-04 1.2129712633407308e-02 0.0000000000000000e+00  9.8973735605101449e-04 1.2207815675758090e-02 0.0000000000000000e+00  9.0214990589548209e-04 1.2211968997270086e-02 0.0000000000000000e+00  9.7879674560246506e-04 1.2290529831770034e-02 0.0000000000000000e+00  8.9154576013218657e-04 1.2293702745127567e-02 0.0000000000000000e+00  9.7090074946898635e-04 1.2373470185424645e-02 0.0000000000000000e+00  8.8342268677311106e-04 1.2375717153278745e-02 0.0000000000000000e+00  9.6575689862617620e-04 1.2457330244162942e-02 0.0000000000000000e+00  8.7758332863798144e-04 1.2458744463353190e-02 0.0000000000000000e+00  9.6293407237563221e-04 1.2542685350420300e-02 0.0000000000000000e+00  8.7373783459253297e-04 1.2543398998596132e-02 0.0000000000000000e+00  9.6186817043921802e-04 1.2629928525191306e-02 0.0000000000000000e+00  8.7151455521112067e-04 1.2630114435324635e-02 0.0000000000000000e+00  9.6188277106653913e-04 1.2719180331714717e-02 0.0000000000000000e+00  8.7047584484562651e-04 1.2719057542289604e-02 0.0000000000000000e+00  9.6224703412521866e-04 1.2810165038879511e-02 0.0000000000000000e+00  8.7013755806215605e-04 1.2810009368456205e-02 0.0000000000000000e+00  9.6234191996618268e-04 1.2902102815095592e-02 0.0000000000000000e+00  8.6998437710682035e-04 1.2902201910669818e-02 0.0000000000000000e+00  8.8622757668293172e-04 9.5008732982373618e-03 0.0000000000000000e+00  9.2159959213943107e-04 9.5587155642764474e-03 0.0000000000000000e+00  9.5483037576244898e-04 9.6294392460422491e-03 0.0000000000000000e+00  9.8522290622682514e-04 9.7136265236913467e-03 0.0000000000000000e+00  1.0120040358697769e-03 9.8107904762921392e-03 0.0000000000000000e+00  1.0346015792964574e-03 9.9196387234580918e-03 0.0000000000000000e+00  1.0525274759993889e-03 1.0038765922989214e-02 0.0000000000000000e+00  1.0653903479930147e-03 1.0166417590634960e-02 0.0000000000000000e+00  1.0729808375550343e-03 1.0300500048423646e-02 0.0000000000000000e+00  1.0753077235240555e-03 1.0438764685080653e-02 0.0000000000000000e+00  1.0725854113031270e-03 1.0578996006731482e-02 0.0000000000000000e+00  1.0651973247038015e-03 1.0719155369993016e-02 0.0000000000000000e+00  1.0536569508930616e-03 1.0857462798262262e-02 0.0000000000000000e+00  1.0385719840384315e-03 1.0992442633259663e-02 0.0000000000000000e+00  1.0206110182665428e-03 1.1122945155417587e-02 0.0000000000000000e+00  1.0004715294845165e-03 1.1248151678030269e-02 0.0000000000000000e+00  9.7885045692700109e-04 1.1367562786480146e-02 0.0000000000000000e+00  9.5641939586053914e-04 1.1480972503631967e-02 0.0000000000000000e+00  9.3380508226844911e-04 1.1588434071125807e-02 0.0000000000000000e+00  9.1157487987862716e-04 1.1690221990555158e-02 0.0000000000000000e+00  8.9022665021796013e-04 1.1786793496256267e-02 0.0000000000000000e+00  8.7018221341135960e-04 1.1878751671054033e-02 0.0000000000000000e+00  8.5178357797870607e-04 1.1966811336964714e-02 0.0000000000000000e+00  8.3529123187107231e-04 1.2051767883602156e-02 0.0000000000000000e+00  8.2088396419130287e-04 1.2134468476662989e-02 0.0000000000000000e+00  8.0865987577145317e-04 1.2215784540206996e-02 0.0000000000000000e+00  7.9863841135423123e-04 1.2296583931718754e-02 0.0000000000000000e+00  7.9076336674182191e-04 1.2377700757884809e-02 0.0000000000000000e+00  7.8490679854958034e-04 1.2459900269600544e-02 0.0000000000000000e+00  7.8087339430532707e-04 1.2543835734528283e-02 0.0000000000000000e+00  7.7840374860029871e-04 1.2629993750055465e-02 0.0000000000000000e+00  7.7717238140118431e-04 1.2718624496785147e-02 0.0000000000000000e+00  7.7677081749821970e-04 1.2809654188302544e-02 0.0000000000000000e+00  7.7665398795966230e-04 1.2902573721523876e-02 0.0000000000000000e+00  8.7463777585420949e-04 9.5469553285818382e-03 0.0000000000000000e+00  8.9887063798831709e-04 9.6176904653957080e-03 0.0000000000000000e+00  9.2091874366726455e-04 9.7027588607643302e-03 0.0000000000000000e+00  9.3987543735623181e-04 9.8014599801720965e-03 0.0000000000000000e+00  9.5528139033813182e-04 9.9120571150409977e-03 0.0000000000000000e+00  9.6670237853647913e-04 1.0033241895759423e-02 0.0000000000000000e+00  9.7374585783755515e-04 1.0163217400973576e-02 0.0000000000000000e+00  9.7622268126802128e-04 1.0299717556392123e-02 0.0000000000000000e+00  9.7418779439139148e-04 1.0440317158363037e-02 0.0000000000000000e+00  9.6790276204070992e-04 1.0582670663671270e-02 0.0000000000000000e+00  9.5777397803210049e-04 1.0724665972920090e-02 0.0000000000000000e+00  9.4430446254764502e-04 1.0864484738963140e-02 0.0000000000000000e+00  9.2805971106656789e-04 1.1000634704469292e-02 0.0000000000000000e+00  9.0964039592170533e-04 1.1131964866930450e-02 0.0000000000000000e+00  8.8965599298600380e-04 1.1257669961677779e-02 0.0000000000000000e+00  8.6870064357066781e-04 1.1377276068274525e-02 0.0000000000000000e+00  8.4733424152851923e-04 1.1490610084589572e-02 0.0000000000000000e+00  8.2606907721501175e-04 1.1597761488295126e-02 0.0000000000000000e+00  8.0536110660365699e-04 1.1699041547290052e-02 0.0000000000000000e+00  7.8560490584200890e-04 1.1794942875008874e-02 0.0000000000000000e+00  7.6713134194716503e-04 1.1886101523554758e-02 0.0000000000000000e+00  7.5020707565475017e-04 1.1973262585075107e-02 0.0000000000000000e+00  7.3503524685827860e-04 1.2057249231400434e-02 0.0000000000000000e+00  7.2175691680773091e-04 1.2138934490507501e-02 0.0000000000000000e+00  7.1045298549488229e-04 1.2219214641395934e-02 0.0000000000000000e+00  7.0114635111992029e-04 1.2298982791772590e-02 0.0000000000000000e+00  6.9380399049074151e-04 1.2379100966240335e-02 0.0000000000000000e+00  6.8833831687383515e-04 1.2460368917773445e-02 0.0000000000000000e+00  6.8460644507713035e-04 1.2543487999836948e-02 0.0000000000000000e+00  6.8240459982531752e-04 1.2629019080023269e-02 0.0000000000000000e+00  6.8145246360091886e-04 1.2717335188286962e-02 0.0000000000000000e+00  6.8135820673894320e-04 1.2808573151919857e-02 0.0000000000000000e+00  6.8154794449346056e-04 1.2902594292789907e-02 0.0000000000000000e+00  8.4874267678924258e-04 9.6065699255467336e-03 0.0000000000000000e+00  8.6334798481953775e-04 9.6924306675260589e-03 0.0000000000000000e+00  8.7518503629811957e-04 9.7929046664874484e-03 0.0000000000000000e+00  8.8401372752770226e-04 9.9053082712422854e-03 0.0000000000000000e+00  8.8938270507173134e-04 1.0028791628059920e-02 0.0000000000000000e+00  8.9079531065446894e-04 1.0161495620443609e-02 0.0000000000000000e+00  8.8805247555191736e-04 1.0300843574966134e-02 0.0000000000000000e+00  8.8127478540701973e-04 1.0444136277338605e-02 0.0000000000000000e+00  8.7081123308145028e-04 1.0588852610768813e-02 0.0000000000000000e+00  8.5713407337987310e-04 1.0732805606253963e-02 0.0000000000000000e+00  8.4077929645757891e-04 1.0874148857957634e-02 0.0000000000000000e+00  8.2231519484285247e-04 1.1011387192335324e-02 0.0000000000000000e+00  8.0232076300912152e-04 1.1143382800094401e-02 0.0000000000000000e+00  7.8136180700614469e-04 1.1269362121191909e-02 0.0000000000000000e+00  7.5996899850361136e-04 1.1388897192297470e-02 0.0000000000000000e+00  7.3862357735152173e-04 1.1501866896662903e-02 0.0000000000000000e+00  7.1774997230764981e-04 1.1608412831055693e-02 0.0000000000000000e+00  6.9771312548906552e-04 1.1708894959070869e-02 0.0000000000000000e+00  6.7881910165963773e-04 1.1803848998377333e-02 0.0000000000000000e+00  6.6131762951362127e-04 1.1893947803754990e-02 0.0000000000000000e+00  6.4540543169847259e-04 1.1979967385562076e-02 0.0000000000000000e+00  6.3122963930280684e-04 1.2062757050456232e-02 0.0000000000000000e+00  6.1889090169702432e-04 1.2143212736079786e-02 0.0000000000000000e+00  6.0844592990975130e-04 1.2222252414570598e-02 0.0000000000000000e+00  5.9990918715162680e-04 1.2300792321949094e-02 0.0000000000000000e+00  5.9325325548658574e-04 1.2379722777803481e-02 0.0000000000000000e+00  5.8840700037332344e-04 1.2459882596731251e-02 0.0000000000000000e+00  5.8524993830682984e-04 1.2542031714087595e-02 0.0000000000000000e+00  5.8360010714352212e-04 1.2626822948358546e-02 0.0000000000000000e+00  5.8319121331513329e-04 1.2714776358076501e-02 0.0000000000000000e+00  5.8363298770522549e-04 1.2806264415064527e-02 0.0000000000000000e+00  5.8434694265047202e-04 1.2901525407867639e-02 0.0000000000000000e+00  8.1101161118098922e-04 9.6818868386144077e-03 0.0000000000000000e+00  8.1608206790484438e-04 9.7847392231471750e-03 0.0000000000000000e+00  8.1874332042454804e-04 9.8989165223801294e-03 0.0000000000000000e+00  8.1836394881934580e-04 1.0025100030833343e-02 0.0000000000000000e+00  8.1419523579222318e-04 1.0161215596164884e-02 0.0000000000000000e+00  8.0603223536831374e-04 1.0304099673724979e-02 0.0000000000000000e+00  7.9411438330419725e-04 1.0450643600064832e-02 0.0000000000000000e+00  7.7893219681092517e-04 1.0598103911570789e-02 0.0000000000000000e+00  7.6105851251756528e-04 1.0744237826547497e-02 0.0000000000000000e+00  7.4108813348977012e-04 1.0887188342551262e-02 0.0000000000000000e+00  7.1961815167658990e-04 1.1025472432208017e-02 0.0000000000000000e+00  6.9723539515197683e-04 1.1157978853398002e-02 0.0000000000000000e+00  6.7449110819321615e-04 1.1283987510025408e-02 0.0000000000000000e+00  6.5187747778125687e-04 1.1403142901253945e-02 0.0000000000000000e+00  6.2981742057579952e-04 1.1515400543443237e-02 0.0000000000000000e+00  6.0866359754228286e-04 1.1620974720614130e-02 0.0000000000000000e+00  5.8870214143661641e-04 1.1720289993437579e-02 0.0000000000000000e+00  5.7015936183666348e-04 1.1813936062205439e-02 0.0000000000000000e+00  5.5320954592344375e-04 1.1902628900460257e-02 0.0000000000000000e+00  5.3798230856139562e-04 1.1987178146189752e-02 0.0000000000000000e+00  5.2456874272911454e-04 1.2068459432140842e-02 0.0000000000000000e+00  5.1302606165203892e-04 1.2147390399750359e-02 0.0000000000000000e+00  5.0338053723814611e-04 1.2224909254269625e-02 0.0000000000000000e+00  4.9562848295116172e-04 1.2301954794872149e-02 0.0000000000000000e+00  4.8973483790934556e-04 1.2379447059369070e-02 0.0000000000000000e+00  4.8562854828993190e-04 1.2458268214251913e-02 0.0000000000000000e+00  4.8319339550413962e-04 1.2539244219283936e-02 0.0000000000000000e+00  4.8225224345728701e-04 1.2623129311560084e-02 0.0000000000000000e+00  4.8254204897662167e-04 1.2710597898279221e-02 0.0000000000000000e+00  4.8367682792931950e-04 1.2802252758744736e-02 0.0000000000000000e+00  4.8509713007398347e-04 1.2898666058846452e-02 0.0000000000000000e+00  7.6062644985084335e-04 9.7768892585000360e-03 0.0000000000000000e+00  7.5760358681155196e-04 9.8923546386302606e-03 0.0000000000000000e+00  7.5169629740743347e-04 1.0021863861563625e-02 0.0000000000000000e+00  7.4182362352810259e-04 1.0162430060507634e-02 0.0000000000000000e+00  7.2790710083855969e-04 1.0309797625963643e-02 0.0000000000000000e+00  7.1040964227237911e-04 1.0460307008674582e-02 0.0000000000000000e+00  6.9002679491538487e-04 1.0610968393878871e-02 0.0000000000000000e+00  6.6744761860925989e-04 1.0759554126991911e-02 0.0000000000000000e+00  6.4332936669992237e-04 1.0904223281536948e-02 0.0000000000000000e+00  6.1830582687179931e-04 1.1043519756909393e-02 0.0000000000000000e+00  5.9298869567503919e-04 1.1176366692296541e-02 0.0000000000000000e+00  5.6793207743815761e-04 1.1302123756316593e-02 0.0000000000000000e+00  5.4360198738910223e-04 1.1420542132154640e-02 0.0000000000000000e+00  5.2037152085994312e-04 1.1531683709306427e-02 0.0000000000000000e+00  4.9852779423098341e-04 1.1635859472537497e-02 0.0000000000000000e+00  4.7828253142018207e-04 1.1733577104823570e-02 0.0000000000000000e+00  4.5978531956184150e-04 1.1825492781483283e-02 0.0000000000000000e+00  4.4313692687945140e-04 1.1912372869769596e-02 0.0000000000000000e+00  4.2840058849916499e-04 1.1995064045661020e-02 0.0000000000000000e+00  4.1561063866452731e-04 1.2074469084092940e-02 0.0000000000000000e+00  4.0477840750388031e-04 1.2151526706191877e-02 0.0000000000000000e+00  3.9589533819069512e-04 1.2227194348184381e-02 0.0000000000000000e+00  3.8893320270464744e-04 1.2302432913121577e-02 0.0000000000000000e+00  3.8384115044739873e-04 1.2378192892153179e-02 0.0000000000000000e+00  3.8053906196199852e-04 1.2455401899049704e-02 0.0000000000000000e+00  3.7890631756596244e-04 1.2534954668577868e-02 0.0000000000000000e+00  3.7876476506966053e-04 1.2617707987812855e-02 0.0000000000000000e+00  3.7985465087525598e-04 1.2704485070495928e-02 0.0000000000000000e+00  3.8180304302296708e-04 1.2796096890399249e-02 0.0000000000000000e+00  3.8408675050455483e-04 1.2893392381044375e-02 0.0000000000000000e+00  6.9946896931519470e-04 9.8848527829625624e-03 0.0000000000000000e+00  6.8777464275655809e-04 1.0018823604653728e-02 0.0000000000000000e+00  6.7160796869548609e-04 1.0165352085636577e-02 0.0000000000000000e+00  6.5139192810677858e-04 1.0318384373348921e-02 0.0000000000000000e+00  6.2784222788926788e-04 1.0473666509611314e-02 0.0000000000000000e+00  6.0186509258932318e-04 1.0627980507236878e-02 0.0000000000000000e+00  5.7423057191851256e-04 1.0779285834519103e-02 0.0000000000000000e+00  5.4563450623466251e-04 1.0925779215266412e-02 0.0000000000000000e+00  5.1674065556769780e-04 1.1066039778666133e-02 0.0000000000000000e+00  4.8819736645550483e-04 1.1199017587753950e-02 0.0000000000000000e+00  4.6057122718330261e-04 1.1324187720350876e-02 0.0000000000000000e+00  4.3430222723506639e-04 1.1441454297985027e-02 0.0000000000000000e+00  4.0971069693108259e-04 1.1551019739512666e-02 0.0000000000000000e+00  3.8701542378580207e-04 1.1653317751838416e-02 0.0000000000000000e+00  3.6635120089793523e-04 1.1748959074934506e-02 0.0000000000000000e+00  3.4778911056924423e-04 1.1838678821993671e-02 0.0000000000000000e+00  3.3135550035748068e-04 1.1923300320494165e-02 0.0000000000000000e+00  3.1704677604882272e-04 1.2003709948508622e-02 0.0000000000000000e+00  3.0483996641922758e-04 1.2080837798548415e-02 0.0000000000000000e+00  2.9469943462998168e-04 1.2155642460965935e-02 0.0000000000000000e+00  2.8657990302027083e-04 1.2229098929081479e-02 0.0000000000000000e+00  2.8042585651372957e-04 1.2302188746906126e-02 0.0000000000000000e+00  2.7616733743489878e-04 1.2375891870014619e-02 0.0000000000000000e+00  2.7371198516773650e-04 1.2451180504535454e-02 0.0000000000000000e+00  2.7293292883897821e-04 1.2529016230083252e-02 0.0000000000000000e+00  2.7365200662338992e-04 1.2610352872903808e-02 0.0000000000000000e+00  2.7561805412422760e-04 1.2696148928375122e-02 0.0000000000000000e+00  2.7848106330522995e-04 1.2787394903638151e-02 0.0000000000000000e+00  2.8176543290633877e-04 1.2885162517284301e-02 0.0000000000000000e+00  6.2526456736137126e-04 1.0016235291703941e-02 0.0000000000000000e+00  6.0077445896946247e-04 1.0170461005694294e-02 0.0000000000000000e+00  5.7372229594852744e-04 1.0330433474037797e-02 0.0000000000000000e+00  5.4386292101398328e-04 1.0491317905109989e-02 0.0000000000000000e+00  5.1212629104200116e-04 1.0649633884381969e-02 0.0000000000000000e+00  4.7930663233395108e-04 1.0803890081707738e-02 0.0000000000000000e+00  4.4612973870515095e-04 1.0952285872750916e-02 0.0000000000000000e+00  4.1328854561231557e-04 1.1093433318702165e-02 0.0000000000000000e+00  3.8148769940295402e-04 1.1226268065500207e-02 0.0000000000000000e+00  3.5131006184792649e-04 1.1350440737805561e-02 0.0000000000000000e+00  3.2315431046130952e-04 1.1466074775574547e-02 0.0000000000000000e+00  2.9727295489049757e-04 1.1573548600018158e-02 0.0000000000000000e+00  2.7380604857887955e-04 1.1673444403108753e-02 0.0000000000000000e+00  2.5280354808898328e-04 1.1766496369317038e-02 0.0000000000000000e+00  2.3425303971261646e-04 1.1853529078890954e-02 0.0000000000000000e+00  2.1810430803871164e-04 1.1935426859006256e-02 0.0000000000000000e+00  2.0428664385633942e-04 1.2013116324316682e-02 0.0000000000000000e+00  1.9272042854802393e-04 1.2087553294912958e-02 0.0000000000000000e+00  1.8332405986272327e-04 1.2159713454281700e-02 0.0000000000000000e+00  1.7601652547840808e-04 1.2230586159997194e-02 0.0000000000000000e+00  1.7071586197765773e-04 1.2301170457513777e-02 0.0000000000000000e+00  1.6733386187169834e-04 1.2372472640418792e-02 0.0000000000000000e+00  1.6576731751708493e-04 1.2445505724073727e-02 0.0000000000000000e+00  1.6588584810401597e-04 1.2521292309387868e-02 0.0000000000000000e+00  1.6751623390833136e-04 1.2600873164521699e-02 0.0000000000000000e+