<?xml version="1.0"?>
<VTKFile type="UnstructuredGrid"  version="0.1"  >
<UnstructuredGrid>
<Piece  NumberOfPoints="640" NumberOfCells="1181">
<Points>
<DataArray  type="Float64"  NumberOfComponents="3"  format="ascii">2.973913043478261 0 0  2.990434782608696 0 0  2.990434782608696 0.01666666666666667 0  2.973913043478261 0.01666666666666667 0  3.006956521739131 0 0  3.006956521739131 0.01666666666666667 0  3.023478260869565 0 0  3.023478260869565 0.01666666666666667 0  3.04 0 0  3.04 0.01666666666666667 0  3.056521739130435 0 0  3.056521739130435 0.01666666666666667 0  3.073043478260869 0 0  3.073043478260869 0.01666666666666667 0  3.089565217391304 0 0  3.089565217391304 0.01666666666666667 0  3.106086956521739 0 0  3.106086956521739 0.01666666666666667 0  3.122608695652174 0 0  3.122608695652174 0.01666666666666667 0  3.139130434782609 0 0  3.139130434782609 0.01666666666666667 0  3.155652173913043 0 0  3.155652173913043 0.01666666666666667 0  3.172173913043478 0 0  3.172173913043478 0.01666666666666667 0  3.188695652173913 0 0  3.188695652173913 0.01666666666666667 0  3.205217391304347 0 0  3.205217391304347 0.01666666666666667 0  3.221739130434782 0 0  3.221739130434782 0.01666666666666667 0  3.238260869565217 0 0  3.238260869565217 0.01666666666666667 0  2.990434782608696 0.03333333333333333 0  2.973913043478261 0.03333333333333333 0  3.006956521739131 0.03333333333333333 0  3.023478260869565 0.03333333333333333 0  3.04 0.03333333333333333 0  3.056521739130435 0.03333333333333333 0  3.073043478260869 0.03333333333333333 0  3.089565217391304 0.03333333333333333 0  3.106086956521739 0.03333333333333333 0  3.122608695652174 0.03333333333333333 0  3.139130434782609 0.03333333333333333 0  3.155652173913043 0.03333333333333333 0  3.172173913043478 0.03333333333333333 0  3.188695652173913 0.03333333333333333 0  3.205217391304347 0.03333333333333333 0  3.221739130434782 0.03333333333333333 0  3.238260869565217 0.03333333333333333 0  3.254782608695652 0.03333333333333333 0  2.990434782608696 0.05 0  3.006956521739131 0.05 0  3.023478260869565 0.05 0  3.04 0.05 0  3.056521739130435 0.05 0  3.073043478260869 0.05 0  3.089565217391304 0.05 0  3.106086956521739 0.05 0  3.122608695652174 0.05 0  3.139130434782609 0.05 0  3.155652173913043 0.05 0  3.172173913043478 0.05 0  3.188695652173913 0.05 0  3.205217391304347 0.05 0  3.221739130434782 0.05 0  3.238260869565217 0.05 0  3.254782608695652 0.05 0  3.271304347826087 0.05 0  3.006956521739131 0.06666666666666667 0  2.990434782608696 0.06666666666666667 0  3.023478260869565 0.06666666666666667 0  3.04 0.06666666666666667 0  3.056521739130435 0.06666666666666667 0  3.073043478260869 0.06666666666666667 0  3.089565217391304 0.06666666666666667 0  3.106086956521739 0.06666666666666667 0  3.122608695652174 0.06666666666666667 0  3.139130434782609 0.06666666666666667 0  3.155652173913043 0.06666666666666667 0  3.172173913043478 0.06666666666666667 0  3.188695652173913 0.06666666666666667 0  3.205217391304347 0.06666666666666667 0  3.221739130434782 0.06666666666666667 0  3.238260869565217 0.06666666666666667 0  3.254782608695652 0.06666666666666667 0  3.271304347826087 0.06666666666666667 0  3.287826086956521 0.06666666666666667 0  3.006956521739131 0.08333333333333333 0  3.023478260869565 0.08333333333333333 0  3.04 0.08333333333333333 0  3.056521739130435 0.08333333333333333 0  3.073043478260869 0.08333333333333333 0  3.089565217391304 0.08333333333333333 0  3.106086956521739 0.08333333333333333 0  3.122608695652174 0.08333333333333333 0  3.139130434782609 0.08333333333333333 0  3.155652173913043 0.08333333333333333 0  3.172173913043478 0.08333333333333333 0  3.188695652173913 0.08333333333333333 0  3.205217391304347 0.08333333333333333 0  3.221739130434782 0.08333333333333333 0  3.238260869565217 0.08333333333333333 0  3.254782608695652 0.08333333333333333 0  3.271304347826087 0.08333333333333333 0  3.287826086956521 0.08333333333333333 0  3.304347826086957 0.08333333333333333 0  3.023478260869565 0.1 0  3.006956521739131 0.1 0  3.04 0.1 0  3.056521739130435 0.1 0  3.073043478260869 0.1 0  3.089565217391304 0.1 0  3.106086956521739 0.1 0  3.122608695652174 0.1 0  3.139130434782609 0.1 0  3.155652173913043 0.1 0  3.172173913043478 0.1 0  3.188695652173913 0.1 0  3.205217391304347 0.1 0  3.221739130434782 0.1 0  3.238260869565217 0.1 0  3.254782608695652 0.1 0  3.271304347826087 0.1 0  3.287826086956521 0.1 0  3.304347826086957 0.1 0  3.320869565217391 0.1 0  3.023478260869565 0.1166666666666667 0  3.04 0.1166666666666667 0  3.056521739130435 0.1166666666666667 0  3.073043478260869 0.1166666666666667 0  3.089565217391304 0.1166666666666667 0  3.106086956521739 0.1166666666666667 0  3.122608695652174 0.1166666666666667 0  3.139130434782609 0.1166666666666667 0  3.155652173913043 0.1166666666666667 0  3.172173913043478 0.1166666666666667 0  3.188695652173913 0.1166666666666667 0  3.205217391304347 0.1166666666666667 0  3.221739130434782 0.1166666666666667 0  3.238260869565217 0.1166666666666667 0  3.254782608695652 0.1166666666666667 0  3.271304347826087 0.1166666666666667 0  3.287826086956521 0.1166666666666667 0  3.304347826086957 0.1166666666666667 0  3.320869565217391 0.1166666666666667 0  3.337391304347826 0.1166666666666667 0  3.04 0.1333333333333333 0  3.023478260869565 0.1333333333333333 0  3.056521739130435 0.1333333333333333 0  3.073043478260869 0.1333333333333333 0  3.089565217391304 0.1333333333333333 0  3.106086956521739 0.1333333333333333 0  3.122608695652174 0.1333333333333333 0  3.139130434782609 0.1333333333333333 0  3.155652173913043 0.1333333333333333 0  3.172173913043478 0.1333333333333333 0  3.188695652173913 0.1333333333333333 0  3.205217391304347 0.1333333333333333 0  3.221739130434782 0.1333333333333333 0  3.238260869565217 0.1333333333333333 0  3.254782608695652 0.1333333333333333 0  3.271304347826087 0.1333333333333333 0  3.287826086956521 0.1333333333333333 0  3.304347826086957 0.1333333333333333 0  3.320869565217391 0.1333333333333333 0  3.337391304347826 0.1333333333333333 0  3.353913043478261 0.1333333333333333 0  3.04 0.15 0  3.056521739130435 0.15 0  3.073043478260869 0.15 0  3.089565217391304 0.15 0  3.106086956521739 0.15 0  3.122608695652174 0.15 0  3.139130434782609 0.15 0  3.155652173913043 0.15 0  3.172173913043478 0.15 0  3.188695652173913 0.15 0  3.205217391304347 0.15 0  3.221739130434782 0.15 0  3.238260869565217 0.15 0  3.254782608695652 0.15 0  3.271304347826087 0.15 0  3.287826086956521 0.15 0  3.304347826086957 0.15 0  3.320869565217391 0.15 0  3.337391304347826 0.15 0  3.353913043478261 0.15 0  3.370434782608696 0.15 0  3.056521739130435 0.1666666666666667 0  3.073043478260869 0.1666666666666667 0  3.089565217391304 0.1666666666666667 0  3.106086956521739 0.1666666666666667 0  3.122608695652174 0.1666666666666667 0  3.139130434782609 0.1666666666666667 0  3.155652173913043 0.1666666666666667 0  3.172173913043478 0.1666666666666667 0  3.188695652173913 0.1666666666666667 0  3.205217391304347 0.1666666666666667 0  3.221739130434782 0.1666666666666667 0  3.238260869565217 0.1666666666666667 0  3.254782608695652 0.1666666666666667 0  3.271304347826087 0.1666666666666667 0  3.287826086956521 0.1666666666666667 0  3.304347826086957 0.1666666666666667 0  3.320869565217391 0.1666666666666667 0  3.337391304347826 0.1666666666666667 0  3.353913043478261 0.1666666666666667 0  3.370434782608696 0.1666666666666667 0  3.386956521739131 0.1666666666666667 0  3.073043478260869 0.1833333333333333 0  3.089565217391304 0.1833333333333333 0  3.106086956521739 0.1833333333333333 0  3.122608695652174 0.1833333333333333 0  3.139130434782609 0.1833333333333333 0  3.155652173913043 0.1833333333333333 0  3.172173913043478 0.1833333333333333 0  3.188695652173913 0.1833333333333333 0  3.205217391304347 0.1833333333333333 0  3.221739130434782 0.1833333333333333 0  3.238260869565217 0.1833333333333333 0  3.254782608695652 0.1833333333333333 0  3.271304347826087 0.1833333333333333 0  3.287826086956521 0.1833333333333333 0  3.304347826086957 0.1833333333333333 0  3.320869565217391 0.1833333333333333 0  3.337391304347826 0.1833333333333333 0  3.353913043478261 0.1833333333333333 0  3.370434782608696 0.1833333333333333 0  3.386956521739131 0.1833333333333333 0  3.403478260869565 0.1833333333333333 0  3.089565217391304 0.2 0  3.106086956521739 0.2 0  3.122608695652174 0.2 0  3.139130434782609 0.2 0  3.155652173913043 0.2 0  3.172173913043478 0.2 0  3.188695652173913 0.2 0  3.205217391304347 0.2 0  3.221739130434782 0.2 0  3.238260869565217 0.2 0  3.254782608695652 0.2 0  3.271304347826087 0.2 0  3.287826086956521 0.2 0  3.304347826086957 0.2 0  3.320869565217391 0.2 0  3.337391304347826 0.2 0  3.353913043478261 0.2 0  3.370434782608696 0.2 0  3.386956521739131 0.2 0  3.403478260869565 0.2 0  3.419999999999999 0.2 0  3.106086956521739 0.2166666666666667 0  3.122608695652174 0.2166666666666667 0  3.139130434782609 0.2166666666666667 0  3.155652173913043 0.2166666666666667 0  3.172173913043478 0.2166666666666667 0  3.188695652173913 0.2166666666666667 0  3.205217391304347 0.2166666666666667 0  3.221739130434782 0.2166666666666667 0  3.238260869565217 0.2166666666666667 0  3.254782608695652 0.2166666666666667 0  3.271304347826087 0.2166666666666667 0  3.287826086956521 0.2166666666666667 0  3.304347826086957 0.2166666666666667 0  3.320869565217391 0.2166666666666667 0  3.337391304347826 0.2166666666666667 0  3.353913043478261 0.2166666666666667 0  3.370434782608696 0.2166666666666667 0  3.386956521739131 0.2166666666666667 0  3.403478260869565 0.2166666666666667 0  3.419999999999999 0.2166666666666667 0  3.436521739130435 0.2166666666666667 0  3.122608695652174 0.2333333333333333 0  3.139130434782609 0.2333333333333333 0  3.155652173913043 0.2333333333333333 0  3.172173913043478 0.2333333333333333 0  3.188695652173913 0.2333333333333333 0  3.205217391304347 0.2333333333333333 0  3.221739130434782 0.2333333333333333 0  3.238260869565217 0.2333333333333333 0  3.254782
[...]
<CellData  Scalars="rho_bar"> 
<DataArray  type="Float64"  Name="rho_bar"  format="ascii">9.9999974660105839e-01   9.9999439697940196e-01   9.9999997926810147e-01   9.9999850446699812e-01   9.9999999993313560e-01   9.9999996707086203e-01   9.9999999999999112e-01   9.9999999997705391e-01   1.0000000000000000e+00   9.9999999999999956e-01   9.9999999999999989e-01   9.9999999999999989e-01   1.0000000000000000e+00   1.0000000000000000e+00   9.9999999999999989e-01   9.9999999999999989e-01   9.9999999999999989e-01   9.9999999999999989e-01   1.0000000000000000e+00   1.0000000000000000e+00   9.9999999999994060e-01   9.9999999999999978e-01   9.3900457491759004e-01   9.9999210351859003e-01   2.5146165785842425e-06   2.0356649452349936e-02   3.7007434154171883e-17   1.1227130336521896e-13   0.0000000000000000e+00   0.0000000000000000e+00   0.0000000000000000e+00   0.0000000000000000e+00   6.4293637855762265e-01   7.9447942993984125e-02   6.6284834705916518e-01   1.5782212396284898e-01   7.6291479091303971e-01   3.2625550031126127e-01   9.9999347568741870e-01   6.8620110930097467e-01   9.9999999999926703e-01   9.9999601792181914e-01   9.9999999999999989e-01   9.9999999999990286e-01   1.0000000000000000e+00   1.0000000000000000e+00   9.9999999999999989e-01   9.9999999999999989e-01   9.9999999999999989e-01   9.9999999999999989e-01   1.0000000000000000e+00   1.0000000000000000e+00   9.9999999999999634e-01   9.9999999999999989e-01   9.9992036674298634e-01   9.9999999910375437e-01   1.0176039767954344e-02   6.8689930418982392e-01   2.5625797780056320e-13   5.2448849544028942e-07   0.0000000000000000e+00   6.4763009769800785e-16   0.0000000000000000e+00   0.0000000000000000e+00   0.0000000000000000e+00   2.2142288003124118e-12   4.4904718832228247e-11   5.4308409621247238e-15   6.1247363828768415e-08   1.0012361310411206e-12   1.7187371479646187e-02   1.7752332770459841e-08   9.6404782229692598e-01   6.6837911262862981e-02   9.9999999997828048e-01   9.9872100651504325e-01   9.9999999999999989e-01   9.9999999999945843e-01   9.9999999999999989e-01   9.9999999999999989e-01   9.9999999999999989e-01   9.9999999999999989e-01   9.9999999999999989e-01   9.9999999999999989e-01   9.9999999999999734e-01   9.9999999999999911e-01   9.9999999686659846e-01   9.9999999999681655e-01   8.4000596401979721e-01   9.9999974470384889e-01   1.5220988188487570e-03   5.7997490507064087e-01   3.2295777163682247e-11   1.7024020729329106e-04   0.0000000000000000e+00   6.1427992322412211e-12   0.0000000000000000e+00   0.0000000000000000e+00   0.0000000000000000e+00   0.0000000000000000e+00   0.0000000000000000e+00   0.0000000000000000e+00   0.0000000000000000e+00   1.1893264151296989e-13   0.0000000000000000e+00   6.5531019851100520e-05   2.3836083107298118e-10   9.8258697477646639e-01   3.1342106899147859e-01   9.9999999999014566e-01   9.9999939608911359e-01   9.9999999999999911e-01   9.9999999999981770e-01   9.9999999999999145e-01   9.9999999999988753e-01   9.9999999999760691e-01   9.9999999997119171e-01   9.9999999990343869e-01   9.9999999856380006e-01   9.9999999961383079e-01   9.9999999601769152e-01   9.9999993438843093e-01   9.9999999688172880e-01   9.9728333197019170e-01   9.9999981640518143e-01   4.2495069869004470e-01   9.9553019502432172e-01   1.8899670220035025e-05   3.6835712958843903e-01   2.0357789528209952e-13   8.4909181919112803e-06   0.0000000000000000e+00   5.2846615972157445e-14   0.0000000000000000e+00   0.0000000000000000e+00   0.0000000000000000e+00   0.0000000000000000e+00   0.0000000000000000e+00   0.0000000000000000e+00   2.1644930662626880e-09   9.5088936724607704e-12   6.1712224385234871e-01   7.7193570528765756e-02   9.9999921622216148e-01   9.9993164342119512e-01   9.9999999956806906e-01   9.9999999664797234e-01   9.9999808632184373e-01   9.9998990933868970e-01   9.8069126766386949e-01   8.5306912526619072e-01   8.1018053534720280e-01   3.8208696750687160e-01   9.9605495647457132e-01   5.0033633085922702e-01   9.9999874288304913e-01   9.8595636570856593e-01   9.9999997976890120e-01   9.9999852727960170e-01   9.9999912054533724e-01   9.9999998101549914e-01   9.8485568745637520e-01   9.9999907152260381e-01   2.8119212907860414e-01   9.7836262807461571e-01   1.8097570860427695e-07   2.1870277119438741e-01   1.3877787807814457e-16   3.4436888285416238e-08   1.8503717077085938e-17   0.0000000000000000e+00   0.0000000000000000e+00   6.4763009769800790e-17   0.0000000000000000e+00   1.0502161983764560e-06   5.3341004474516402e-08   6.4548339911368358e-01   3.4063845823991612e-01   9.9999227763984033e-01   9.9997353655317989e-01   9.9996639724844227e-01   9.9996858158825142e-01   6.1175102557325511e-01   6.2224822297869786e-01   1.4420611454189372e-02   1.8229241467417610e-03   4.3255589646148023e-06   2.2026757825107286e-08   1.4880522495929377e-04   4.3964630177158633e-09   3.5158248877365772e-01   2.5578136744734227e-05   9.9710077333385394e-01   4.3522087831980516e-01   9.9999982935129350e-01   9.9849992290334888e-01   9.9999998805900647e-01   9.9999988297311793e-01   9.9999673605058526e-01   9.9999998766722475e-01   7.7747000633550667e-01   9.9999470024117909e-01   1.1957011595367335e-02   7.0801643048498997e-01   3.0638945084741444e-11   1.7652801560130527e-03   2.6080064034298772e-12   0.0000000000000000e+00   2.1638597395382913e-10   5.6423782313075315e-11   1.5617154621127025e-01   9.2161598053821112e-02   9.3933419625807002e-01   8.9814996931224500e-01   9.9999906323152621e-01   9.9999928060930587e-01   7.0291103937793920e-01   7.8260258682868711e-01   1.6979725452158088e-03   9.3222659337132315e-03   4.9441932029973633e-12   2.5351850248730057e-12   1.8503717077085944e-17   0.0000000000000000e+00   1.8503717077085944e-17   0.0000000000000000e+00   5.6116777891190850e-12   0.0000000000000000e+00   1.6547032445513032e-04   6.8571352300021236e-12   5.3071828723981840e-01   5.9251184829540527e-04   9.9993331780977035e-01   6.4876070541721664e-01   9.9999996357542487e-01   9.9995503775137018e-01   9.9999995443238288e-01   9.9999996301841232e-01   9.9978646910548385e-01   9.9999992358915291e-01   5.3050365697911961e-01   9.9940528635991055e-01   1.2957009604130931e-06   3.0587407496563462e-01   9.0498666967716178e-08   2.9802422001528169e-02   2.1934466904908030e-02   6.8661162419035382e-01   6.8262199510626465e-01   9.9999843086372198e-01   9.9999868372810419e-01   9.9981829559317181e-01   9.9993775381026140e-01   3.0595153392501334e-01   4.9688648113130146e-01   4.4825624693582239e-10   4.9349111648962678e-09   0.0000000000000000e+00   0.0000000000000000e+00   0.0000000000000000e+00   0.0000000000000000e+00   0.0000000000000000e+00   0.0000000000000000e+00   0.0000000000000000e+00   0.0000000000000000e+00   0.0000000000000000e+00   0.0000000000000000e+00   4.3545405244612313e-10   0.0000000000000000e+00   1.7295008477402687e-02   1.2520775249935667e-09   7.2842031664743179e-01   3.7795321900368418e-02   9.9999053537887528e-01   7.5564570885364191e-01   9.9999995976215128e-01   9.9999208905260240e-01   9.9999793895597944e-01   9.9999994671775116e-01   8.3151342860460353e-01   9.9999536493322672e-01   7.5621804138546640e-03   7.0977059077756988e-01   5.4832057907113385e-04   6.7156800203354061e-01   9.9999816909922334e-01   9.9999834992955172e-01   9.9999965603951280e-01   9.9999978799127842e-01   6.3546312908334635e-01   6.7984486136939937e-01   4.3588444671745684e-05   6.9209600218523648e-04   2.7755575615628914e-17   2.3129646346357425e-16   0.0000000000000000e+00   0.0000000000000000e+00   0.0000000000000000e+00   0.0000000000000000e+00   0.0000000000000000e+00   0.0000000000000000e+00   0.0000000000000000e+00   0.0000000000000000e+00   0.0000000000000000e+00   0.0000000000000000e+00   0.0000000000000000e+00   0.0000000000000000e+00   1.1102230246251565e-16   0.0000000000000000e+00   3.0391513666794274e-08   2.5905203907920321e-16   1.5647725635835363e-01   8.6984119925433590e-08   9.6664658997604991e-01   2.2183798200401397e-01   9.9999879532439606e-01   9.8140747965350550e-01   9.9999981025650231e-01   9.9999903809535640e-01   9.9932341028437732e-01   9.9999969110658793e-01   4.0963652559690228e-01   9.9759985953528851e-01   1.6183428990422857e-01   9.9999995046654755e-01   9.2729132131351644e-01   9.4679464124045454e-01   1.2353438319002275e-01   1.7980202145526078e-01   1.5537663748214450e-12   1.2231021750963578e-11   0.0000000000000000e+00   0.0000000000000000e+00   0.0000000000000000e+00   0.0000000000000000e+00   0.0000000000000000e+00   0.0000000000000000e+00   0.0000000000000000e+00   0.0000000000000000e+00   0.0000000000000000e+00   0.0000000000000000e+00   0.0000000000000000e+00   0.0000000000000000e+00   0.0000000000000000e+00   0.0000000000000000e+00   0.0000000000000000e+00   0.0000000000000000e+00   0.0000000000000000e+00   0.0000000000000000e+00   1.0445348290015014e-14   0.0000000000000000e+00   5.1590721103037902e-06   5.1495844625530169e-14   3.9432218670570135e-01   3.6657206583745598e-05   9.9984432998643491e-01   6.2704986496477699e-01   9.9999982312736813e-01   9.9992953980274923e-01   9.9998715661333948e-01   9.9999982053796943e-01   6.7227341606081725e-01   9.9996524231975858e-01   4.0927320630656910e-01   2.6822216775108210e-01   1.3187509602848497e-09   2.3259580280339991e-09   0.0000000000000000e+00   0.0000000000000000e+00   0.0000000000000000e+00   0.0000000000000000e+00   0.0000000000000000e+00   0.0000000000000000e+00   0.0000000000000000e+00   0.0000000000000000e+00   0.0000000000000000e+00   0.0000000000000000e+00   0.0000000000000000e+00   0.0000000000000000e+00   0.0000000000000000e+00   0.0000000000000000e+00   0.0000000000000000e+00   0.0000000000000000e+00   0.0000000000000000e+00   0.0000000000000000e+00   0.0000000000000000e+00   0.0000000000000000e+00   0.0000000000000000e+00   0.0000000000000000e+00   0.0000000000000000e+00   0.0000000000000000e+00   5.9087494156765758e-11   0.0000000000000000e+00   1.8019990346298427e-02   8.7941273707592416e-10   9.6199629802460440e-01   1.2114661292676478e-01   9.9999892062007956e-01   9.8917074150342865e-01   9.9999906032975117e-01   9.9999933493272941e-01   9.7040460363001990e-01   9.9999814839289447e-01   8.7841864482690502e-01   0.0000000000000000e+00   0.0000000000000000e+00   0.0000000000000000e+00   0.0000000000000000e+00   0.0000000000000000e+00   0.0000000000000000e+00   0.0000000000000000e+00   0.0000000000000000e+00   0.0000000000000000e+00   0.0000000000000000e+00   0.0000000000000000e+00   0.0000000000000000e+00   0.0000000000000000e+00   0.0000000000000000e+00   0.0000000000000000e+00   0.0000000000000000e+00   0.0000000000000000e+00   0.0000000000000000e+00   0.0000000000000000e+00   0.0000000000000000e+00   0.0000000000000000e+00   0.0000000000000000e+00   0.0000000000000000e+00   0.0000000000000000e+00   0.0000000000000000e+00   0.0000000000000000e+00   0.0000000000000000e+00   1.8041124150158790e-15   0.0000000000000000e+00   1.0005399542054962e-05   4.2132963784524684e-14   4.7520670745892246e-01   2.4761022917522502e-04   9.9998259025582636e-01   6.9331029982490533e-01   9.9999975374163874e-01   9.9999317821128364e-01   9.9948397880373152e-01   9.9999965345604491e-01   9.9756581882835660e-01   0.0000000000000000e+00   0.0000000000000000e+00   0.0000000000000000e+00   0.0000000000000000e+00   0.0000000000000000e+00   0.0000000000000000e+00   0.0000000000000000e+00   0.0000000000000000e+00   0.0000000000000000e+00   0.0000000000000000e+00   0.0000000000000000e+00   0.0000000000000000e+00   0.0000000000000000e+00   0.0000000000000000e+00   0.0000000000000000e+00   0.0000000000000000e+00   0.0000000000000000e+00   0.0000000000000000e+00   0.0000000000000000e+00   0.0000000000000000e+00   0.0000000000000000e+00   0.0000000000000000e+00   0.0000000000000000e+00   0.0000000000000000e+00   0.0000000000000000e+00   0.0000000000000000e+00   0.0000000000000000e+00   0.0000000000000000e+00   0.0000000000000000e+00   4.4614410221743822e-09   9.2518585385429691e-18   2.5179500217734896e-01   1.8935393494845520e-07   9.9949464795934384e-01   5.5261193891437321e-01   9.9999974169325767e-01   9.9986726646053792e-01   9.9997500080870205e-01   9.9999976269426427e-01   9.9991634223251458e-01   0.0000000000000000e+00   0.0000000000000000e+00   0.0000000000000000e+00   0.0000000000000000e+00   0.0000000000000000e+00   0.0000000000000000e+00   0.0000000000000000e+00   0.0000000000000000e+00   0.0000000000000000e+00   0.0000000000000000e+00   0.0000000000000000e+00   0.0000000000000000e+00   0.0000000000000000e+00   0.0000000000000000e+00   0.0000000000000000e+00   0.0000000000000000e+00   0.0000000000000000e+00   0.0000000000000000e+00   0.0000000000000000e+00   0.0000000000000000e+00   0.0000000000000000e+00   0.0000000000000000e+00   0.0000000000000000e+00   0.0000000000000000e+00   0.0000000000000000e+00   0.0000000000000000e+00   0.0000000000000000e+00   0.0000000000000000e+00   0.0000000000000000e+00   3.2214508838279690e-12   0.0000000000000000e+00   7.4372086358279639e-03   1.6335788277643815e-10   9.7184626644659644e-01   1.1477425701276857e-01   9.9999906078351131e-01   9.9416869123088270e-01   9.9999771210364730e-01   9.9999943294863614e-01   9.9999507004770039e-01   0.0000000000000000e+00   0.0000000000000000e+00   0.0000000000000000e+00   0.0000000000000000e+00   0.0000000000000000e+00   0.0000000000000000e+00   0.0000000000000000e+00   0.0000000000000000e+00   0.0000000000000000e+00   0.0000000000000000e+00   0.0000000000000000e+00   0.0000000000000000e+00   0.0000000000000000e+00   0.0000000000000000e+00   0.0000000000000000e+00   0.0000000000000000e+00   0.0000000000000000e+00   0.0000000000000000e+00   0.0000000000000000e+00   0.0000000000000000e+00   0.0000000000000000e+00   0.0000000000000000e+00   0.0000000000000000e+00   0.0000000000000000e+00   0.0000000000000000e+00   0.0000000000000000e+00   0.0000000000000000e+00   0.0000000000000000e+00   0.0000000000000000e+00   2.0446607370179964e-15   0.0000000000000000e+00   2.4929161057757332e-05   9.3249482209974602e-14   5.5454833667317438e-01   8.4053858133759107e-04   9.9999060105853110e-01   7.6086664660669057e-01   9.9999960672905586e-01   9.9999613073527349e-01   9.9999945655660250e-01   0.0000000000000000e+00   0.0000000000000000e+00   0.0000000000000000e+00   0.0000000000000000e+00   0.0000000000000000e+00   0.0000000000000000e+00   0.0000000000000000e+00   0.0000000000000000e+00   0.0000000000000000e+00   0.0000000000000000e+00   0.0000000000000000e+00   0.0000000000000000e+00   0.0000000000000000e+00   0.0000000000000000e+00   0.0000000000000000e+00   0.0000000000000000e+00   0.0000000000000000e+00   0.0000000000000000e+00   0.0000000000000000e+00   0.0000000000000000e+00   0.0000000000000000e+00   0.0000000000000000e+00   0.0000000000000000e+00   0.0000000000000000e+00   0.0000000000000000e+00   0.0000000000000000e+00   0.0000000000000000e+00   0.0000000000000000e+00   0.0000000000000000e+00   0.0000000000000000e+00   0.0000000000000000e+00   3.0097933127285842e-08   3.7007434154171889e-17   3.0701024313313158e-01   1.2711051686764563e-06   9.9977293144723189e-01   6.1494863705642033e-01   9.9999977142839769e-01   9.9993332581068750e-01   9.9999980009863210e-01   0.0000000000000000e+00   0.0000000000000000e+00   0.0000000000000000e+00   0.0000000000000000e+00   0.0000000000000000e+00   0.0000000000000000e+00   0.0000000000000000e+00   0.0000000000000000e+00   0.0000000000000000e+00   0.0000000000000000e+00   0.0000000000000000e+00   0.0000000000000000e+00   0.0000000000000000e+00   0.0000000000000000e+00   0.0000000000000000e+00   0.0000000000000000e+00   0.0000000000000000e+00   0.0000000000000000e+00   0.0000000000000000e+00   0.0000000000000000e+00   0.0000000000000000e+00   0.0000000000000000e+00   0.0000000000000000e+00   0.0000000000000000e+00   0.0000000000000000e+00   0.0000000000000000e+00   0.0000000000000000e+00   0.0000000000000000e+00   0.0000000000000000e+00   0.0000000000000000e+00   0.0000000000000000e+00   2.3245969963762523e-11   0.0000000000000000e+00   2.2591301096719692e-02   9.5345838631762559e-10   9.8277164083073454e-01   1.7626130480603994e-01   9.9999922171141742e-01   9.9579330846065539e-01   9.9999953361327731e-01   0.0000000000000000e+00   0.0000000000000000e+00   0.0000000000000000e+00   0.0000000000000000e+00   0.0000000000000000e+00   0.0000000000000000e+00   0.0000000000000000e+00   0.0000000000000000e+00   0.0000000000000000e+00   0.0000000000000000e+00   0.0000000000000000e+00   0.0000000000000000e+00   0.0000000000000000e+00   0.0000000000000000e+00   0.0000000000000000e+00   0.0000000000000000e+00   0.0000000000000000e+00   0.0000000000000000e+00   0.0000000000000000e+00   0.0000000000000000e+00   0.0000000000000000e+00   0.0000000000000000e+00   0.0000000000000000e+00   0.0000000000000000e+00   0.0000000000000000e+00   0.0000000000000000e+00   0.0000000000000000e+00   0.0000000000000000e+00   0.0000000000000000e+00   0.0000000000000000e+00   0.0000000000000000e+00   8.2341540993032433e-15   0.0000000000000000e+00   4.2294361369987752e-05   2.4583113322762524e-13   5.4420398449717622e-01   8.1786705550268568e-04   9.9998490981826338e-01   7.1135047943619345e-01   9.9999360992146424e-01   0.0000000000000000e+00   0.0000000000000000e+00   0.0000000000000000e+00   0.0000000000000000e+00   0.0000000000000000e+00   0.0000000000000000e+00   0.0000000000000000e+00   0.0000000000000000e+00   0.0000000000000000e+00   0.0000000000000000e+00   0.0000000000000000e+00   0.0000000000000000e+00   0.0000000000000000e+00   0.0000000000000000e+00   0.0000000000000000e+00   0.0000000000000000e+00   0.0000000000000000e+00   0.0000000000000000e+00   0.0000000000000000e+00   0.0000000000000000e+00   0.0000000000000000e+00   0.0000000000000000e+00   0.0000000000000000e+00   0.0000000000000000e+00   0.0000000000000000e+00   0.0000000000000000e+00   0.0000000000000000e+00   0.0000000000000000e+00   0.0000000000000000e+00   0.0000000000000000e+00   0.0000000000000000e+00   0.0000000000000000e+00   0.0000000000000000e+00   1.0509212148660886e-08   2.7755575615628914e-17   2.3819228549523738e-01   2.0830444771857690e-07   9.9886905329126630e-01   4.7898470606841592e-01   9.9969015776162606e-01   0.0000000000000000e+00   0.0000000000000000e+00   0.0000000000000000e+00   0.0000000000000000e+00   0.0000000000000000e+00   0.0000000000000000e+00   0.0000000000000000e+00   0.0000000000000000e+00   0.0000000000000000e+00   0.0000000000000000e+00   0.0000000000000000e+00   0.0000000000000000e+00   0.0000000000000000e+00   0.0000000000000000e+00   0.0000000000000000e+00   0.0000000000000000e+00   0.0000000000000000e+00   0.0000000000000000e+00   0.0000000000000000e+00   0.0000000000000000e+00   0.0000000000000000e+00   0.0000000000000000e+00   0.0000000000000000e+00   0.0000000000000000e+00   0.0000000000000000e+00   0.0000000000000000e+00   0.0000000000000000e+00   0.0000000000000000e+00   0.0000000000000000e+00   0.0000000000000000e+00   0.0000000000000000e+00   0.0000000000000000e+00   0.0000000000000000e+00   9.8220505802733718e-13   0.0000000000000000e+00   1.3541182947594537e-03   2.1428608887319453e-11   8.4029285174420898e-01   2.1923858554563230e-02   9.5662882765368062e-01   0.0000000000000000e+00   0.0000000000000000e+00   0.0000000000000000e+00   0.0000000000000000e+00   0.0000000000000000e+00   0.0000000000000000e+00   0.0000000000000000e+00   0.0000000000000000e+00   0.0000000000000000e+00   0.0000000000000000e+00   0.0000000000000000e+00   0.0000000000000000e+00   0.0000000000000000e+00   0.0000000000000000e+00   0.0000000000000000e+00   0.0000000000000000e+00   0.0000000000000000e+00   0.0000000000000000e+00   0.0000000000000000e+00   0.0000000000000000e+00   0.0000000000000000e+00   0.0000000000000000e+00   0.0000000000000000e+00   0.0000000000000000e+00   0.0000000000000000e+00   0.0000000000000000e+00   0.0000000000000000e+00   0.0000000000000000e+00   0.0000000000000000e+00   0.0000000000000000e+00   0.0000000000000000e+00   0.0000000000000000e+00   0.00000000