<?xml version="1.0"?>
<VTKFile type="UnstructuredGrid"  version="0.1"  >
<UnstructuredGrid>
<Piece  NumberOfPoints="640" NumberOfCells="1175">
<Points>
<DataArray  type="Float64"  NumberOfComponents="3"  format="ascii">2.577391304347826 0 0  2.593913043478261 0 0  2.593913043478261 0.01666666666666667 0  2.577391304347826 0.01666666666666667 0  2.610434782608696 0 0  2.610434782608696 0.01666666666666667 0  2.62695652173913 0 0  2.62695652173913 0.01666666666666667 0  2.643478260869565 0 0  2.643478260869565 0.01666666666666667 0  2.66 0 0  2.66 0.01666666666666667 0  2.676521739130435 0 0  2.676521739130435 0.01666666666666667 0  2.693043478260869 0 0  2.693043478260869 0.01666666666666667 0  2.709565217391304 0 0  2.709565217391304 0.01666666666666667 0  2.726086956521739 0 0  2.726086956521739 0.01666666666666667 0  2.742608695652174 0 0  2.742608695652174 0.01666666666666667 0  2.759130434782609 0 0  2.759130434782609 0.01666666666666667 0  2.775652173913044 0 0  2.775652173913044 0.01666666666666667 0  2.792173913043478 0 0  2.792173913043478 0.01666666666666667 0  2.808695652173913 0 0  2.808695652173913 0.01666666666666667 0  2.825217391304347 0 0  2.825217391304347 0.01666666666666667 0  2.841739130434783 0 0  2.841739130434783 0.01666666666666667 0  2.858260869565217 0 0  2.858260869565217 0.01666666666666667 0  2.874782608695652 0 0  2.874782608695652 0.01666666666666667 0  2.891304347826087 0 0  2.891304347826087 0.01666666666666667 0  2.907826086956522 0 0  2.907826086956522 0.01666666666666667 0  2.924347826086957 0 0  2.924347826086957 0.01666666666666667 0  2.940869565217391 0 0  2.940869565217391 0.01666666666666667 0  2.957391304347826 0 0  2.957391304347826 0.01666666666666667 0  2.973913043478261 0 0  2.973913043478261 0.01666666666666667 0  2.593913043478261 0.03333333333333333 0  2.610434782608696 0.03333333333333333 0  2.62695652173913 0.03333333333333333 0  2.643478260869565 0.03333333333333333 0  2.66 0.03333333333333333 0  2.676521739130435 0.03333333333333333 0  2.693043478260869 0.03333333333333333 0  2.709565217391304 0.03333333333333333 0  2.726086956521739 0.03333333333333333 0  2.742608695652174 0.03333333333333333 0  2.759130434782609 0.03333333333333333 0  2.775652173913044 0.03333333333333333 0  2.792173913043478 0.03333333333333333 0  2.808695652173913 0.03333333333333333 0  2.825217391304347 0.03333333333333333 0  2.841739130434783 0.03333333333333333 0  2.858260869565217 0.03333333333333333 0  2.874782608695652 0.03333333333333333 0  2.891304347826087 0.03333333333333333 0  2.907826086956522 0.03333333333333333 0  2.924347826086957 0.03333333333333333 0  2.940869565217391 0.03333333333333333 0  2.957391304347826 0.03333333333333333 0  2.973913043478261 0.03333333333333333 0  2.610434782608696 0.05 0  2.62695652173913 0.05 0  2.643478260869565 0.05 0  2.66 0.05 0  2.676521739130435 0.05 0  2.693043478260869 0.05 0  2.709565217391304 0.05 0  2.726086956521739 0.05 0  2.742608695652174 0.05 0  2.759130434782609 0.05 0  2.775652173913044 0.05 0  2.792173913043478 0.05 0  2.808695652173913 0.05 0  2.825217391304347 0.05 0  2.841739130434783 0.05 0  2.858260869565217 0.05 0  2.874782608695652 0.05 0  2.891304347826087 0.05 0  2.907826086956522 0.05 0  2.924347826086957 0.05 0  2.940869565217391 0.05 0  2.957391304347826 0.05 0  2.973913043478261 0.05 0  2.990434782608696 0.05 0  2.62695652173913 0.06666666666666667 0  2.643478260869565 0.06666666666666667 0  2.66 0.06666666666666667 0  2.676521739130435 0.06666666666666667 0  2.693043478260869 0.06666666666666667 0  2.709565217391304 0.06666666666666667 0  2.726086956521739 0.06666666666666667 0  2.742608695652174 0.06666666666666667 0  2.759130434782609 0.06666666666666667 0  2.775652173913044 0.06666666666666667 0  2.792173913043478 0.06666666666666667 0  2.808695652173913 0.06666666666666667 0  2.825217391304347 0.06666666666666667 0  2.841739130434783 0.06666666666666667 0  2.858260869565217 0.06666666666666667 0  2.874782608695652 0.06666666666666667 0  2.891304347826087 0.06666666666666667 0  2.907826086956522 0.06666666666666667 0  2.924347826086957 0.06666666666666667 0  2.940869565217391 0.06666666666666667 0  2.957391304347826 0.06666666666666667 0  2.973913043478261 0.06666666666666667 0  2.990434782608696 0.06666666666666667 0  2.643478260869565 0.08333333333333333 0  2.66 0.08333333333333333 0  2.676521739130435 0.08333333333333333 0  2.693043478260869 0.08333333333333333 0  2.709565217391304 0.08333333333333333 0  2.726086956521739 0.08333333333333333 0  2.742608695652174 0.08333333333333333 0  2.759130434782609 0.08333333333333333 0  2.775652173913044 0.08333333333333333 0  2.792173913043478 0.08333333333333333 0  2.808695652173913 0.08333333333333333 0  2.825217391304347 0.08333333333333333 0  2.841739130434783 0.08333333333333333 0  2.858260869565217 0.08333333333333333 0  2.874782608695652 0.08333333333333333 0  2.891304347826087 0.08333333333333333 0  2.907826086956522 0.08333333333333333 0  2.924347826086957 0.08333333333333333 0  2.940869565217391 0.08333333333333333 0  2.957391304347826 0.08333333333333333 0  2.973913043478261 0.08333333333333333 0  2.990434782608696 0.08333333333333333 0  3.006956521739131 0.08333333333333333 0  2.66 0.1 0  2.676521739130435 0.1 0  2.693043478260869 0.1 0  2.709565217391304 0.1 0  2.726086956521739 0.1 0  2.742608695652174 0.1 0  2.759130434782609 0.1 0  2.775652173913044 0.1 0  2.792173913043478 0.1 0  2.808695652173913 0.1 0  2.825217391304347 0.1 0  2.841739130434783 0.1 0  2.858260869565217 0.1 0  2.874782608695652 0.1 0  2.891304347826087 0.1 0  2.907826086956522 0.1 0  2.924347826086957 0.1 0  2.940869565217391 0.1 0  2.957391304347826 0.1 0  2.973913043478261 0.1 0  2.990434782608696 0.1 0  3.006956521739131 0.1 0  2.676521739130435 0.1166666666666667 0  2.693043478260869 0.1166666666666667 0  2.709565217391304 0.1166666666666667 0  2.726086956521739 0.1166666666666667 0  2.742608695652174 0.1166666666666667 0  2.759130434782609 0.1166666666666667 0  2.775652173913044 0.1166666666666667 0  2.792173913043478 0.1166666666666667 0  2.808695652173913 0.1166666666666667 0  2.825217391304347 0.1166666666666667 0  2.841739130434783 0.1166666666666667 0  2.858260869565217 0.1166666666666667 0  2.874782608695652 0.1166666666666667 0  2.891304347826087 0.1166666666666667 0  2.907826086956522 0.1166666666666667 0  2.924347826086957 0.1166666666666667 0  2.940869565217391 0.1166666666666667 0  2.957391304347826 0.1166666666666667 0  2.973913043478261 0.1166666666666667 0  2.990434782608696 0.1166666666666667 0  3.006956521739131 0.1166666666666667 0  3.023478260869565 0.1166666666666667 0  2.693043478260869 0.1333333333333333 0  2.709565217391304 0.1333333333333333 0  2.726086956521739 0.1333333333333333 0  2.742608695652174 0.1333333333333333 0  2.759130434782609 0.1333333333333333 0  2.775652173913044 0.1333333333333333 0  2.792173913043478 0.1333333333333333 0  2.808695652173913 0.1333333333333333 0  2.825217391304347 0.1333333333333333 0  2.841739130434783 0.1333333333333333 0  2.858260869565217 0.1333333333333333 0  2.874782608695652 0.1333333333333333 0  2.891304347826087 0.1333333333333333 0  2.907826086956522 0.1333333333333333 0  2.924347826086957 0.1333333333333333 0  2.940869565217391 0.1333333333333333 0  2.957391304347826 0.1333333333333333 0  2.973913043478261 0.1333333333333333 0  2.990434782608696 0.1333333333333333 0  3.006956521739131 0.1333333333333333 0  3.023478260869565 0.1333333333333333 0  2.726086956521739 0.15 0  2.742608695652174 0.15 0  2.759130434782609 0.15 0  2.775652173913044 0.15 0  2.792173913043478 0.15 0  2.808695652173913 0.15 0  2.825217391304347 0.15 0  2.841739130434783 0.15 0  2.858260869565217 0.15 0  2.874782608695652 0.15 0  2.891304347826087 0.15 0  2.907826086956522 0.15 0  2.924347826086957 0.15 0  2.940869565217391 0.15 0  2.957391304347826 0.15 0  2.973913043478261 0.15 0  2.990434782608696 0.15 0  3.006956521739131 0.15 0  3.023478260869565 0.15 0  3.04 0.15 0  2.742608695652174 0.1666666666666667 0  2.759130434782609 0.1666666666666667 0  2.775652173913044 0.1666666666666667 0  2.792173913043478 0.1666666666666667 0  2.808695652173913 0.1666666666666667 0  2.825217391304347 0.1666666666666667 0  2.841739130434783 0.1666666666666667 0  2.858260869565217 0.1666666666666667 0  2.874782608695652 0.1666666666666667 0  2.891304347826087 0.1666666666666667 0  2.907826086956522 0.1666666666666667 0  2.924347826086957 0.1666666666666667 0  2.940869565217391 0.1666666666666667 0  2.957391304347826 0.1666666666666667 0  2.973913043478261 0.1666666666666667 0  2.990434782608696 0.1666666666666667 0  3.006956521739131 0.1666666666666667 0  3.023478260869565 0.1666666666666667 0  3.04 0.1666666666666667 0  3.056521739130435 0.1666666666666667 0  2.759130434782609 0.1833333333333333 0  2.775652173913044 0.1833333333333333 0  2.792173913043478 0.1833333333333333 0  2.808695652173913 0.1833333333333333 0  2.825217391304347 0.1833333333333333 0  2.841739130434783 0.1833333333333333 0  2.858260869565217 0.1833333333333333 0  2.874782608695652 0.1833333333333333 0  2.891304347826087 0.1833333333333333 0  2.907826086956522 0.1833333333333333 0  2.924347826086957 0.1833333333333333 0  2.940869565217391 0.1833333333333333 0  2.957391304347826 0.1833333333333333 0  2.973913043478261 0.1833333333333333 0  2.990434782608696 0.1833333333333333 0  3.006956521739131 0.1833333333333333 0  3.023478260869565 0.1833333333333333 0  3.04 0.1833333333333333 0  3.056521739130435 0.1833333333333333 0  3.073043478260869 0.1833333333333333 0  2.775652173913044 0.2 0  2.792173913043478 0.2 0  2.808695652173913 0.2 0  2.825217391304347 0.2 0  2.841739130434783 0.2 0  2.858260869565217 0.2 0  2.874782608695652 0.2 0  2.891304347826087 0.2 0  2.907826086956522 0.2 0  2.924347826086957 0.2 0  2.940869565217391 0.2 0  2.957391304347826 0.2 0  2.973913043478261 0.2 0  2.990434782608696 0.2 0  3.006956521739131 0.2 0  3.023478260869565 0.2 0  3.04 0.2 0  3.056521739130435 0.
[...]
<CellData  Scalars="rho_bar"> 
<DataArray  type="Float64"  Name="rho_bar"  format="ascii">9.9999819496780684e-01   9.9998387869226135e-01   9.9999833730161980e-01   9.9998513581527304e-01   9.9999845583360403e-01   9.9998630585402559e-01   9.9999853120794591e-01   9.9998714010049028e-01   9.9999855973955920e-01   9.9998755805162698e-01   9.9999854605976202e-01   9.9998757908154356e-01   9.9999849869716428e-01   9.9998726876687183e-01   9.9999842723999033e-01   9.9998671024494212e-01   9.9999834219253281e-01   9.9998599099758301e-01   9.9999826103673584e-01   9.9998523349126389e-01   9.9999821487642659e-01   9.9998466009185361e-01   9.9999824288214889e-01   9.9998460251996191e-01   9.9999836782892637e-01   9.9998534985024234e-01   9.9999857224941391e-01   9.9998690466569662e-01   9.9999880322486634e-01   9.9998890106639893e-01   9.9999900882343729e-01   9.9999083983136028e-01   9.9999916340700790e-01   9.9999239222248826e-01   9.9999925824248370e-01   9.9999344013712255e-01   9.9999928183826858e-01   9.9999391587496578e-01   9.9999920264280606e-01   9.9999363924810236e-01   9.9999893516138516e-01   9.9999209534403388e-01   9.9999825556098998e-01   9.9998786872874179e-01   9.9999677372304330e-01   9.9997780727579311e-01   9.9999501189423967e-01   9.9996102198084114e-01   6.5658401721312387e-01   6.5750876389878388e-01   2.2792353457716799e-01   6.5831105933341239e-01   2.3492975744929331e-01   6.5884130782855865e-01   2.4035240858603615e-01   6.5906585891104430e-01   2.4335779911933336e-01   6.5901272286365453e-01   2.4388034372227441e-01   6.5874094696727747e-01   2.4231276099838167e-01   6.5831345478286429e-01   2.3925035224163382e-01   6.5778751609054853e-01   2.3525669212178477e-01   6.5724734119371286e-01   2.3089003206766415e-01   6.5686645159703549e-01   2.2712413074574053e-01   6.5690125365646379e-01   2.2563035743448373e-01   6.5755495556019228e-01   2.2833002150726739e-01   6.5879182617614329e-01   2.3625053891250611e-01   6.6030602794077520e-01   2.4844838283495829e-01   6.6173689326573826e-01   2.6209672777221216e-01   6.6289032359303501e-01   2.7432618842500578e-01   6.6371102163126006e-01   2.8368758545583933e-01   6.6413026147537224e-01   2.8957614163842949e-01   6.6397664636827269e-01   2.9114085229286629e-01   6.6291700692205191e-01   2.8651552369067285e-01   6.6020841691477483e-01   2.7164123227256876e-01   6.5445698236828775e-01   2.4037993093526258e-01   6.4706739598165741e-01   1.9749708647982628e-01   1.4578109367816929e-09   1.6316328473505357e-09   1.2780609903728644e-12   1.7698013887734727e-09   1.4034236735701216e-12   1.8375094038939699e-09   1.4827213531039738e-12   1.8275379357982989e-09   1.5013083369079063e-12   1.7588900613763057e-09   1.4662715486224442e-12   1.6597739294077485e-09   1.3995286411253953e-12   1.5515095689681384e-09   1.3211839030210133e-12   1.4501893389843683e-09   1.2441806844047201e-12   1.3793397997859576e-09   1.1825725583965625e-12   1.3745429609339037e-09   1.1615800913726084e-12   1.4811628312738634e-09   1.2167119164037863e-12   1.7574201168398436e-09   1.3946066523828904e-12   2.2726171777787134e-09   1.7583712264013231e-12   3.0802480751231562e-09   2.3786620821179363e-12   4.1854282539777188e-09   3.3033945949038448e-12   5.5252269518894313e-09   4.5503878443042822e-12   6.8631352360496826e-09   6.0794980161205103e-12   7.6425304510833545e-09   7.6185631877242112e-12   7.2315821849263305e-09   8.5589590970158708e-12   5.6697689876372692e-09   8.3715534504591476e-12   3.9590751603017314e-09   7.3776910506732439e-12   3.2994657931754525e-09   7.1098867534165777e-12   1.1963134186980067e-11   0.0000000000000000e+00   0.0000000000000000e+00   0.0000000000000000e+00   0.0000000000000000e+00   0.0000000000000000e+00   0.0000000000000000e+00   0.0000000000000000e+00   0.0000000000000000e+00   0.0000000000000000e+00   0.0000000000000000e+00   0.0000000000000000e+00   0.0000000000000000e+00   0.0000000000000000e+00   0.0000000000000000e+00   0.0000000000000000e+00   0.0000000000000000e+00   0.0000000000000000e+00   0.0000000000000000e+00   0.0000000000000000e+00   0.0000000000000000e+00   0.0000000000000000e+00   0.0000000000000000e+00   0.0000000000000000e+00   0.0000000000000000e+00   0.0000000000000000e+00   0.0000000000000000e+00   0.0000000000000000e+00   0.0000000000000000e+00   0.0000000000000000e+00   0.0000000000000000e+00   0.0000000000000000e+00   0.0000000000000000e+00   0.0000000000000000e+00   0.0000000000000000e+00   0.0000000000000000e+00   0.0000000000000000e+00   0.0000000000000000e+00   0.0000000000000000e+00   0.0000000000000000e+00   0.0000000000000000e+00   0.0000000000000000e+00   0.0000000000000000e+00   0.0000000000000000e+00   0.0000000000000000e+00   0.0000000000000000e+00   0.0000000000000000e+00   0.0000000000000000e+00   0.0000000000000000e+00   0.0000000000000000e+00   0.0000000000000000e+00   0.0000000000000000e+00   0.0000000000000000e+00   0.0000000000000000e+00   0.0000000000000000e+00   0.0000000000000000e+00   0.0000000000000000e+00   0.0000000000000000e+00   0.0000000000000000e+00   0.0000000000000000e+00   0.0000000000000000e+00   0.0000000000000000e+00   0.0000000000000000e+00   0.0000000000000000e+00   0.0000000000000000e+00   0.0000000000000000e+00   0.0000000000000000e+00   0.0000000000000000e+00   0.0000000000000000e+00   0.0000000000000000e+00   0.0000000000000000e+00   0.0000000000000000e+00   0.0000000000000000e+00   0.0000000000000000e+00   0.0000000000000000e+00   0.0000000000000000e+00   0.0000000000000000e+00   0.0000000000000000e+00   0.0000000000000000e+00   0.0000000000000000e+00   0.0000000000000000e+00   0.0000000000000000e+00   0.0000000000000000e+00   0.0000000000000000e+00   0.0000000000000000e+00   0.0000000000000000e+00   0.0000000000000000e+00   0.0000000000000000e+00   0.0000000000000000e+00   0.0000000000000000e+00   0.0000000000000000e+00   0.0000000000000000e+00   0.0000000000000000e+00   0.0000000000000000e+00   0.0000000000000000e+00   0.0000000000000000e+00   0.0000000000000000e+00   0.0000000000000000e+00   0.0000000000000000e+00   0.0000000000000000e+00   0.0000000000000000e+00   0.0000000000000000e+00   0.0000000000000000e+00   0.0000000000000000e+00   0.0000000000000000e+00   0.0000000000000000e+00   0.0000000000000000e+00   0.0000000000000000e+00   0.0000000000000000e+00   0.0000000000000000e+00   0.0000000000000000e+00   0.0000000000000000e+00   0.0000000000000000e+00   0.0000000000000000e+00   0.0000000000000000e+00   0.0000000000000000e+00   0.0000000000000000e+00   0.0000000000000000e+00   0.0000000000000000e+00   0.0000000000000000e+00   0.0000000000000000e+00   0.0000000000000000e+00   0.0000000000000000e+00   0.0000000000000000e+00   0.0000000000000000e+00   0.0000000000000000e+00   0.0000000000000000e+00   0.0000000000000000e+00   0.0000000000000000e+00   0.0000000000000000e+00   0.0000000000000000e+00   0.0000000000000000e+00   0.0000000000000000e+00   0.0000000000000000e+00   0.0000000000000000e+00   0.0000000000000000e+00   0.0000000000000000e+00   0.0000000000000000e+00   0.0000000000000000e+00   0.0000000000000000e+00   0.0000000000000000e+00   0.0000000000000000e+00   0.0000000000000000e+00   0.0000000000000000e+00   0.0000000000000000e+00   0.0000000000000000e+00   0.0000000000000000e+00   0.0000000000000000e+00   0.0000000000000000e+00   0.0000000000000000e+00   0.0000000000000000e+00   0.0000000000000000e+00   0.0000000000000000e+00   0.0000000000000000e+00   0.0000000000000000e+00   0.0000000000000000e+00   0.0000000000000000e+00   0.0000000000000000e+00   0.0000000000000000e+00   0.0000000000000000e+00   0.0000000000000000e+00   0.0000000000000000e+00   0.0000000000000000e+00   0.0000000000000000e+00   0.0000000000000000e+00   0.0000000000000000e+00   0.0000000000000000e+00   0.0000000000000000e+00   0.0000000000000000e+00   0.0000000000000000e+00   0.0000000000000000e+00   0.0000000000000000e+00   0.0000000000000000e+00   0.0000000000000000e+00   2.8865798640254070e-15   0.0000000000000000e+00   0.0000000000000000e+00   0.0000000000000000e+00   0.0000000000000000e+00   0.0000000000000000e+00   0.0000000000000000e+00   0.0000000000000000e+00   0.0000000000000000e+00   0.0000000000000000e+00   0.0000000000000000e+00   0.0000000000000000e+00   0.0000000000000000e+00   0.0000000000000000e+00   0.0000000000000000e+00   0.0000000000000000e+00   0.0000000000000000e+00   0.0000000000000000e+00   0.0000000000000000e+00   0.0000000000000000e+00   0.0000000000000000e+00   0.0000000000000000e+00   0.0000000000000000e+00   0.0000000000000000e+00   0.0000000000000000e+00   0.0000000000000000e+00   0.0000000000000000e+00   0.0000000000000000e+00   0.0000000000000000e+00   0.0000000000000000e+00   0.0000000000000000e+00   0.0000000000000000e+00   0.0000000000000000e+00   0.0000000000000000e+00   0.0000000000000000e+00   0.0000000000000000e+00   0.0000000000000000e+00   0.0000000000000000e+00   1.0362081563168124e-15   9.0668213677721091e-16   2.3630257824554708e-08   2.0133960434061866e-08   0.0000000000000000e+00   0.0000000000000000e+00   0.0000000000000000e+00   0.0000000000000000e+00   0.0000000000000000e+00   0.0000000000000000e+00   0.0000000000000000e+00   0.0000000000000000e+00   0.0000000000000000e+00   0.0000000000000000e+00   0.0000000000000000e+00   0.0000000000000000e+00   0.0000000000000000e+00   0.0000000000000000e+00   0.0000000000000000e+00   0.0000000000000000e+00   0.0000000000000000e+00   0.0000000000000000e+00   0.0000000000000000e+00   0.0000000000000000e+00   0.0000000000000000e+00   0.0000000000000000e+00   0.0000000000000000e+00   0.0000000000000000e+00   0.0000000000000000e+00   0.0000000000000000e+00   0.0000000000000000e+00   0.0000000000000000e+00   0.0000000000000000e+00   0.0000000000000000e+00   0.0000000000000000e+00   3.3954320836452703e-15   5.3660779523549228e-15   4.7221929699858833e-08   7.6168228150634067e-08   1.2120083533025203e-01   1.3757476011166420e-01   7.3965927804485276e-01   0.0000000000000000e+00   0.0000000000000000e+00   0.0000000000000000e+00   0.0000000000000000e+00   0.0000000000000000e+00   0.0000000000000000e+00   0.0000000000000000e+00   0.0000000000000000e+00   0.0000000000000000e+00   0.0000000000000000e+00   0.0000000000000000e+00   0.0000000000000000e+00   0.0000000000000000e+00   0.0000000000000000e+00   0.0000000000000000e+00   0.0000000000000000e+00   0.0000000000000000e+00   0.0000000000000000e+00   0.0000000000000000e+00   0.0000000000000000e+00   0.0000000000000000e+00   0.0000000000000000e+00   0.0000000000000000e+00   0.0000000000000000e+00   0.0000000000000000e+00   0.0000000000000000e+00   0.0000000000000000e+00   1.0808946330579754e-13   2.6220692284084630e-13   8.7275691298035107e-07   2.2501904505719166e-06   2.2473828697626211e-01   2.5886947192648707e-01   8.0564764019785018e-01   8.2661781646443999e-01   9.9999335523957034e-01   9.9999367315447096e-01   9.9999909585994284e-01   0.0000000000000000e+00   0.0000000000000000e+00   0.0000000000000000e+00   0.0000000000000000e+00   0.0000000000000000e+00   0.0000000000000000e+00   0.0000000000000000e+00   0.0000000000000000e+00   0.0000000000000000e+00   0.0000000000000000e+00   0.0000000000000000e+00   0.0000000000000000e+00   0.0000000000000000e+00   0.0000000000000000e+00   0.0000000000000000e+00   0.0000000000000000e+00   0.0000000000000000e+00   0.0000000000000000e+00   0.0000000000000000e+00   0.0000000000000000e+00   0.0000000000000000e+00   0.0000000000000000e+00   0.0000000000000000e+00   1.2034410505161000e-11   3.7324273301682823e-11   5.5824382860234855e-05   1.7804418848481787e-04   3.4263271635566572e-01   4.5089270231713979e-01   9.5978268802663202e-01   9.7121778473307452e-01   9.9999691075115071e-01   9.9999678823266491e-01   9.9999742076614573e-01   9.9999654802557836e-01   9.6507393748675552e-01   9.5324335433966678e-01   3.1213672352714389e-01   0.0000000000000000e+00   0.0000000000000000e+00   0.0000000000000000e+00   0.0000000000000000e+00   0.0000000000000000e+00   0.0000000000000000e+00   0.0000000000000000e+00   0.0000000000000000e+00   0.0000000000000000e+00   0.0000000000000000e+00   0.0000000000000000e+00   0.0000000000000000e+00   0.0000000000000000e+00   0.0000000000000000e+00   0.0000000000000000e+00   0.0000000000000000e+00   0.0000000000000000e+00   2.2204460492503128e-16   5.9211894646675002e-16   2.0111824428070686e-09   6.6503267707555364e-09   4.5247273215377653e-03   1.3889552607879005e-02   5.0676879531017593e-01   6.2378833834827530e-01   9.9767670645929285e-01   9.9831447899137205e-01   9.9999782275972704e-01   9.9999752167296863e-01   9.9991750586953287e-01   9.9985711245779163e-01   7.2011056889028924e-01   6.8241814602520567e-01   2.2446060280805125e-01   1.7258087194609753e-01   5.6248083362316526e-07   2.7382659816462446e-07   3.0716170347962666e-15   0.0000000000000000e+00   0.0000000000000000e+00   0.0000000000000000e+00   0.0000000000000000e+00   0.0000000000000000e+00   0.0000000000000000e+00   0.0000000000000000e+00   0.0000000000000000e+00   0.0000000000000000e+00   0.0000000000000000e+00   0.0000000000000000e+00   0.0000000000000000e+00   0.0000000000000000e+00   3.4074594997453759e-14   1.0375959350975943e-13   3.0512004897675910e-07   1.0345727721368840e-06   1.2683898451102904e-01   1.8323785344552695e-01   6.7594867665594582e-01   7.0114736986330006e-01   9.9985542237342406e-01   9.9988662325842559e-01   9.9999272636084546e-01   9.9999133581058586e-01   9.9072508651411684e-01   9.8224889264447779e-01   5.9403269947331150e-01   4.1218137959631845e-01   9.8286461531048308e-03   1.8751765109307017e-03   5.7374091218716679e-09   1.2363994642920300e-09   2.8680761469483212e-16   1.1102230246251565e-16   0.0000000000000000e+00   0.0000000000000000e+00   0.0000000000000000e+00   0.0000000000000000e+00   0.0000000000000000e+00   0.0000000000000000e+00   0.0000000000000000e+00   0.0000000000000000e+00   0.0000000000000000e+00   0.0000000000000000e+00   0.0000000000000000e+00   0.0000000000000000e+00   6.0134489980138523e-12   1.8500108852255906e-11   4.0686255006453877e-05   1.3619211140362500e-04   3.2623673894717187e-01   4.3771949716306185e-01   9.2273904831738152e-01   9.4961456252605758e-01   9.9998466032765754e-01   9.9998700351707182e-01   9.9994655793907050e-01   9.9993483101140446e-01   7.6040663581339063e-01   7.2600807031601500e-01   2.7766151303465092e-01   2.0907679632617285e-01   1.2834513598986021e-05   2.5659974459505777e-06   3.9427535310683960e-12   7.7795177707192421e-13   0.0000000000000000e+00   0.0000000000000000e+00   0.0000000000000000e+00   0.0000000000000000e+00   0.0000000000000000e+00   0.0000000000000000e+00   0.0000000000000000e+00   0.0000000000000000e+00   0.0000000000000000e+00   0.0000000000000000e+00   0.0000000000000000e+00   0.0000000000000000e+00   3.7007434154171889e-17   8.3266726846886741e-17   6.6188309462885298e-10   1.8793353910121855e-09   3.0037094750453852e-03   8.2753746520599619e-03   5.0080182043014532e-01   6.1338814555598853e-01   9.9731160863264023e-01   9.9817116978976506e-01   9.9999605958361804e-01   9.9999624656435360e-01   9.9949001443946228e-01   9.9932357489453505e-01   6.5424248378507832e-01   5.8452123512014809e-01   4.1678564769589026e-02   1.6411007126468192e-02   2.9880253308670974e-08   8.2668824933721883e-09   3.5434618202619585e-15   9.8994886362409785e-16   0.0000000000000000e+00   0.0000000000000000e+00   0.0000000000000000e+00   0.0000000000000000e+00   0.0000000000000000e+00   0.0000000000000000e+00   0.0000000000000000e+00   0.0000000000000000e+00   0.0000000000000000e+00   0.0000000000000000e+00   0.0000000000000000e+00   0.0000000000000000e+00   0.0000000000000000e+00   2.0169051614023675e-15   4.2599556271394334e-08   1.1058334529560436e-07   6.6486067102365737e-02   1.0976042688164840e-01   6.5762234264544650e-01   6.7972209041572174e-01   9.9982995771766525e-01   9.9986138318905582e-01   9.9999451554735630e-01   9.9999383592067559e-01   9.9107823392766659e-01   9.8617484807896738e-01   5.2301547246330604e-01   4.0710921917083098e-01   1.0171151462191699e-03   3.3853864222289448e-04   1.8379159305581538e-10   5.8759811831047656e-11   9.2518585385429691e-18   0.0000000000000000e+00   0.0000000000000000e+00   0.0000000000000000e+00   0.0000000000000000e+00   0.0000000000000000e+00   0.0000000000000000e+00   0.0000000000000000e+00   0.0000000000000000e+00   0.0000000000000000e+00   0.0000000000000000e+00   0.0000000000000000e+00   0.0000000000000000e+00   0.0000000000000000e+00   0.0000000000000000e+00   0.0000000000000000e+00   0.0000000000000000e+00   0.0000000000000000e+00   0.0000000000000000e+00   2.3374173643356053e-01   8.0696854160105569e-01   8.3574413019019234e-01   9.9997057638421283e-01   9.9997258943883072e-01   9.9996142681465672e-01   9.9995030658080286e-01   8.1990098525555966e-01   7.7521524798530406e-01   3.1394467818530813e-01   2.5057129047445581e-01   1.2992294925915728e-05   3.8741897121311970e-06   1.3425094369523549e-12   4.4008315510287349e-13   0.0000000000000000e+00   0.0000000000000000e+00   0.0000000000000000e+00   0.0000000000000000e+00   0.0000000000000000e+00   0.0000000000000000e+00   0.0000000000000000e+00   0.0000000000000000e+00   0.0000000000000000e+00   0.0000000000000000e+00   0.0000000000000000e+00   0.0000000000000000e+00   0.0000000000000000e+00   0.0000000000000000e+00   0.0000000000000000e+00   0.0000000000000000e+00   0.0000000000000000e+00   0.0000000000000000e+00   0.0000000000000000e+00   0.0000000000000000e+00   0.0000000000000000e+00   0.0000000000000000e+00   0.0000000000000000e+00   9.9998758700203583e-01   9.9945111211597892e-01   9.9923439298778294e-01   6.6087336990041134e-01   5.9386483044525573e-01   6.8544985769023015e-02   2.7898069031301209e-02   8.1494558758684235e-08   2.2837630379394604e-08   7.6235314357594072e-15   2.5535129566378604e-15   0.0000000000000000e+00   0.0000000000000000e+00   0.0000000000000000e+00   0.0000000000000000e+00   0.0000000000000000e+00   0.0000000000000000e+00   0.0000000000000000e+00   0.0000000000000000e+00   0.0000000000000000e+00   0.0000000000000000e+00   0.0000000000000000e+00   0.0000000000000000e+00   0.0000000000000000e+00   0.0000000000000000e+00   0.0000000000000000e+00   0.0000000000000000e+00   0.0000000000000000e+00   0.0000000000000000e+00   0.0000000000000000e+00   0.0000000000000000e+00   0.0000000000000000e+00   0.0000000000000000e+00   0.0000000000000000e+00   0.0000000000000000e+00   0.0000000000000000e+00   0.0000000000000000e+00   0.0000000000000000e+00   5.2855206537697097e-01   1.3843569317255795e-03   4.6424646941487890e-04   3.9167625624318220e-10   1.2403266376933189e-10   3.7007434154171889e-17   9.2518585385429722e-18   0.0000000000000000e+00   0.0000000000000000e+00   0.0000000000000000e+00   0.0000000000000000e+00   0.0000000000000000e+00   0.0000000000000000e+00   0.0000000000000000e+00   0.0000000000000000e+00   0.0000000000000000e+00   0.0000000000000000e+00   0.0000000000000000e+00   0.0000000000000000e+00   0.0000000000000000e+00   0.0000000000000000e+00   0.0000000000000000e+00   0.0000000000000000e+00   0.0000000000000000e+00   0.0000000000000000e+00   0.0000000000000000e+00   0.0000000000000000e+00   0.0000000000000000e+00   0.0000000000000000e+00   0.0000000000000000e+00   0.0000000000000000e+00   0.0000000000000000e+00   0.0000000000000000e+00   0.0000000000000000e+00   0.0000000000000000e+00   0.0000000000000000e+00   0.0000000000000000e+00   0.0000000000000000e+00   3.1183944315671401e-12   0.0000000000000000e+00   0.0000000000000000e+00   0.0000000000000000e+00   0.0000000000000000e+00   0.0000000000000000e+00   0.0000000000000000e+00   0.0000000000000000e+00   0.0000000000000000e+00   0.0000000000000000e+00   0.0000000000000000e+00   0.0000000000000000e+00   0.0000000000000000e+00   0.0000000000000000e+00   0.0000000000000000e+00   0.0000000000000000e+00   0.0000000000000000e+00   0.0000000000000000e+00   0.0000000000000000e+00   0.0000000000000000e+00   0.0000000000000000e+00   0.0000000000000000e+00   0.00000000