<?xml version="1.0"?>
<VTKFile type="UnstructuredGrid"  version="0.1"  >
<UnstructuredGrid>
<Piece  NumberOfPoints="2374" NumberOfCells="4549">
<Points>
<DataArray  type="Float64"  NumberOfComponents="3"  format="ascii">2.288260869565217 0 0  2.296521739130434 0 0  2.296521739130434 0.008333333333333333 0  2.304782608695652 0 0  2.304782608695652 0.008333333333333333 0  2.31304347826087 0 0  2.31304347826087 0.008333333333333333 0  2.321304347826087 0 0  2.321304347826087 0.008333333333333333 0  2.329565217391304 0 0  2.329565217391304 0.008333333333333333 0  2.337826086956521 0 0  2.337826086956521 0.008333333333333333 0  2.346086956521739 0 0  2.346086956521739 0.008333333333333333 0  2.354347826086956 0 0  2.354347826086956 0.008333333333333333 0  2.362608695652174 0 0  2.362608695652174 0.008333333333333333 0  2.370869565217391 0 0  2.370869565217391 0.008333333333333333 0  2.379130434782609 0 0  2.379130434782609 0.008333333333333333 0  2.387391304347826 0 0  2.387391304347826 0.008333333333333333 0  2.395652173913044 0 0  2.395652173913044 0.008333333333333333 0  2.403913043478261 0 0  2.403913043478261 0.008333333333333333 0  2.412173913043478 0 0  2.412173913043478 0.008333333333333333 0  2.420434782608695 0 0  2.420434782608695 0.008333333333333333 0  2.428695652173913 0 0  2.428695652173913 0.008333333333333333 0  2.43695652173913 0 0  2.43695652173913 0.008333333333333333 0  2.445217391304348 0 0  2.445217391304348 0.008333333333333333 0  2.453478260869565 0 0  2.453478260869565 0.008333333333333333 0  2.461739130434782 0 0  2.461739130434782 0.008333333333333333 0  2.47 0 0  2.47 0.008333333333333333 0  2.478260869565217 0 0  2.478260869565217 0.008333333333333333 0  2.486521739130435 0 0  2.486521739130435 0.008333333333333333 0  2.494782608695652 0 0  2.494782608695652 0.008333333333333333 0  2.503043478260869 0 0  2.503043478260869 0.008333333333333333 0  2.511304347826087 0 0  2.511304347826087 0.008333333333333333 0  2.519565217391305 0 0  2.519565217391305 0.008333333333333333 0  2.527826086956522 0 0  2.527826086956522 0.008333333333333333 0  2.536086956521739 0 0  2.536086956521739 0.008333333333333333 0  2.544347826086956 0 0  2.544347826086956 0.008333333333333333 0  2.552608695652174 0 0  2.552608695652174 0.008333333333333333 0  2.560869565217391 0 0  2.560869565217391 0.008333333333333333 0  2.569130434782608 0 0  2.569130434782608 0.008333333333333333 0  2.577391304347826 0 0  2.577391304347826 0.008333333333333333 0  2.585652173913043 0 0  2.585652173913043 0.008333333333333333 0  2.593913043478261 0 0  2.593913043478261 0.008333333333333333 0  2.602173913043478 0 0  2.602173913043478 0.008333333333333333 0  2.610434782608696 0 0  2.610434782608696 0.008333333333333333 0  2.618695652173913 0 0  2.618695652173913 0.008333333333333333 0  2.62695652173913 0 0  2.62695652173913 0.008333333333333333 0  2.635217391304348 0 0  2.635217391304348 0.008333333333333333 0  2.643478260869565 0 0  2.643478260869565 0.008333333333333333 0  2.651739130434783 0 0  2.651739130434783 0.008333333333333333 0  2.66 0 0  2.66 0.008333333333333333 0  2.668260869565217 0 0  2.668260869565217 0.008333333333333333 0  2.304782608695652 0.01666666666666667 0  2.31304347826087 0.01666666666666667 0  2.321304347826087 0.01666666666666667 0  2.329565217391304 0.01666666666666667 0  2.337826086956521 0.01666666666666667 0  2.346086956521739 0.01666666666666667 0  2.354347826086956 0.01666666666666667 0  2.362608695652174 0.01666666666666667 0  2.370869565217391 0.01666666666666667 0  2.379130434782609 0.01666666666666667 0  2.387391304347826 0.01666666666666667 0  2.395652173913044 0.01666666666666667 0  2.403913043478261 0.01666666666666667 0  2.412173913043478 0.01666666666666667 0  2.420434782608695 0.01666666666666667 0  2.428695652173913 0.01666666666666667 0  2.43695652173913 0.01666666666666667 0  2.445217391304348 0.01666666666666667 0  2.453478260869565 0.01666666666666667 0  2.461739130434782 0.01666666666666667 0  2.47 0.01666666666666667 0  2.478260869565217 0.01666666666666667 0  2.486521739130435 0.01666666666666667 0  2.494782608695652 0.01666666666666667 0  2.503043478260869 0.01666666666666667 0  2.511304347826087 0.01666666666666667 0  2.519565217391305 0.01666666666666667 0  2.527826086956522 0.01666666666666667 0  2.536086956521739 0.01666666666666667 0  2.544347826086956 0.01666666666666667 0  2.552608695652174 0.01666666666666667 0  2.560869565217391 0.01666666666666667 0  2.569130434782608 0.01666666666666667 0  2.577391304347826 0.01666666666666667 0  2.585652173913043 0.01666666666666667 0  2.593913043478261 0.01666666666666667 0  2.602173913043478 0.01666666666666667 0  2.610434782608696 0.01666666666666667 0  2.618695652173913 0.01666666666666667 0  2.62695652173913 0.01666666666666667 0  2.635217391304348 0.01666666666666667 0  2.643478260869565 0.01666666666666667 0  2.651739130434783 0.01666666666666667 0  2.66 0.01666666666666667 0  2.668260869565217 0.01666666666666667 0  2.676521739130435 0.01666666666666667 0  2.31304347826087 0.025 0  2.321304347826087 0.025 0  2.329565217391304 0.025 0  2.337826086956521 0.025 0  2.346086956521739 0.025 0  2.354347826086956 0.025 0  2.362608695652174 0.025 0  2.370869565217391 0.025 0  2.379130434782609 0.025 0  2.387391304347826 0.025 0  2.395652173913044 0.025 0  2.403913043478261 0.025 0  2.412173913043478 0.025 0  2.420434782608695 0.025 0  2.428695652173913 0.025 0  2.43695652173913 0.025 0  2.445217391304348 0.025 0  2.453478260869565 0.025 0  2.461739130434782 0.025 0  2.47 0.025 0  2.478260869565217 0.025 0  2.486521739130435 0.025 0  2.494782608695652 0.025 0  2.503043478260869 0.025 0  2.511304347826087 0.025 0  2.519565217391305 0.025 0  2.527826086956522 0.025 0  2.536086956521739 0.025 0  2.544347826086956 0.025 0  2.552608695652174 0.025 0  2.560869565217391 0.025 0  2.569130434782608 0.025 0  2.577391304347826 0.025 0  2.585652173913043 0.025 0  2.593913043478261 0.025 0  2.602173913043478 0.025 0  2.610434782608696 0.025 0  2.618695652173913 0.025 0  2.62695652173913 0.025 0  2.635217391304348 0.025 0  2.643478260869565 0.025 0  2.651739130434783 0.025 0  2.66 0.025 0  2.668260869565217 0.025 0  2.676521739130435 0.025 0  2.684782608695652 0.025 0  2.321304347826087 0.03333333333333333 0  2.329565217391304 0.03333333333333333 0  2.337826086956521 0.03333333333333333 0  2.346086956521739 0.03333333333333333 0  2.354347826086956 0.03333333333333333 0  2.362608695652174 0.03333333333333333 0  2.370869565217391 0.03333333333333333 0  2.379130434782609 0.03333333333333333 0  2.387391304347826 0.03333333333333333 0  2.395652173913044 0.03333333333333333 0  2.403913043478261 0.03333333333333333 0  2.412173913043478 0.03333333333333333 0  2.420434782608695 0.03333333333333333 0  2.428695652173913 0.03333333333333333 0  2.43695652173913 0.03333333333333333 0  2.445217391304348 0.03333333333333333 0  2.453478260869565 0.03333333333333333 0  2.461739130434782 0.03333333333333333 0  2.47 0.03333333333333333 0  2.478260869565217 0.03333333333333333 0  2.486521739130435 0.03333333333333333 0  2.494782608695652 0.03333333333333333 0  2.503043478260869 0.03333333333333333 0  2.511304347826087 0.03333333333333333 0  2.519565217391305 0.03333333333333333 0  2.527826086956522 0.03333333333333333 0  2.536086956521739 0.03333333333333333 0  2.544347826086956 0.03333333333333333 0  2.552608695652174 0.03333333333333333 0  2.560869565217391 0.03333333333333333 0  2.569130434782608 0.03333333333333333 0  2.577391304347826 0.03333333333333333 0  2.585652173913043 0.03333333333333333 0  2.593913043478261 0.03333333333333333 0  2.602173913043478 0.03333333333333333 0  2.610434782608696 0.03333333333333333 0  2.618695652173913 0.03333333333333333 0  2.62695652173913 0.03333333333333333 0  2.635217391304348 0.03333333333333333 0  2.643478260869565 0.03333333333333333 0  2.651739130434783 0.03333333333333333 0  2.66 0.03333333333333333 0  2.668260869565217 0.03333333333333333 0  2.676521739130435 0.03333333333333333 0  2.684782608695652 0.03333333333333333 0  2.693043478260869 0.03333333333333333 0  2.329565217391304 0.04166666666666666 0  2.337826086956521 0.04166666666666666 0  2.346086956521739 0.04166666666666666 0  2.354347826086956 0.04166666666666666 0  2.362608695652174 0.04166666666666666 0  2.370869565217391 0.04166666666666666 0  2.379130434782609 0.04166666666666666 0  2.387391304347826 0.04166666666666666 0  2.395652173913044 0.04166666666666666 0  2.403913043478261 0.04166666666666666 0  2.412173913043478 0.04166666666666666 0  2.420434782608695 0.04166666666666666 0  2.428695652173913 0.04166666666666666 0  2.43695652173913 0.04166666666666666 0  2.445217391304348 0.04166666666666666 0  2.453478260869565 0.04166666666666666 0  2.461739130434782 0.04166666666666666 0  2.47 0.04166666666666666 0  2.478260869565217 0.04166666666666666 0  2.486521739130435 0.04166666666666666 0  2.494782608695652 0.04166666666666666 0  2.503043478260869 0.04166666666666666 0  2.511304347826087 0.04166666666666666 0  2.519565217391305 0.04166666666666666 0  2.527826086956522 0.04166666666666666 0  2.536086956521739 0.04166666666666666 0  2.544347826086956 0.04166666666666666 0  2.552608695652174 0.04166666666666666 0  2.560869565217391 0.04166666666666666 0  2.569130434782608 0.04166666666666666 0  2.577391304347826 0.04166666666666666 0  2.585652173913043 0.04166666666666666 0  2.593913043478261 0.04166666666666666 0  2.602173913043478 0.04166666666666666 0  2.610434782608696 0.04166666666666666 0  2.618695652173913 0.04166666666666666 0  2.62695652173913 0.04166666666666666 0  2.635217391304348 0.04166666666666666 0  2.643478260869565 0.04166666666666666 0  2.651739130434783 0.04166666666666666 0  2.66 0.04166666666666666 0  2.668260869565217 0.04166666666666666 0  2.676521739130435 0.04166666666666666 0  2.684782608695652 0.04166666666666666 0  2.693043478260869 0.04166666666666666 0  2.701304347826087 0.04166666666666666 0  2.337826086956521 0.05 0  2.34608695652
[...]
<PointData  Vectors="Displacement"> 
<DataArray  type="Float64"  Name="Displacement"  NumberOfComponents="3" format="ascii">2.6994257576109723e-04 2.0992952837422291e-03 0.0000000000000000e+00  2.7057553677737711e-04 2.1070902348799860e-03 0.0000000000000000e+00  2.6266948727109488e-04 2.1068833665066882e-03 0.0000000000000000e+00  2.7123156940706390e-04 2.1149116409494846e-03 0.0000000000000000e+00  2.6328917552496408e-04 2.1146991156993319e-03 0.0000000000000000e+00  2.7190823573040537e-04 2.1227832987525033e-03 0.0000000000000000e+00  2.6391258132830769e-04 2.1225664723524954e-03 0.0000000000000000e+00  2.7260031349346064e-04 2.1307219873713092e-03 0.0000000000000000e+00  2.6453780805043648e-04 2.1305028938923406e-03 0.0000000000000000e+00  2.7330429145198151e-04 2.1387355525634825e-03 0.0000000000000000e+00  2.6516415377486597e-04 2.1385147992036176e-03 0.0000000000000000e+00  2.7401935884849179e-04 2.1468309514756992e-03 0.0000000000000000e+00  2.6579159378973334e-04 2.1466083596270980e-03 0.0000000000000000e+00  2.7474669499689898e-04 2.1550164276261763e-03 0.0000000000000000e+00  2.6642100330554261e-04 2.1547911250950906e-03 0.0000000000000000e+00  2.7548733319450458e-04 2.1633037447242620e-03 0.0000000000000000e+00  2.6705312907637514e-04 2.1630752884448036e-03 0.0000000000000000e+00  2.7624086636786826e-04 2.1717053504768653e-03 0.0000000000000000e+00  2.6768822662012704e-04 2.1714738582695628e-03 0.0000000000000000e+00  2.7700566753781597e-04 2.1802317709982929e-03 0.0000000000000000e+00  2.6832630358267922e-04 2.1799975488175295e-03 0.0000000000000000e+00  2.7777853871362922e-04 2.1888922961807852e-03 0.0000000000000000e+00  2.6896627237842297e-04 2.1886563289092065e-03 0.0000000000000000e+00  2.7855503152181396e-04 2.1976929868942714e-03 0.0000000000000000e+00  2.6960618369334778e-04 2.1974565935902195e-03 0.0000000000000000e+00  2.7933052684632660e-04 2.2066359677003289e-03 0.0000000000000000e+00  2.7024398581821887e-04 2.2064002774849160e-03 0.0000000000000000e+00  2.8010022365533951e-04 2.2157215191433719e-03 0.0000000000000000e+00  2.7087712314682476e-04 2.2154878358255385e-03 0.0000000000000000e+00  2.8085895230404290e-04 2.2249479434822703e-03 0.0000000000000000e+00  2.7150249207854958e-04 2.2247177116537990e-03 0.0000000000000000e+00  2.8160078277922036e-04 2.2343121061924620e-03 0.0000000000000000e+00  2.7211609398588373e-04 2.2340871623968838e-03 0.0000000000000000e+00  2.8231886790972162e-04 2.2438088644852598e-03 0.0000000000000000e+00  2.7271296740238307e-04 2.2435914815483906e-03 0.0000000000000000e+00  2.8300612445060394e-04 2.2534299114708870e-03 0.0000000000000000e+00  2.7328777372213778e-04 2.2532224875954263e-03 0.0000000000000000e+00  2.8365711216427931e-04 2.2631626610178654e-03 0.0000000000000000e+00  2.7383631206492909e-04 2.2629668764928500e-03 0.0000000000000000e+00  2.8427009800415328e-04 2.2729914714247580e-03 0.0000000000000000e+00  2.7435695227611524e-04 2.2728076145241455e-03 0.0000000000000000e+00  2.8484821790780718e-04 2.2829005292787268e-03 0.0000000000000000e+00  2.7485136193151043e-04 2.2827272568880976e-03 0.0000000000000000e+00  2.8539938223753040e-04 2.2928770591182897e-03 0.0000000000000000e+00  2.7532443026612099e-04 2.2927115628192528e-03 0.0000000000000000e+00  2.8593503831195161e-04 2.3029139975968959e-03 0.0000000000000000e+00  2.7578346868265685e-04 2.3027524902912702e-03 0.0000000000000000e+00  2.8646806277255930e-04 2.3130116742421810e-03 0.0000000000000000e+00  2.7623681711497721e-04 2.3128501163438716e-03 0.0000000000000000e+00  2.8701009074605382e-04 2.3231782482356924e-03 0.0000000000000000e+00  2.7669201158114380e-04 2.3230132617789445e-03 0.0000000000000000e+00  2.8756878815461149e-04 2.3334284706333585e-03 0.0000000000000000e+00  2.7715386114524781e-04 2.3332583060786090e-03 0.0000000000000000e+00  2.8814698586878096e-04 2.3437790519999181e-03 0.0000000000000000e+00  2.7762420798174047e-04 2.3436034471503286e-03 0.0000000000000000e+00  2.8874358788584954e-04 2.3542450785319006e-03 0.0000000000000000e+00  2.7810270234965328e-04 2.3540646995096181e-03 0.0000000000000000e+00  2.8935515833692987e-04 2.3648381390060807e-03 0.0000000000000000e+00  2.7858794863752564e-04 2.3646540076555189e-03 0.0000000000000000e+00  2.8997669789972228e-04 2.3755666640678966e-03 0.0000000000000000e+00  2.7907769180869326e-04 2.3753802952496566e-03 0.0000000000000000e+00  2.9060309773640226e-04 2.3864340443334460e-03 0.0000000000000000e+00  2.7956988398394894e-04 2.3862466293967503e-03 0.0000000000000000e+00  2.9122946291210725e-04 2.3974410843997096e-03 0.0000000000000000e+00  2.8006235681688727e-04 2.3972537851100419e-03 0.0000000000000000e+00  2.9185191755325948e-04 2.4085847856194506e-03 0.0000000000000000e+00  2.8055405594288354e-04 2.4083980082234822e-03 0.0000000000000000e+00  2.9246692153298926e-04 2.4198608590721678e-03 0.0000000000000000e+00  2.8104456587431197e-04 2.4196750387553202e-03 0.0000000000000000e+00  2.9306995847057984e-04 2.4312630267384703e-03 0.0000000000000000e+00  2.8153308156638769e-04 2.4310791491213490e-03 0.0000000000000000e+00  2.9365545261867310e-04 2.4427789383929290e-03 0.0000000000000000e+00  2.8201918266282090e-04 2.4425990198418523e-03 0.0000000000000000e+00  2.9421993775807933e-04 2.4543858881029440e-03 0.0000000000000000e+00  2.8250314095452147e-04 2.4542112954029143e-03 0.0000000000000000e+00  2.9476600383156768e-04 2.4660567682272035e-03 0.0000000000000000e+00  2.8298614319425918e-04 2.4658859325550598e-03 0.0000000000000000e+00  2.9529888583117706e-04 2.4777760055725165e-03 0.0000000000000000e+00  2.8346835700377132e-04 2.4776074052476377e-03 0.0000000000000000e+00  2.9582258377462575e-04 2.4895366124755426e-03 0.0000000000000000e+00  2.8394937332122205e-04 2.4893695842101156e-03 0.0000000000000000e+00  2.9633922404089533e-04 2.5013345071597257e-03 0.0000000000000000e+00  2.8442877915413773e-04 2.5011688295742056e-03 0.0000000000000000e+00  2.9684974373850662e-04 2.5131662419026271e-03 0.0000000000000000e+00  2.8490632918512927e-04 2.5130018503115581e-03 0.0000000000000000e+00  2.9735451088896893e-04 2.5250284274724033e-03 0.0000000000000000e+00  2.8538190690458975e-04 2.5248653051781153e-03 0.0000000000000000e+00  2.9785365803523947e-04 2.5369176408387962e-03 0.0000000000000000e+00  2.8585546341256403e-04 2.5367557845542583e-03 0.0000000000000000e+00  2.9834722915111423e-04 2.5488304299400360e-03 0.0000000000000000e+00  2.8632697964109551e-04 2.5486698398032954e-03 0.0000000000000000e+00  2.9883523785443505e-04 2.5607633269640511e-03 0.0000000000000000e+00  2.8679644822111189e-04 2.5606040037543993e-03 0.0000000000000000e+00  2.5534117256150731e-04 2.1144988602862310e-03 0.0000000000000000e+00  2.5591189027271535e-04 2.1223661972544416e-03 0.0000000000000000e+00  2.5647083745931995e-04 2.1303064258544374e-03 0.0000000000000000e+00  2.5701986105813244e-04 2.1383216629043138e-03 0.0000000000000000e+00  2.5755960601017876e-04 2.1464177131184175e-03 0.0000000000000000e+00  2.5809073799966636e-04 2.1546005592803542e-03 0.0000000000000000e+00  2.5861417110751130e-04 2.1628837603979781e-03 0.0000000000000000e+00  2.5913140669856860e-04 2.1712812158529737e-03 0.0000000000000000e+00  2.5964492654474919e-04 2.1798030780495309e-03 0.0000000000000000e+00  2.6015580685884236e-04 2.1884608590629954e-03 0.0000000000000000e+00  2.6066408408048462e-04 2.1972612446473244e-03 0.0000000000000000e+00  2.6117033434087429e-04 2.2062050138146115e-03 0.0000000000000000e+00  2.6167441076909115e-04 2.2152931480556074e-03 0.0000000000000000e+00  2.6217543383322316e-04 2.2245242227258758e-03 0.0000000000000000e+00  2.6267099350900586e-04 2.2338965565052941e-03 0.0000000000000000e+00  2.6315664721012324e-04 2.2434068010628735e-03 0.0000000000000000e+00  2.6362640817958344e-04 2.2530476769033222e-03 0.0000000000000000e+00  2.6407492747498288e-04 2.2628048867719902e-03 0.0000000000000000e+00  2.6449933727549439e-04 2.2726592839080878e-03 0.0000000000000000e+00  2.6489998074070422e-04 2.2825911177998910e-03 0.0000000000000000e+00  2.6528033009263645e-04 2.2925841683706597e-03 0.0000000000000000e+00  2.6564632124397150e-04 2.3026290716544099e-03 0.0000000000000000e+00  2.6600510507343534e-04 2.3127255672849433e-03 0.0000000000000000e+00  2.6636304759332082e-04 2.3228836284342170e-03 0.0000000000000000e+00  2.6672309162412719e-04 2.3331227816884826e-03 0.0000000000000000e+00  2.6708527725706585e-04 2.3434631438105256e-03 0.0000000000000000e+00  2.6744836528253040e-04 2.3539212504366681e-03 0.0000000000000000e+00  2.6781146715297425e-04 2.3645082829225955e-03 0.0000000000000000e+00  2.6817381030829618e-04 2.3752339400157532e-03 0.0000000000000000e+00  2.6853616646712973e-04 2.3860999509486558e-03 0.0000000000000000e+00  2.6889827162103892e-04 2.3971078044314788e-03 0.0000000000000000e+00  2.6926136780058699e-04 2.4082512421010997e-03 0.0000000000000000e+00  2.6962836527110216e-04 2.4195261915958698e-03 0.0000000000000000e+00  2.7000198604157865e-04 2.4309292477971947e-03 0.0000000000000000e+00  2.7038365879357407e-04 2.4424487272634503e-03 0.0000000000000000e+00  2.7078476797859688e-04 2.4540627996551137e-03 0.0000000000000000e+00  2.7120711086821785e-04 2.4657365857371693e-03 0.0000000000000000e+00  2.7164072074772335e-04 2.4774558661384383e-03 0.0000000000000000e+00  2.7208016742970461e-04 2.4892165538473623e-03 0.0000000000000000e+00  2.7252284932615799e-04 2.5010151136146282e-03 0.0000000000000000e+00  2.7296764397383882e-04 2.5128479045405236e-03 0.0000000000000000e+00  2.7341411661186674e-04 2.5247113337425239e-03 0.0000000000000000e+00  2.7386211394677399e-04 2.5366018682645903e-03 0.0000000000000000e+00  2.7431158728327709e-04 2.5485160083707267e-03 0.0000000000000000e+00  2.7476252296301557e-04 2.5604502674174993e-03 0.0000000000000000e+00  2.7521491751861666e-04 2.5724011634065572e-03 0.0000000000000000e+00  2.4793726145791201e-04 2.1221832718941736e-03 0.0000000000000000e+00  2.4842308691336545e-04 2.1301332009147473e-03 0.0000000000000000e+00  2.4889285851509247e-04 2.1381555419135133e-03 0.0000000000000000e+00  2.4934724805869524e-04 2.1462591421852425e-03 0.0000000000000000e+00  2.4978223042453963e-04 2.1544460239851316e-03 0.0000000000000000e+00  2.5019452444659951e-04 2.1627307713474779e-03 0.0000000000000000e+00  2.5058943067047672e-04 2.1711287043653452e-03 0.0000000000000000e+00  2.5097472584078120e-04 2.1796481286782072e-03 0.0000000000000000e+00  2.5135419350710408e-04 2.1883045836705917e-03 0.0000000000000000e+00  2.5172976907203627e-04 2.1971050246853683e-03 0.0000000000000000e+00  2.5210526673182876e-04 2.2060470476140803e-03 0.0000000000000000e+00  2.5248297119192246e-04 2.2151331185679820e-03 0.0000000000000000e+00  2.5286444765572705e-04 2.2243616221437395e-03 0.0000000000000000e+00  2.5324869408161344e-04 2.2337332803554879e-03 0.0000000000000000e+00  2.5363074349798423e-04 2.2432479228934295e-03 0.0000000000000000e+00  2.5400203004599333e-04 2.2529007115993033e-03 0.0000000000000000e+00  2.5435434051875689e-04 2.2626755553391059e-03 0.0000000000000000e+00  2.5468262611368477e-04 2.2725495303601074e-03 0.0000000000000000e+00  2.5498578424866091e-04 2.2824989568180462e-03 0.0000000000000000e+00  2.5526656695884676e-04 2.2925042476756212e-03 0.0000000000000000e+00  2.5553103958502339e-04 2.3025536683183826e-03 0.0000000000000000e+00  2.5578728324588448e-04 2.3126462158176262e-03 0.0000000000000000e+00  2.5604246725863949e-04 2.3227940868794854e-03 0.0000000000000000e+00  2.5629781641503887e-04 2.3330235754057621e-03 0.0000000000000000e+00  2.5655066568501680e-04 2.3433578436785349e-03 0.0000000000000000e+00  2.5679788711087485e-04 2.3538136776979626e-03 0.0000000000000000e+00  2.5703840016519017e-04 2.3643999598109361e-03 0.0000000000000000e+00  2.5727048775303326e-04 2.3751267841751302e-03 0.0000000000000000e+00  2.5750072660860019e-04 2.3859928279068581e-03 0.0000000000000000e+00  2.5773057599401937e-04 2.3970034863300049e-03 0.0000000000000000e+00  2.5796202654853169e-04 2.4081468255030348e-03 0.0000000000000000e+00  2.5819770459196138e-04 2.4194173691578732e-03 0.0000000000000000e+00  2.5844530735414452e-04 2.4308168540760323e-03 0.0000000000000000e+00  2.5871172355504542e-04 2.4423385101782057e-03 0.0000000000000000e+00  2.5900164120162155e-04 2.4539303717572118e-03 0.0000000000000000e+00  2.5939823864097069e-04 2.4656026134223441e-03 0.0000000000000000e+00  2.5980043238753374e-04 2.4773183648000041e-03 0.0000000000000000e+00  2.6020454666681424e-04 2.4890761729092882e-03 0.0000000000000000e+00  2.6061259410873944e-04 2.5008728155137619e-03 0.0000000000000000e+00  2.6102528080509588e-04 2.5127042021756735e-03 0.0000000000000000e+00  2.6144283006218876e-04 2.5245664437218689e-03 0.0000000000000000e+00  2.6186530877949098e-04 2.5364558700435875e-03 0.0000000000000000e+00  2.6229274293163658e-04 2.5483689283704557e-03 0.0000000000000000e+00  2.6272514498986620e-04 2.5603021136618260e-03 0.0000000000000000e+00  2.6316251965786882e-04 2.5722519368969144e-03 0.0000000000000000e+00  2.6360486937312819e-04 2.5842149122467691e-03 0.0000000000000000e+00  2.4040037076410349e-04 2.1299822843144842e-03 0.0000000000000000e+00  2.4080315832666725e-04 2.1380186274528997e-03 0.0000000000000000e+00  2.4116713609285953e-04 2.1461245353939472e-03 0.0000000000000000e+00  2.4153138424075238e-04 2.1543305406547864e-03 0.0000000000000000e+00  2.4182393334991909e-04 2.1626224967953769e-03 0.0000000000000000e+00  2.4208163135658767e-04 2.1710226417931892e-03 0.0000000000000000e+00  2.4232729616602058e-04 2.1795366132651537e-03 0.0000000000000000e+00  2.4256622391516104e-04 2.1881904434665018e-03 0.0000000000000000e+00  2.4280125053480144e-04 2.1969903919398476e-03 0.0000000000000000e+00  2.4304156539491404e-04 2.2059268065239292e-03 0.0000000000000000e+00  2.4329114590401708e-04 2.2150065639288813e-03 0.0000000000000000e+00  2.4355443119846918e-04 2.2242260721392270e-03 0.0000000000000000e+00  2.4383208036911022e-04 2.2335909291404106e-03 0.0000000000000000e+00  2.4411773506158077e-04 2.2431072341024894e-03 0.0000000000000000e+00  2.4439799091058615e-04 2.2527753990433858e-03 0.0000000000000000e+00  2.4466016957865088e-04 2.2625755877103654e-03 0.0000000000000000e+00  2.4489636699544942e-04 2.2724784347488967e-03 0.0000000000000000e+00  2.4510371028789348e-04 2.2824541033213187e-03 0.0000000000000000e+00  2.4528415922309030e-04 2.2924776037986207e-03 0.0000000000000000e+00  2.4544450917062254e-04 2.3025329508800448e-03 0.0000000000000000e+00  2.4559540038673460e-04 2.3126172313538830e-03 0.0000000000000000e+00  2.4574673360047342e-04 2.3227463586679153e-03 0.0000000000000000e+00  2.4589722790988033e-04 2.3329607204411336e-03 0.0000000000000000e+00  2.4603990185833279e-04 2.3432875818114427e-03 0.0000000000000000e+00  2.4616844358056345e-04 2.3537427658786216e-03 0.0000000000000000e+00  2.4628294180769358e-04 2.3643306646190096e-03 0.0000000000000000e+00  2.4637842062476836e-04 2.3750662146272308e-03 0.0000000000000000e+00  2.4645852770286146e-04 2.3859254585126728e-03 0.0000000000000000e+00  2.4655499409209213e-04 2.3969440164015635e-03 0.0000000000000000e+00  2.4665014060963370e-04 2.4080875693247854e-03 0.0000000000000000e+00  2.4675353939182114e-04 2.4193579147989731e-03 0.0000000000000000e+00  2.4685418568460194e-04 2.4307391345443036e-03 0.0000000000000000e+00  2.4699437372254987e-04 2.4422462572632180e-03 0.0000000000000000e+00  2.4727432196444254e-04 2.4538341695454061e-03 0.0000000000000000e+00  2.4761968416860711e-04 2.4654726393854034e-03 0.0000000000000000e+00  2.4797849064974088e-04 2.4771859383611061e-03 0.0000000000000000e+00  2.4834158628899653e-04 2.4889428229601302e-03 0.0000000000000000e+00  2.4871141310974789e-04 2.5007379585314259e-03 0.0000000000000000e+00  2.4908958089498535e-04 2.5125676489338449e-03 0.0000000000000000e+00  2.4947640194915755e-04 2.5244281377884456e-03 0.0000000000000000e+00  2.4987183192250070e-04 2.5363157932740622e-03 0.0000000000000000e+00  2.5027580243362020e-04 2.5482270724569052e-03 0.0000000000000000e+00  2.5068827731056367e-04 2.5601584743634520e-03 0.0000000000000000e+00  2.5110923712625099e-04 2.5721065126924746e-03 0.0000000000000000e+00  2.5153866197053106e-04 2.5840677030738576e-03 0.0000000000000000e+00  2.5197650451911800e-04 2.5960385552745422e-03 0.0000000000000000e+00  2.3269588189944143e-04 2.1378843409842062e-03 0.0000000000000000e+00  2.3302613824342539e-04 2.1460093792414195e-03 0.0000000000000000e+00  2.3326962565629460e-04 2.1542177736951084e-03 0.0000000000000000e+00  2.3348493137186963e-04 2.1625466062806238e-03 0.0000000000000000e+00  2.3362699970743382e-04 2.1709794282050712e-03 0.0000000000000000e+00  2.3370680781218938e-04 2.1794745953746275e-03 0.0000000000000000e+00  2.3379564931467448e-04 2.1881274101342879e-03 0.0000000000000000e+00  2.3387033925583963e-04 2.1969244456547998e-03 0.0000000000000000e+00  2.3396735263755142e-04 2.2058476985540609e-03 0.0000000000000000e+00  2.3408379560745153e-04 2.2149154516089425e-03 0.0000000000000000e+00  2.3422750164653206e-04 2.2241152001354920e-03 0.0000000000000000e+00  2.3440204160804699e-04 2.2334623660149725e-03 0.0000000000000000e+00  2.3459926106085392e-04 2.2429745926020907e-03 0.0000000000000000e+00  2.3479757580757314e-04 2.2526629334477591e-03 0.0000000000000000e+00  2.3497830048204449e-04 2.2624989707182596e-03 0.0000000000000000e+00  2.3513067537686495e-04 2.2724430108001727e-03 0.0000000000000000e+00  2.3524974389683246e-04 2.2824568059485852e-03 0.0000000000000000e+00  2.3533561116543229e-04 2.2925075864629317e-03 0.0000000000000000e+00  2.3539510290809053e-04 2.3025718846377886e-03 0.0000000000000000e+00  2.3544286808089063e-04 2.3126418574884234e-03 0.0000000000000000e+00  2.3549414051410967e-04 2.3227386091803923e-03 0.0000000000000000e+00  2.3554266578350021e-04 2.3329311728727152e-03 0.0000000000000000e+00  2.3557655330790420e-04 2.3432509179902548e-03 0.0000000000000000e+00  2.3558468063418806e-04 2.3537090283533841e-03 0.0000000000000000e+00  2.3557214292653408e-04 2.3642945597755326e-03 0.0000000000000000e+00  2.3554461762660377e-04 2.3750415921560668e-03 0.0000000000000000e+00  2.3552834361220077e-04 2.3858806684331317e-03 0.0000000000000000e+00  2.3547389650610941e-04 2.3969024253722724e-03 0.0000000000000000e+00  2.3543047753134163e-04 2.4080490095873997e-03 0.0000000000000000e+00  2.3538441455997193e-04 2.4193234968826944e-03 0.0000000000000000e+00  2.3589788274544610e-04 2.4310881161316252e-03 0.0000000000000000e+00  2.3620523214920410e-04 2.4426331330804035e-03 0.0000000000000000e+00  2.3647594324036555e-04 2.4541683593302089e-03 0.0000000000000000e+00  2.3675798212243807e-04 2.4657591569530145e-03 0.0000000000000000e+00  2.3705197330616500e-04 2.4774185204964670e-03 0.0000000000000000e+00  2.3735851898493252e-04 2.4891270799650383e-03 0.0000000000000000e+00  2.3767569375382960e-04 2.5008749725971575e-03 0.0000000000000000e+00  2.3800342906822296e-04 2.5126573725375240e-03 0.0000000000000000e+00  2.3834192138337223e-04 2.5244704084662990e-03 0.0000000000000000e+00  2.3869128931338577e-04 2.5363103563710719e-03 0.0000000000000000e+00  2.3905161701856235e-04 2.5481735683416072e-03 0.0000000000000000e+00  2.3942298724971380e-04 2.5600564632891347e-03 0.0000000000000000e+00  2.3980548259675422e-04 2.5719555125883610e-03 0.0000000000000000e+00  2.4019917216109443e-04 2.5838672253299284e-03 0.0000000000000000e+00  2.4060408963899772e-04 2.5957881397845090e-03 0.0000000000000000e+00  2.4102020048696204e-04 2.6077148225221499e-03 0.0000000000000000e+00  2.2254461557405622e-04 2.1442617051072046e-03 0.0000000000000000e+00  2.2309218340628933e-04 2.1526526709628475e-03 0.0000000000000000e+00  2.2359494737383807e-04 2.1611244280217950e-03 0.0000000000000000e+00  2.2415318973138985e-04 2.1698265117002396e-03 0.0000000000000000e+00  2.2504842925699030e-04 2.1794638161896965e-03 0.0000000000000000e+00  2.2495226092760016e-04 2.1881190636629925e-03 0.0000000000000000e+00  2.2489739696700240e-04 2.1969131539630910e-03 0.0000000000000000e+