<?xml version="1.0"?>
<VTKFile type="UnstructuredGrid"  version="0.1"  >
<UnstructuredGrid>
<Piece  NumberOfPoints="2261" NumberOfCells="4324">
<Points>
<DataArray  type="Float64"  NumberOfComponents="3"  format="ascii">0.3965217391304348 0 0  0.4047826086956521 0 0  0.4047826086956521 0.008333333333333333 0  0.4130434782608696 0 0  0.4130434782608696 0.008333333333333333 0  0.4213043478260869 0 0  0.4213043478260869 0.008333333333333333 0  0.4295652173913043 0 0  0.4295652173913043 0.008333333333333333 0  0.4378260869565217 0 0  0.4378260869565217 0.008333333333333333 0  0.4460869565217391 0 0  0.4460869565217391 0.008333333333333333 0  0.4543478260869565 0 0  0.4543478260869565 0.008333333333333333 0  0.4626086956521739 0 0  0.4626086956521739 0.008333333333333333 0  0.4708695652173913 0 0  0.4708695652173913 0.008333333333333333 0  0.4791304347826086 0 0  0.4791304347826086 0.008333333333333333 0  0.4873913043478261 0 0  0.4873913043478261 0.008333333333333333 0  0.4956521739130435 0 0  0.4956521739130435 0.008333333333333333 0  0.5039130434782608 0 0  0.5039130434782608 0.008333333333333333 0  0.5121739130434783 0 0  0.5121739130434783 0.008333333333333333 0  0.5204347826086956 0 0  0.5204347826086956 0.008333333333333333 0  0.528695652173913 0 0  0.528695652173913 0.008333333333333333 0  0.5369565217391304 0 0  0.5369565217391304 0.008333333333333333 0  0.5452173913043478 0 0  0.5452173913043478 0.008333333333333333 0  0.5534782608695652 0 0  0.5534782608695652 0.008333333333333333 0  0.5617391304347825 0 0  0.5617391304347825 0.008333333333333333 0  0.57 0 0  0.57 0.008333333333333333 0  0.5782608695652174 0 0  0.5782608695652174 0.008333333333333333 0  0.5865217391304348 0 0  0.5865217391304348 0.008333333333333333 0  0.5947826086956521 0 0  0.5947826086956521 0.008333333333333333 0  0.6030434782608696 0 0  0.6030434782608696 0.008333333333333333 0  0.6113043478260869 0 0  0.6113043478260869 0.008333333333333333 0  0.6195652173913043 0 0  0.6195652173913043 0.008333333333333333 0  0.6278260869565218 0 0  0.6278260869565218 0.008333333333333333 0  0.6360869565217391 0 0  0.6360869565217391 0.008333333333333333 0  0.6443478260869565 0 0  0.6443478260869565 0.008333333333333333 0  0.6526086956521739 0 0  0.6526086956521739 0.008333333333333333 0  0.6608695652173913 0 0  0.6608695652173913 0.008333333333333333 0  0.6691304347826087 0 0  0.6691304347826087 0.008333333333333333 0  0.677391304347826 0 0  0.677391304347826 0.008333333333333333 0  0.6856521739130435 0 0  0.6856521739130435 0.008333333333333333 0  0.6939130434782609 0 0  0.6939130434782609 0.008333333333333333 0  0.7021739130434783 0 0  0.7021739130434783 0.008333333333333333 0  0.4130434782608696 0.01666666666666667 0  0.4213043478260869 0.01666666666666667 0  0.4295652173913043 0.01666666666666667 0  0.4378260869565217 0.01666666666666667 0  0.4460869565217391 0.01666666666666667 0  0.4543478260869565 0.01666666666666667 0  0.4626086956521739 0.01666666666666667 0  0.4708695652173913 0.01666666666666667 0  0.4791304347826086 0.01666666666666667 0  0.4873913043478261 0.01666666666666667 0  0.4956521739130435 0.01666666666666667 0  0.5039130434782608 0.01666666666666667 0  0.5121739130434783 0.01666666666666667 0  0.5204347826086956 0.01666666666666667 0  0.528695652173913 0.01666666666666667 0  0.5369565217391304 0.01666666666666667 0  0.5452173913043478 0.01666666666666667 0  0.5534782608695652 0.01666666666666667 0  0.5617391304347825 0.01666666666666667 0  0.57 0.01666666666666667 0  0.5782608695652174 0.01666666666666667 0  0.5865217391304348 0.01666666666666667 0  0.5947826086956521 0.01666666666666667 0  0.6030434782608696 0.01666666666666667 0  0.6113043478260869 0.01666666666666667 0  0.6195652173913043 0.01666666666666667 0  0.6278260869565218 0.01666666666666667 0  0.6360869565217391 0.01666666666666667 0  0.6443478260869565 0.01666666666666667 0  0.6526086956521739 0.01666666666666667 0  0.6608695652173913 0.01666666666666667 0  0.6691304347826087 0.01666666666666667 0  0.677391304347826 0.01666666666666667 0  0.6856521739130435 0.01666666666666667 0  0.6939130434782609 0.01666666666666667 0  0.7021739130434783 0.01666666666666667 0  0.4213043478260869 0.025 0  0.4295652173913043 0.025 0  0.4378260869565217 0.025 0  0.4460869565217391 0.025 0  0.4543478260869565 0.025 0  0.4626086956521739 0.025 0  0.4708695652173913 0.025 0  0.4791304347826086 0.025 0  0.4873913043478261 0.025 0  0.4956521739130435 0.025 0  0.5039130434782608 0.025 0  0.5121739130434783 0.025 0  0.5204347826086956 0.025 0  0.528695652173913 0.025 0  0.5369565217391304 0.025 0  0.5452173913043478 0.025 0  0.5534782608695652 0.025 0  0.5617391304347825 0.025 0  0.57 0.025 0  0.5782608695652174 0.025 0  0.5865217391304348 0.025 0  0.5947826086956521 0.025 0  0.6030434782608696 0.025 0  0.6113043478260869 0.025 0  0.6195652173913043 0.025 0  0.6278260869565218 0.025 0  0.6360869565217391 0.025 0  0.6443478260869565 0.025 0  0.6526086956521739 0.025 0  0.6608695652173913 0.025 0  0.6691304347826087 0.025 0  0.677391304347826 0.025 0  0.6856521739130435 0.025 0  0.6939130434782609 0.025 0  0.7021739130434783 0.025 0  0.7104347826086956 0.025 0  0.4295652173913043 0.03333333333333333 0  0.4378260869565217 0.03333333333333333 0  0.4460869565217391 0.03333333333333333 0  0.4543478260869565 0.03333333333333333 0  0.4626086956521739 0.03333333333333333 0  0.4708695652173913 0.03333333333333333 0  0.4791304347826086 0.03333333333333333 0  0.4873913043478261 0.03333333333333333 0  0.4956521739130435 0.03333333333333333 0  0.5039130434782608 0.03333333333333333 0  0.5121739130434783 0.03333333333333333 0  0.5204347826086956 0.03333333333333333 0  0.528695652173913 0.03333333333333333 0  0.5369565217391304 0.03333333333333333 0  0.5452173913043478 0.03333333333333333 0  0.5534782608695652 0.03333333333333333 0  0.5617391304347825 0.03333333333333333 0  0.57 0.03333333333333333 0  0.5782608695652174 0.03333333333333333 0  0.5865217391304348 0.03333333333333333 0  0.5947826086956521 0.03333333333333333 0  0.6030434782608696 0.03333333333333333 0  0.6113043478260869 0.03333333333333333 0  0.6195652173913043 0.03333333333333333 0  0.6278260869565218 0.03333333333333333 0  0.6360869565217391 0.03333333333333333 0  0.6443478260869565 0.03333333333333333 0  0.6526086956521739 0.03333333333333333 0  0.6608695652173913 0.03333333333333333 0  0.6691304347826087 0.03333333333333333 0  0.677391304347826 0.03333333333333333 0  0.6856521739130435 0.03333333333333333 0  0.6939130434782609 0.03333333333333333 0  0.7021739130434783 0.03333333333333333 0  0.7104347826086956 0.03333333333333333 0  0.718695652173913 0.03333333333333333 0  0.4378260869565217 0.04166666666666666 0  0.4460869565217391 0.04166666666666666 0  0.4543478260869565 0.04166666666666666 0  0.4626086956521739 0.04166666666666666 0  0.4708695652173913 0.04166666666666666 0  0.4791304347826086 0.04166666666666666 0  0.4873913043478261 0.04166666666666666 0  0.4956521739130435 0.04166666666666666 0  0.5039130434782608 0.04166666666666666 0  0.5121739130434783 0.04166666666666666 0  0.5204347826086956 0.04166666666666666 0  0.528695652173913 0.04166666666666666 0  0.5369565217391304 0.04166666666666666 0  0.5452173913043478 0.04166666666666666 0  0.5534782608695652 0.04166666666666666 0  0.5617391304347825 0.04166666666666666 0  0.57 0.04166666666666666 0  0.5782608695652174 0.04166666666666666 0  0.5865217391304348 0.04166666666666666 0  0.5947826086956521 0.04166666666666666 0  0.6030434782608696 0.04166666666666666 0  0.6113043478260869 0.04166666666666666 0  0.6195652173913043 0.04166666666666666 0  0.6278260869565218 0.04166666666666666 0  0.6360869565217391 0.04166666666666666 0  0.6443478260869565 0.04166666666666666 0  0.6526086956521739 0.04166666666666666 0  0.6608695652173913 0.04166666666666666 0  0.6691304347826087 0.04166666666666666 0  0.677391304347826 0.04166666666666666 0  0.6856521739130435 0.04166666666666666 0  0.6939130434782609 0.04166666666666666 0  0.7021739130434783 0.04166666666666666 0  0.7104347826086956 0.04166666666666666 0  0.718695652173913 0.04166666666666666 0  0.7269565217391304 0.04166666666666666 0  0.4460869565217391 0.05 0  0.4543478260869565 0.05 0  0.4626086956521739 0.05 0  0.4708695652173913 0.05 0  0.4791304347826086 0.05 0  0.4873913043478261 0.05 0  0.4956521739130435 0.05 0  0.5039130434782608 0.05 0  0.5121739130434783 0.05 0  0.5204347826086956 0.05 0  0.528695652173913 0.05 0  0.5369565217391304 0.05 0  0.5452173913043478 0.05 0  0.5534782608695652 0.05 0  0.5617391304347825 0.05 0  0.57 0.05 0  0.5782608695652174 0.05 0  0.5865217391304348 0.05 0  0.5947826086956521 0.05 0  0.6030434782608696 0.05 0  0.6113043478260869 0.05 0  0.6195652173913043 0.05 0  0.6278260869565218 0.05 0  0.6360869565217391 0.05 0  0.6443478260869565 0.05 0  0.6526086956521739 0.05 0  0.6608695652173913 0.05 0  0.6691304347826087 0.05 0  0.677391304347826 0.05 0  0.6856521739130435 0.05 0  0.6939130434782609 0.05 0  0.7021739130434783 0.05 0  0.7104347826086956 0.05 0  0.718695652173913 0.05 0  0.7269565217391304 0.05 0  0.7352173913043478 0.05 0  0.4543478260869565 0.05833333333333333 0  0.4626086956521739 0.05833333333333333 0  0.4708695652173913 0.05833333333333333 0  0.4791304347826086 0.05833333333333333 0  0.4873913043478261 0.05833333333333333 0  0.4956521739130435 0.05833333333333333 0  0.5039130434782608 0.05833333333333333 0  0.5121739130434783 0.05833333333333333 0  0.5204347826086956 0.05833333333333333 0  0.528695652173913 0.05833333333333333 0  0.5369565217391304 0.05833333333333333 0  0.5452173913043478 0.05833333333333333 0  0.5534782608695652 0.05833333333333333 0  0.5617391304347825 0.05833333333333333 0  0.57 0.05833333333333333 0  0.5782608695652174 0.05833333333333333 0  0.5865217391304348 0.05833333333333333 0  0.5947826086956521 0.05833333333333333 0  0.6030434782608696 0.05833333333333333 0  0.6113043478260869 0.05833333333333333 0  0.6195652173913043 0.05833333333333333 0  0.6278260
[...]
<CellData  Scalars="sigma_m"> 
<DataArray  type="Float64"  Name="sigma_m"  format="ascii">2.9568835535735940e+06   3.6213359484563344e+06   3.9196150071463259e+06   4.4092501805445366e+06   4.4385040916540977e+06   5.3028943455881858e+06   5.0343118754406339e+06   6.2638519490447929e+06   5.6848903141935775e+06   7.2292332542111166e+06   6.3557260705400938e+06   8.1108573961981777e+06   6.9993123256041864e+06   8.8014008391433377e+06   7.5566632574674310e+06   9.1911280859331507e+06   7.9643065041766567e+06   9.1943570265666172e+06   8.1644094529167516e+06   8.8324941418768764e+06   8.1467643333865320e+06   8.2310878303734623e+06   7.9467564045418166e+06   7.6581916446502628e+06   7.7281896741749896e+06   7.2692264195888815e+06   7.6082421304709055e+06   7.0404664144575689e+06   7.5596527250849744e+06   6.8914423132803971e+06   7.5352737907078071e+06   6.7689836910503134e+06   7.5132202181752864e+06   6.6611210440237634e+06   7.4900714721075697e+06   6.5828917114930442e+06   7.4766797721228721e+06   6.5413518261966240e+06   7.4752471232536780e+06   6.5288893800921263e+06   7.4807510207279986e+06   6.5344649224262480e+06   7.4891292248191573e+06   6.5502853813440967e+06   7.4985394416014394e+06   6.5727314918607408e+06   7.5083742959767720e+06   6.6014333431293024e+06   7.5188905017400775e+06   6.6374796435052529e+06   7.5312420063765235e+06   6.6801024207781944e+06   7.5463344391436242e+06   6.7237557063283091e+06   7.5627026553304894e+06   6.7604209099038607e+06   7.5769982564920820e+06   6.7862802373536788e+06   7.5871889828977268e+06   6.8055346584676867e+06   7.5944425001709508e+06   6.8275730125138070e+06   7.6020321957589174e+06   6.8605797375249583e+06   7.6130732855193494e+06   6.9061806724142246e+06   7.6284123768393071e+06   6.9586457574449228e+06   7.6460069463181989e+06   7.0095275364831993e+06   7.6630118090138733e+06   7.0529265742245866e+06   7.6778912715094518e+06   4.1034942859996161e+06   4.6981380392193981e+06   4.5841952122363755e+06   5.3536031422342267e+06   4.9933270557830455e+06   6.0326011990088429e+06   5.4398037122999011e+06   6.6894312884506285e+06   5.9015794607938342e+06   7.2735382928342605e+06   6.3576538797373604e+06   7.7351552224921566e+06   6.7870693513232442e+06   8.0338333010154041e+06   7.1611032452830207e+06   8.1373109157064315e+06   7.4341372760968031e+06   8.0728014015738331e+06   7.6164448616730031e+06   7.8679996279953979e+06   7.6612372719063628e+06   7.6999268036937229e+06   7.7032899417304089e+06   7.6234744296558900e+06   7.8746262287451671e+06   7.5982712123961374e+06   8.0532081732974174e+06   7.5857536155766444e+06   8.1869195976126594e+06   7.5689437723308289e+06   8.2891258793388261e+06   7.5474191255292203e+06   8.3608814007964376e+06   7.5362532750368174e+06   8.4159626750586703e+06   7.5365048551653745e+06   8.4595642046015207e+06   7.5425415575047527e+06   8.4879425397926085e+06   7.5505574249781966e+06   8.5021862840535622e+06   7.5589532068978371e+06   8.5064024509296156e+06   7.5672489039754299e+06   8.5036692234411575e+06   7.5759522456225539e+06   8.4953936192937717e+06   7.5868159932347424e+06   8.4830907889138889e+06   7.6012508894974031e+06   8.4699901255458277e+06   7.6173726270583691e+06   8.4590524161692243e+06   7.6308484832400437e+06   8.4506686095788423e+06   7.6392360133209461e+06   8.4434090960670393e+06   7.6441094674132112e+06   8.4355747281596344e+06   7.6494026760904053e+06   8.4255345337494742e+06   7.6587772987818932e+06   8.4124799761351272e+06   7.6731403321312657e+06   8.3970928203415051e+06   7.6899013168819370e+06   8.3804108016735297e+06   7.7058025843122229e+06   8.3637907666101661e+06   7.7194212875250112e+06   8.3493555465209652e+06   4.8228080158595406e+06   5.3304397452284116e+06   4.8846962012562640e+06   5.8489514004649548e+06   5.2216345427707583e+06   6.3415588644020557e+06   5.5665793688914273e+06   6.7782332982038027e+06   5.9060118757538525e+06   7.1342973734505484e+06   6.2397096201444017e+06   7.3808114487601276e+06   6.5619099019071832e+06   7.4785236567161325e+06   6.7879920313906800e+06   7.5346531398366801e+06   7.0173702483703913e+06   7.5061815960656004e+06   7.3549391686812034e+06   7.6543382001904454e+06   7.8399919327080445e+06   7.9010361963620279e+06   8.3430481861331351e+06   8.1011605422569364e+06   8.6565225701301321e+06   8.2417782770367572e+06   8.8385423830392919e+06   8.3476021829445390e+06   9.0561728917639460e+06   8.4185054035011828e+06   9.2837756425429620e+06   8.4771974910934847e+06   9.4276013588920049e+06   8.5229324007969219e+06   9.4965530771326534e+06   8.5510042682246938e+06   9.5255804111692756e+06   8.5639970889494494e+06   9.5313736115723625e+06   8.5666888084197994e+06   9.5237994912222512e+06   8.5621996061538849e+06   9.5074580951863825e+06   8.5518512614810485e+06   9.4827210273373649e+06   8.5375427669698801e+06   9.4462308016579393e+06   8.5233092213003524e+06   9.3960067197225522e+06   8.5119746098755710e+06   9.3417743328896966e+06   8.5028742803603690e+06   9.3018598602640983e+06   8.4940786114532761e+06   9.2845859980684891e+06   8.4842860018819757e+06   9.2796548920781091e+06   8.4722101806033012e+06   9.2679778264033571e+06   8.4573104401075877e+06   9.2346031663770396e+06   8.4405098317002133e+06   9.1774210294631552e+06   8.4224786431266218e+06   9.1097974385096189e+06   8.4043555322273038e+06   9.0488269188792277e+06   8.3885877042982839e+06   9.0027683209009971e+06   8.9719268878756873e+06   5.1307560084487004e+06   5.5735388846482579e+06   4.8928076565447683e+06   6.0064398196797147e+06   5.1865317007637899e+06   6.4033411824809276e+06   5.4604139026971115e+06   6.7425418757773880e+06   5.7047970459218426e+06   6.9654792194369687e+06   5.9222777741567865e+06   6.8953661670755986e+06   5.9880882736789761e+06   6.9557589935019538e+06   5.9588888073303578e+06   7.2451519047580967e+06   6.3522945805839412e+06   7.8835123489134228e+06   9.1107530146038495e+06   8.4221120683827084e+06   9.6909740342720915e+06   8.7209988317595385e+06   9.5301769133299775e+06   8.8826371210506074e+06   9.5039778986605071e+06   9.1289870382017381e+06   9.5566827762963641e+06   9.3565508137564939e+06   1.0337270095142430e+07   9.4964221284020096e+06   1.0739444444370084e+07   9.5651989449928030e+06   1.0670413496825494e+07   9.5921568380995039e+06   1.0617348797943262e+07   9.5958154845127482e+06   1.0583042013096884e+07   9.5866737289457042e+06   1.0554355677706821e+07   9.5693098884671833e+06   1.0524864412352081e+07   9.5436405137242861e+06   1.0492035020438243e+07   9.5050672226685733e+06   1.0445743604897104e+07   9.4507685583184306e+06   1.0353490926369762e+07   9.3924032967824731e+06   1.0203651693145970e+07   9.3508988945826199e+06   1.0080867623249680e+07   9.3347482628758010e+06   1.0063868834545664e+07   9.3316532663494218e+06   1.0122548210247299e+07   9.3206602326426152e+06   1.0166289400637323e+07   9.2854278324768804e+06   1.0135709053372784e+07   9.2239697614481244e+06   1.0010939529858993e+07   9.1517976873148568e+06   9.8301413220788464e+06   9.0874276324386764e+06   9.6854134033005089e+06   9.0393984736673497e+06   9.6060145469256360e+06   9.0077684668990187e+06   9.5670018135227561e+06   9.5481445616894793e+06   5.1067300894597843e+06   5.5346230778062753e+06   4.6647394127960345e+06   5.9534079048455218e+06   4.9041544672356369e+06   6.3109558593909070e+06   5.0516592562729344e+06   6.5354523476408646e+06   5.0196292082989784e+06   6.2198048970841216e+06   4.6272461652801745e+06   5.9561682652633758e+06   4.6845441509219771e+06   6.8512735423765127e+06   3.8840406519133206e+06   8.8779346765183378e+06   9.1814142212869134e+06   8.8476243687058501e+06   1.0091745429384006e+07   8.7380911611138936e+06   7.0588450209148135e+06   8.7054261779104583e+06   6.4070478512388887e+06   8.6304973744044434e+06   1.8318011923828740e+06   8.6508905348289795e+06   7.4445401818912142e+04   7.9827721995709166e+06   4.4714387058134980e+03   7.6819100529447459e+06   6.0996207145740482e+02   7.5942565353210587e+06   2.4321442536811716e+02   7.5785730347810406e+06   2.0653176790889748e+02   7.6023102025030274e+06   2.5633848712138445e+02   7.6574395745689459e+06   4.3418306065653690e+02   7.7429396555707194e+06   7.9290328585654538e+02   7.8737511002336591e+06   1.4029682494660231e+03   8.0632438202437591e+06   2.5988615101306923e+03   8.2390936197361378e+06   5.0267636499766322e+03   8.3202905364008639e+06   8.2625669427809717e+03   8.3264583412238816e+06   9.8737452266303553e+03   8.2884222331812074e+06   8.7382968372191353e+03   8.2502474188887868e+06   6.9433237625281918e+03   8.2735046265057009e+06   6.5054569512745511e+03   8.3512238825987177e+06   8.2255048127939135e+03   8.4086329104178809e+06   1.2993044335966788e+04   8.4262042443639599e+06   2.0589198415209470e+04   8.4290269886037819e+06   2.8205902662523855e+04   8.4258991959503945e+06   3.3288823397791217e+04   8.4178879459000044e+06   3.5351778990970270e+04   3.5089709572769534e+04   4.7732125365113197e+06   5.1950122700896868e+06   4.2244740969041511e+06   5.5468030187540501e+06   4.3587341737646163e+06   5.5361473230543733e+06   4.2957130840641037e+06   4.8630672221783027e+06   3.7018474592462243e+06   4.1491641197112617e+06   3.4887365573650934e+06   1.5114522473045334e+06   6.2275792694631265e+05   7.3142410570534067e-01   3.6102619100553722e-03   2.2769332885979276e-06   1.7073875548407156e-09   0.0000000000000000e+00   0.0000000000000000e+00   0.0000000000000000e+00   0.0000000000000000e+00   0.0000000000000000e+00   0.0000000000000000e+00   0.0000000000000000e+00   0.0000000000000000e+00   0.0000000000000000e+00   0.0000000000000000e+00   0.0000000000000000e+00   0.0000000000000000e+00   0.0000000000000000e+00   0.0000000000000000e+00   0.0000000000000000e+00   0.0000000000000000e+00   0.0000000000000000e+00   0.0000000000000000e+00   0.0000000000000000e+00   0.0000000000000000e+00   0.0000000000000000e+00   0.0000000000000000e+00   0.0000000000000000e+00   0.0000000000000000e+00   0.0000000000000000e+00   0.0000000000000000e+00   0.0000000000000000e+00   0.0000000000000000e+00   0.0000000000000000e+00   0.0000000000000000e+00   0.0000000000000000e+00   0.0000000000000000e+00   0.0000000000000000e+00   0.0000000000000000e+00   0.0000000000000000e+00   0.0000000000000000e+00   0.0000000000000000e+00   0.0000000000000000e+00   0.0000000000000000e+00   0.0000000000000000e+00   0.0000000000000000e+00   0.0000000000000000e+00   0.0000000000000000e+00   0.0000000000000000e+00   0.0000000000000000e+00   0.0000000000000000e+00   0.0000000000000000e+00   0.0000000000000000e+00   0.0000000000000000e+00   0.0000000000000000e+00   0.0000000000000000e+00   0.0000000000000000e+00   0.0000000000000000e+00   4.1095735067855739e+06   4.6485409497405691e+06   3.6781195487920255e+06   5.3150996314149359e+06   3.9357004238827238e+06   3.7580119001552053e+06   5.0421857609320199e+06   8.3905493962874438e+05   1.4967365435879794e+06   4.7775927859126181e-07   5.4685907228323541e-07   0.0000000000000000e+00   0.0000000000000000e+00   0.0000000000000000e+00   0.0000000000000000e+00   0.0000000000000000e+00   0.0000000000000000e+00   0.0000000000000000e+00   0.0000000000000000e+00   0.0000000000000000e+00   0.0000000000000000e+00   0.0000000000000000e+00   0.0000000000000000e+00   0.0000000000000000e+00   0.0000000000000000e+00   0.0000000000000000e+00   0.0000000000000000e+00   0.0000000000000000e+00   0.0000000000000000e+00   0.0000000000000000e+00   0.0000000000000000e+00   0.0000000000000000e+00   0.0000000000000000e+00   0.0000000000000000e+00   0.0000000000000000e+00   0.0000000000000000e+00   0.0000000000000000e+00   0.0000000000000000e+00   0.0000000000000000e+00   0.0000000000000000e+00   0.0000000000000000e+00   0.0000000000000000e+00   0.0000000000000000e+00   0.0000000000000000e+00   0.0000000000000000e+00   0.0000000000000000e+00   0.0000000000000000e+00   0.0000000000000000e+00   0.0000000000000000e+00   0.0000000000000000e+00   0.0000000000000000e+00   0.0000000000000000e+00   0.0000000000000000e+00   0.0000000000000000e+00   0.0000000000000000e+00   0.0000000000000000e+00   0.0000000000000000e+00   0.0000000000000000e+00   0.0000000000000000e+00   0.0000000000000000e+00   0.0000000000000000e+00   0.0000000000000000e+00   0.0000000000000000e+00   0.0000000000000000e+00   0.0000000000000000e+00   0.0000000000000000e+00   0.0000000000000000e+00   0.0000000000000000e+00   0.0000000000000000e+00   0.0000000000000000e+00   3.8114862496991782e+06   6.1025964693860309e+06   3.9324620753062009e+06   9.3501833458150197e+06   6.2547914660512442e+06   4.8160810965041573e-02   1.5100551075769948e+01   0.0000000000000000e+00   0.0000000000000000e+00   0.0000000000000000e+00   0.0000000000000000e+00   0.0000000000000000e+00   0.0000000000000000e+00   0.0000000000000000e+00   0.0000000000000000e+00   0.0000000000000000e+00   0.0000000000000000e+00   0.0000000000000000e+00   0.0000000000000000e+00   0.0000000000000000e+00   0.0000000000000000e+00   0.0000000000000000e+00   0.0000000000000000e+00   0.0000000000000000e+00   0.0000000000000000e+00   0.0000000000000000e+00   0.0000000000000000e+00   0.0000000000000000e+00   0.0000000000000000e+00   0.0000000000000000e+00   0.0000000000000000e+00   0.0000000000000000e+00   0.0000000000000000e+00   0.0000000000000000e+00   0.0000000000000000e+00   0.0000000000000000e+00   0.0000000000000000e+00   0.0000000000000000e+00   0.0000000000000000e+00   0.0000000000000000e+00   0.0000000000000000e+00   0.0000000000000000e+00   0.0000000000000000e+00   0.0000000000000000e+00   0.0000000000000000e+00   0.0000000000000000e+00   0.0000000000000000e+00   0.0000000000000000e+00   0.0000000000000000e+00   0.0000000000000000e+00   0.0000000000000000e+00   0.0000000000000000e+00   0.0000000000000000e+00   0.0000000000000000e+00   0.0000000000000000e+00   0.0000000000000000e+00   0.0000000000000000e+00   0.0000000000000000e+00   0.0000000000000000e+00   0.0000000000000000e+00   0.0000000000000000e+00   0.0000000000000000e+00   0.0000000000000000e+00   0.0000000000000000e+00   0.0000000000000000e+00   0.0000000000000000e+00   0.0000000000000000e+00   0.0000000000000000e+00   0.0000000000000000e+00   0.0000000000000000e+00   6.9904575425579855e+06   1.2600666301972300e+07   7.4525551936149718e+06   1.1668419617491222e-05   1.1732455001756781e-01   0.0000000000000000e+00   0.0000000000000000e+00   0.0000000000000000e+00   0.0000000000000000e+00   0.0000000000000000e+00   0.0000000000000000e+00   0.0000000000000000e+00   0.0000000000000000e+00   0.0000000000000000e+00   0.0000000000000000e+00   0.0000000000000000e+00   0.0000000000000000e+00   0.0000000000000000e+00   0.0000000000000000e+00   0.0000000000000000e+00   0.0000000000000000e+00   0.0000000000000000e+00   0.0000000000000000e+00   0.0000000000000000e+00   0.0000000000000000e+00   0.0000000000000000e+00   0.0000000000000000e+00   0.0000000000000000e+00   0.0000000000000000e+00   0.0000000000000000e+00   0.0000000000000000e+00   0.0000000000000000e+00   0.0000000000000000e+00   0.0000000000000000e+00   0.0000000000000000e+00   0.0000000000000000e+00   0.0000000000000000e+00   0.0000000000000000e+00   0.0000000000000000e+00   0.0000000000000000e+00   0.0000000000000000e+00   0.0000000000000000e+00   0.0000000000000000e+00   0.0000000000000000e+00   0.0000000000000000e+00   0.0000000000000000e+00   0.0000000000000000e+00   0.0000000000000000e+00   0.0000000000000000e+00   0.0000000000000000e+00   0.0000000000000000e+00   0.0000000000000000e+00   0.0000000000000000e+00   0.0000000000000000e+00   0.0000000000000000e+00   0.0000000000000000e+00   0.0000000000000000e+00   0.0000000000000000e+00   0.0000000000000000e+00   0.0000000000000000e+00   0.0000000000000000e+00   0.0000000000000000e+00   0.0000000000000000e+00   0.0000000000000000e+00   0.0000000000000000e+00   0.0000000000000000e+00   0.0000000000000000e+00   0.0000000000000000e+00   0.0000000000000000e+00   0.0000000000000000e+00   1.1540293718550408e+07   1.2676081239657310e-05   1.4814145983104142e+01   0.0000000000000000e+00   0.0000000000000000e+00   0.0000000000000000e+00   0.0000000000000000e+00   0.0000000000000000e+00   0.0000000000000000e+00   0.0000000000000000e+00   0.0000000000000000e+00   0.0000000000000000e+00   0.0000000000000000e+00   0.0000000000000000e+00   0.0000000000000000e+00   0.0000000000000000e+00   0.0000000000000000e+00   0.0000000000000000e+00   0.0000000000000000e+00   0.0000000000000000e+00   0.0000000000000000e+00   0.0000000000000000e+00   0.0000000000000000e+00   0.0000000000000000e+00   0.0000000000000000e+00   0.0000000000000000e+00   0.0000000000000000e+00   0.0000000000000000e+00   0.0000000000000000e+00   0.0000000000000000e+00   0.0000000000000000e+00   0.0000000000000000e+00   0.0000000000000000e+00   0.0000000000000000e+00   0.0000000000000000e+00   0.0000000000000000e+00   0.0000000000000000e+00   0.0000000000000000e+00   0.0000000000000000e+00   0.0000000000000000e+00   0.0000000000000000e+00   0.0000000000000000e+00   0.0000000000000000e+00   0.0000000000000000e+00   0.0000000000000000e+00   0.0000000000000000e+00   0.0000000000000000e+00   0.0000000000000000e+00   0.0000000000000000e+00   0.0000000000000000e+00   0.0000000000000000e+00   0.0000000000000000e+00   0.0000000000000000e+00   0.0000000000000000e+00   0.0000000000000000e+00   0.0000000000000000e+00   0.0000000000000000e+00   0.0000000000000000e+00   0.0000000000000000e+00   0.0000000000000000e+00   0.0000000000000000e+00   0.0000000000000000e+00   0.0000000000000000e+00   0.0000000000000000e+00   0.0000000000000000e+00   0.0000000000000000e+00   0.0000000000000000e+00   0.0000000000000000e+00   0.0000000000000000e+00   0.0000000000000000e+00   7.2985565519793100e-02   0.0000000000000000e+00   0.0000000000000000e+00   0.0000000000000000e+00   0.0000000000000000e+00   0.0000000000000000e+00   0.0000000000000000e+00   0.0000000000000000e+00   0.0000000000000000e+00   0.0000000000000000e+00   0.0000000000000000e+00   0.0000000000000000e+00   0.0000000000000000e+00   0.0000000000000000e+00   0.0000000000000000e+00   0.0000000000000000e+00   0.0000000000000000e+00   0.0000000000000000e+00   0.0000000000000000e+00   0.0000000000000000e+00   0.0000000000000000e+00   0.0000000000000000e+00   0.0000000000000000e+00   0.0000000000000000e+00   0.0000000000000000e+00   0.0000000000000000e+00   0.0000000000000000e+00   0.0000000000000000e+00   0.0000000000000000e+00   0.0000000000000000e+00   0.0000000000000000e+00   0.0000000000000000e+00   0.0000000000000000e+00   0.0000000000000000e+00   0.0000000000000000e+00   0.0000000000000000e+00   0.0000000000000000e+00   0.0000000000000000e+00   0.0000000000000000e+00   0.0000000000000000e+00   0.0000000000000000e+00   0.0000000000000000e+00   0.0000000000000000e+00   0.0000000000000000e+00   0.0000000000000000e+00   0.0000000000000000e+00   0.0000000000000000e+00   0.0000000000000000e+00   0.0000000000000000e+00   0.0000000000000000e+00   0.0000000000000000e+00   0.0000000000000000e+00   0.0000000000000000e+00   0.0000000000000000e+00   0.0000000000000000e+00   0.0000000000000000e+00   0.0000000000000000e+00   0.0000000000000000e+00   0.0000000000000000e+00   0.0000000000000000e+00   0.0000000000000000e+00   0.0000000000000000e+00   0.0000000000000000e+00   0.0000000000000000e+00   0.0000000000000000e+00   0.0000000000000000e+00   0.0000000000000000e+00   0.0000000000000000e+00   0.0000000000000000e+00   0.0000000000000000e+00   0.0000000000000000e+00   0.0000000000000000e+00   0.0000000000000000e+00   0.0000000000000000e+00   0.0000000000000000e+00   0.0000000000000000e+00   0.0000000000000000e+00   0.0000000000000000e+00   0.0000000000000000e+00   0.0000000000000000e+00   0.0000000000000000e+00   0.0000000000000000e+00   0.0000000000000000e+00   0.0000000000000000e+00   0.0000000000000000e+00   0.0000000000000000e+00   0.0000000000000000e+00   0.0000000000000000e+00   0.0000000000000000e+00   0.0000000000000000e+00   0.0000000000000000e+00   0.0000000000000000e+00   0.00000000