<?xml version="1.0"?>
<VTKFile type="UnstructuredGrid"  version="0.1"  >
<UnstructuredGrid>
<Piece  NumberOfPoints="2423" NumberOfCells="4638">
<Points>
<DataArray  type="Float64"  NumberOfComponents="3"  format="ascii">2.940869565217391 0 0  2.949130434782608 0 0  2.949130434782608 0.008333333333333333 0  2.940869565217391 0.008333333333333333 0  2.957391304347826 0 0  2.957391304347826 0.008333333333333333 0  2.965652173913043 0 0  2.965652173913043 0.008333333333333333 0  2.973913043478261 0 0  2.973913043478261 0.008333333333333333 0  2.982173913043478 0 0  2.982173913043478 0.008333333333333333 0  2.990434782608696 0 0  2.990434782608696 0.008333333333333333 0  2.998695652173913 0 0  2.998695652173913 0.008333333333333333 0  3.006956521739131 0 0  3.006956521739131 0.008333333333333333 0  3.015217391304348 0 0  3.015217391304348 0.008333333333333333 0  3.023478260869565 0 0  3.023478260869565 0.008333333333333333 0  3.031739130434782 0 0  3.031739130434782 0.008333333333333333 0  3.04 0 0  3.04 0.008333333333333333 0  3.048260869565218 0 0  3.048260869565218 0.008333333333333333 0  3.056521739130435 0 0  3.056521739130435 0.008333333333333333 0  3.064782608695652 0 0  3.064782608695652 0.008333333333333333 0  3.073043478260869 0 0  3.073043478260869 0.008333333333333333 0  3.081304347826087 0 0  3.081304347826087 0.008333333333333333 0  3.089565217391304 0 0  3.089565217391304 0.008333333333333333 0  3.097826086956522 0 0  3.097826086956522 0.008333333333333333 0  3.106086956521739 0 0  3.106086956521739 0.008333333333333333 0  3.114347826086956 0 0  3.114347826086956 0.008333333333333333 0  3.122608695652174 0 0  3.122608695652174 0.008333333333333333 0  3.130869565217391 0 0  3.130869565217391 0.008333333333333333 0  3.139130434782609 0 0  3.139130434782609 0.008333333333333333 0  3.147391304347826 0 0  3.147391304347826 0.008333333333333333 0  3.155652173913043 0 0  3.155652173913043 0.008333333333333333 0  3.163913043478261 0 0  3.163913043478261 0.008333333333333333 0  3.172173913043478 0 0  3.172173913043478 0.008333333333333333 0  3.180434782608696 0 0  3.180434782608696 0.008333333333333333 0  3.188695652173913 0 0  3.188695652173913 0.008333333333333333 0  3.19695652173913 0 0  3.19695652173913 0.008333333333333333 0  3.205217391304347 0 0  3.205217391304347 0.008333333333333333 0  3.213478260869565 0 0  3.213478260869565 0.008333333333333333 0  3.221739130434782 0 0  3.221739130434782 0.008333333333333333 0  3.23 0 0  3.23 0.008333333333333333 0  3.238260869565217 0 0  3.238260869565217 0.008333333333333333 0  2.949130434782608 0.01666666666666667 0  2.957391304347826 0.01666666666666667 0  2.965652173913043 0.01666666666666667 0  2.973913043478261 0.01666666666666667 0  2.982173913043478 0.01666666666666667 0  2.990434782608696 0.01666666666666667 0  2.998695652173913 0.01666666666666667 0  3.006956521739131 0.01666666666666667 0  3.015217391304348 0.01666666666666667 0  3.023478260869565 0.01666666666666667 0  3.031739130434782 0.01666666666666667 0  3.04 0.01666666666666667 0  3.048260869565218 0.01666666666666667 0  3.056521739130435 0.01666666666666667 0  3.064782608695652 0.01666666666666667 0  3.073043478260869 0.01666666666666667 0  3.081304347826087 0.01666666666666667 0  3.089565217391304 0.01666666666666667 0  3.097826086956522 0.01666666666666667 0  3.106086956521739 0.01666666666666667 0  3.114347826086956 0.01666666666666667 0  3.122608695652174 0.01666666666666667 0  3.130869565217391 0.01666666666666667 0  3.139130434782609 0.01666666666666667 0  3.147391304347826 0.01666666666666667 0  3.155652173913043 0.01666666666666667 0  3.163913043478261 0.01666666666666667 0  3.172173913043478 0.01666666666666667 0  3.180434782608696 0.01666666666666667 0  3.188695652173913 0.01666666666666667 0  3.19695652173913 0.01666666666666667 0  3.205217391304347 0.01666666666666667 0  3.213478260869565 0.01666666666666667 0  3.221739130434782 0.01666666666666667 0  3.23 0.01666666666666667 0  3.238260869565217 0.01666666666666667 0  3.246521739130435 0.01666666666666667 0  2.957391304347826 0.025 0  2.949130434782608 0.025 0  2.965652173913043 0.025 0  2.973913043478261 0.025 0  2.982173913043478 0.025 0  2.990434782608696 0.025 0  2.998695652173913 0.025 0  3.006956521739131 0.025 0  3.015217391304348 0.025 0  3.023478260869565 0.025 0  3.031739130434782 0.025 0  3.04 0.025 0  3.048260869565218 0.025 0  3.056521739130435 0.025 0  3.064782608695652 0.025 0  3.073043478260869 0.025 0  3.081304347826087 0.025 0  3.089565217391304 0.025 0  3.097826086956522 0.025 0  3.106086956521739 0.025 0  3.114347826086956 0.025 0  3.122608695652174 0.025 0  3.130869565217391 0.025 0  3.139130434782609 0.025 0  3.147391304347826 0.025 0  3.155652173913043 0.025 0  3.163913043478261 0.025 0  3.172173913043478 0.025 0  3.180434782608696 0.025 0  3.188695652173913 0.025 0  3.19695652173913 0.025 0  3.205217391304347 0.025 0  3.213478260869565 0.025 0  3.221739130434782 0.025 0  3.23 0.025 0  3.238260869565217 0.025 0  3.246521739130435 0.025 0  3.254782608695652 0.025 0  2.957391304347826 0.03333333333333333 0  2.949130434782608 0.03333333333333333 0  2.965652173913043 0.03333333333333333 0  2.973913043478261 0.03333333333333333 0  2.982173913043478 0.03333333333333333 0  2.990434782608696 0.03333333333333333 0  2.998695652173913 0.03333333333333333 0  3.006956521739131 0.03333333333333333 0  3.015217391304348 0.03333333333333333 0  3.023478260869565 0.03333333333333333 0  3.031739130434782 0.03333333333333333 0  3.04 0.03333333333333333 0  3.048260869565218 0.03333333333333333 0  3.056521739130435 0.03333333333333333 0  3.064782608695652 0.03333333333333333 0  3.073043478260869 0.03333333333333333 0  3.081304347826087 0.03333333333333333 0  3.089565217391304 0.03333333333333333 0  3.097826086956522 0.03333333333333333 0  3.106086956521739 0.03333333333333333 0  3.114347826086956 0.03333333333333333 0  3.122608695652174 0.03333333333333333 0  3.130869565217391 0.03333333333333333 0  3.139130434782609 0.03333333333333333 0  3.147391304347826 0.03333333333333333 0  3.155652173913043 0.03333333333333333 0  3.163913043478261 0.03333333333333333 0  3.172173913043478 0.03333333333333333 0  3.180434782608696 0.03333333333333333 0  3.188695652173913 0.03333333333333333 0  3.19695652173913 0.03333333333333333 0  3.205217391304347 0.03333333333333333 0  3.213478260869565 0.03333333333333333 0  3.221739130434782 0.03333333333333333 0  3.23 0.03333333333333333 0  3.238260869565217 0.03333333333333333 0  3.246521739130435 0.03333333333333333 0  3.254782608695652 0.03333333333333333 0  3.26304347826087 0.03333333333333333 0  2.957391304347826 0.04166666666666666 0  2.965652173913043 0.04166666666666666 0  2.973913043478261 0.04166666666666666 0  2.982173913043478 0.04166666666666666 0  2.990434782608696 0.04166666666666666 0  2.998695652173913 0.04166666666666666 0  3.006956521739131 0.04166666666666666 0  3.015217391304348 0.04166666666666666 0  3.023478260869565 0.04166666666666666 0  3.031739130434782 0.04166666666666666 0  3.04 0.04166666666666666 0  3.048260869565218 0.04166666666666666 0  3.056521739130435 0.04166666666666666 0  3.064782608695652 0.04166666666666666 0  3.073043478260869 0.04166666666666666 0  3.081304347826087 0.04166666666666666 0  3.089565217391304 0.04166666666666666 0  3.097826086956522 0.04166666666666666 0  3.106086956521739 0.04166666666666666 0  3.114347826086956 0.04166666666666666 0  3.122608695652174 0.04166666666666666 0  3.130869565217391 0.04166666666666666 0  3.139130434782609 0.04166666666666666 0  3.147391304347826 0.04166666666666666 0  3.155652173913043 0.04166666666666666 0  3.163913043478261 0.04166666666666666 0  3.172173913043478 0.04166666666666666 0  3.180434782608696 0.04166666666666666 0  3.188695652173913 0.04166666666666666 0  3.19695652173913 0.04166666666666666 0  3.205217391304347 0.04166666666666666 0  3.213478260869565 0.04166666666666666 0  3.221739130434782 0.04166666666666666 0  3.23 0.04166666666666666 0  3.238260869565217 0.04166666666666666 0  3.246521739130435 0.04166666666666666 0  3.254782608695652 0.04166666666666666 0  3.26304347826087 0.04166666666666666 0  3.271304347826087 0.04166666666666666 0  2.965652173913043 0.05 0  2.957391304347826 0.05 0  2.973913043478261 0.05 0  2.982173913043478 0.05 0  2.990434782608696 0.05 0  2.998695652173913 0.05 0  3.006956521739131 0.05 0  3.015217391304348 0.05 0  3.023478260869565 0.05 0  3.031739130434782 0.05 0  3.04 0.05 0  3.048260869565218 0.05 0  3.056521739130435 0.05 0  3.064782608695652 0.05 0  3.073043478260869 0.05 0  3.081304347826087 0.05 0  3.089565217391304 0.05 0  3.097826086956522 0.05 0  3.106086956521739 0.05 0  3.114347826086956 0.05 0  3.122608695652174 0.05 0  3.130869565217391 0.05 0  3.139130434782609 0.05 0  3.147391304347826 0.05 0  3.155652173913043 0.05 0  3.163913043478261 0.05 0  3.172173913043478 0.05 0  3.180434782608696 0.05 0  3.188695652173913 0.05 0  3.19695652173913 0.05 0  3.205217391304347 0.05 0  3.213478260869565 0.05 0  3.221739130434782 0.05 0  3.23 0.05 0  3.238260869565217 0.05 0  3.246521739130435 0.05 0  3.254782608695652 0.05 0  3.26304347826087 0.05 0  3.271304347826087 0.05 0  3.279565217391304 0.05 0  2.965652173913043 0.05833333333333333 0  2.973913043478261 0.05833333333333333 0  2.982173913043478 0.05833333333333333 0  2.990434782608696 0.05833333333333333 0  2.998695652173913 0.05833333333333333 0  3.006956521739131 0.05833333333333333 0  3.015217391304348 0.05833333333333333 0  3.023478260869565 0.05833333333333333 0  3.031739130434782 0.05833333333333333 0  3.04 0.05833333333333333 0  3.048260869565218 0.05833333333333333 0  3.056521739130435 0.05833333333333333 0  3.064782608695652 0.05833333333333333 0  3.073043478260869 0.05833333333333333 0  3.081304347826087 0.05833333333333333 0  3.089565217391304 0.05833333333333333 0  3.097826086956522 0.05833333333333333 0  3.106086956521739 0.05833333333333333 0  3.114347826086956 0.05833333333333333 0  3.122608695652174 0.
[...]
<PointData  Vectors="Displacement"> 
<DataArray  type="Float64"  Name="Displacement"  NumberOfComponents="3" format="ascii">3.8929205580186331e-04 3.7965819486305559e-03 0.0000000000000000e+00  3.8963984440316967e-04 3.8108627417325473e-03 0.0000000000000000e+00  3.7528634045244983e-04 3.8107294264662118e-03 0.0000000000000000e+00  3.7483665792227257e-04 3.7964474678377912e-03 0.0000000000000000e+00  3.8997992708845168e-04 3.8250559171948417e-03 0.0000000000000000e+00  3.7572706052707469e-04 3.8249259356541868e-03 0.0000000000000000e+00  3.9030667152666548e-04 3.8391520855862267e-03 0.0000000000000000e+00  3.7615971777042766e-04 3.8390264757965629e-03 0.0000000000000000e+00  3.9061847459820613e-04 3.8531393598772988e-03 0.0000000000000000e+00  3.7658447407874112e-04 3.8530184971050699e-03 0.0000000000000000e+00  3.9091699616900855e-04 3.8670079572663265e-03 0.0000000000000000e+00  3.7700077302839737e-04 3.8668911516865257e-03 0.0000000000000000e+00  3.9120581300233022e-04 3.8807532187208659e-03 0.0000000000000000e+00  3.7740904558721092e-04 3.8806393297309109e-03 0.0000000000000000e+00  3.9148639557241453e-04 3.8943761764878015e-03 0.0000000000000000e+00  3.7780876595463488e-04 3.8942674093863771e-03 0.0000000000000000e+00  3.9176215273107213e-04 3.9078736887324167e-03 0.0000000000000000e+00  3.7819646803712714e-04 3.9077706886537396e-03 0.0000000000000000e+00  3.9204545639786963e-04 3.9212480316927261e-03 0.0000000000000000e+00  3.7857201596603978e-04 3.9211454672336962e-03 0.0000000000000000e+00  3.9235428796943495e-04 3.9345231211525174e-03 0.0000000000000000e+00  3.7894322670804727e-04 3.9344136333239760e-03 0.0000000000000000e+00  3.9269723301452479e-04 3.9477496077390149e-03 0.0000000000000000e+00  3.7931385600009334e-04 3.9476323550172608e-03 0.0000000000000000e+00  3.9307391483791839e-04 3.9609701600216559e-03 0.0000000000000000e+00  3.7968601877004000e-04 3.9608455375935766e-03 0.0000000000000000e+00  3.9347933489254286e-04 3.9742184154057218e-03 0.0000000000000000e+00  3.8006079512936143e-04 3.9740875530219991e-03 0.0000000000000000e+00  3.9390482800205417e-04 3.9875208918912167e-03 0.0000000000000000e+00  3.8043655012281075e-04 3.9873862697348966e-03 0.0000000000000000e+00  3.9433894688809261e-04 4.0008953417651856e-03 0.0000000000000000e+00  3.8080887729957739e-04 4.0007604294575241e-03 0.0000000000000000e+00  3.9477014301034165e-04 4.0143489558199718e-03 0.0000000000000000e+00  3.8117266248862569e-04 4.0142168499007168e-03 0.0000000000000000e+00  3.9518875606086434e-04 4.0278815577918705e-03 0.0000000000000000e+00  3.8152328193223259e-04 4.0277545690549461e-03 0.0000000000000000e+00  3.9558731185498252e-04 4.0414891653076041e-03 0.0000000000000000e+00  3.8185680913557649e-04 4.0413689652090256e-03 0.0000000000000000e+00  3.9595980218413670e-04 4.0551661393082826e-03 0.0000000000000000e+00  3.8216978506986173e-04 4.0550540610451878e-03 0.0000000000000000e+00  3.9630066549231890e-04 4.0689059285137705e-03 0.0000000000000000e+00  3.8245887838786311e-04 4.0688032613854733e-03 0.0000000000000000e+00  3.9660384903101263e-04 4.0827007628685659e-03 0.0000000000000000e+00  3.8272057531204575e-04 4.0826090210121018e-03 0.0000000000000000e+00  3.9686215797533870e-04 4.0965404534314773e-03 0.0000000000000000e+00  3.8295097002926840e-04 4.0964616598690084e-03 0.0000000000000000e+00  3.9706708123799894e-04 4.1104103171887910e-03 0.0000000000000000e+00  3.8314559778341743e-04 4.1103474656008620e-03 0.0000000000000000e+00  3.9720962544560865e-04 4.1242879651237829e-03 0.0000000000000000e+00  3.8329914239026340e-04 4.1242458593467131e-03 0.0000000000000000e+00  3.9728376341121880e-04 4.1381395845237019e-03 0.0000000000000000e+00  3.8340451375316642e-04 4.1381255715327260e-03 0.0000000000000000e+00  3.9730057239666637e-04 4.1519278147063368e-03 0.0000000000000000e+00  3.8345018205751004e-04 4.1519389412812673e-03 0.0000000000000000e+00  3.9775332862947187e-04 4.1659607272248652e-03 0.0000000000000000e+00  3.8344954937845463e-04 4.1656803248463700e-03 0.0000000000000000e+00  3.9960856831336216e-04 4.1809403518728748e-03 0.0000000000000000e+00  3.8494303208278104e-04 4.1804442008478758e-03 0.0000000000000000e+00  4.0122139511561362e-04 4.1957417364363783e-03 0.0000000000000000e+00  3.8640464926110210e-04 4.1952581685838833e-03 0.0000000000000000e+00  4.0273766997518169e-04 4.2105758313783050e-03 0.0000000000000000e+00  3.8779320710039450e-04 4.2101079166506107e-03 0.0000000000000000e+00  4.0420574991741445e-04 4.2254966649151694e-03 0.0000000000000000e+00  3.8913127562055424e-04 4.2250384329322165e-03 0.0000000000000000e+00  4.0564114231638230e-04 4.2405423368220875e-03 0.0000000000000000e+00  3.9042856446744361e-04 4.2400935297011669e-03 0.0000000000000000e+00  4.0704154718653422e-04 4.2557373911336592e-03 0.0000000000000000e+00  3.9168387718966730e-04 4.2553012885408279e-03 0.0000000000000000e+00  4.0839848290811760e-04 4.2710901178685950e-03 0.0000000000000000e+00  3.9289256449022620e-04 4.2706698161529928e-03 0.0000000000000000e+00  4.0970288391371340e-04 4.2866010979308060e-03 0.0000000000000000e+00  3.9404895468209697e-04 4.2861992628027666e-03 0.0000000000000000e+00  4.1094636638829398e-04 4.3022677348032532e-03 0.0000000000000000e+00  3.9514699027941134e-04 4.3018867758605585e-03 0.0000000000000000e+00  3.6095417416800708e-04 3.8105586725679869e-03 0.0000000000000000e+00  3.6149146570488305e-04 3.8247598962684206e-03 0.0000000000000000e+00  3.6202852598959815e-04 3.8388643142296657e-03 0.0000000000000000e+00  3.6256663757729921e-04 3.8528601920429519e-03 0.0000000000000000e+00  3.6310293164797510e-04 3.8667376144534801e-03 0.0000000000000000e+00  3.6362944990703261e-04 3.8804877276512515e-03 0.0000000000000000e+00  3.6414421388968277e-04 3.8941216868113595e-03 0.0000000000000000e+00  3.6464979769257387e-04 3.9076432451639279e-03 0.0000000000000000e+00  3.6511687799595255e-04 3.9210301404851763e-03 0.0000000000000000e+00  3.6554224985384812e-04 3.9342927498237394e-03 0.0000000000000000e+00  3.6593472779206435e-04 3.9475100870679115e-03 0.0000000000000000e+00  3.6629978826492680e-04 3.9607221385896257e-03 0.0000000000000000e+00  3.6664613174016824e-04 3.9739619308604103e-03 0.0000000000000000e+00  3.6697927867710214e-04 3.9872600468917278e-03 0.0000000000000000e+00  3.6729962553242335e-04 4.0006373732808928e-03 0.0000000000000000e+00  3.6760624872641325e-04 4.0140992074558712e-03 0.0000000000000000e+00  3.6789852969759657e-04 4.0276430356166555e-03 0.0000000000000000e+00  3.6817604141779688e-04 4.0412634994375909e-03 0.0000000000000000e+00  3.6843826141986759e-04 4.0549544839227000e-03 0.0000000000000000e+00  3.6868444561037703e-04 4.0687095991083699e-03 0.0000000000000000e+00  3.6891358135486156e-04 4.0825217948772252e-03 0.0000000000000000e+00  3.6912435364681157e-04 4.0963822912406106e-03 0.0000000000000000e+00  3.6931490073539971e-04 4.1102791955813095e-03 0.0000000000000000e+00  3.6948210126893732e-04 4.1241956159070222e-03 0.0000000000000000e+00  3.6961972071516595e-04 4.1381074092559488e-03 0.0000000000000000e+00  3.6971395374331238e-04 4.1519794800774137e-03 0.0000000000000000e+00  3.6973644384874087e-04 4.1657610059377594e-03 0.0000000000000000e+00  3.7068064764784515e-04 4.1801602798404568e-03 0.0000000000000000e+00  3.7182037528056170e-04 4.1948840220735889e-03 0.0000000000000000e+00  3.7299755204599661e-04 4.2097106586469714e-03 0.0000000000000000e+00  3.7417059468436084e-04 4.2246300784104449e-03 0.0000000000000000e+00  3.7532257375280924e-04 4.2396855619049869e-03 0.0000000000000000e+00  3.7643907391857320e-04 4.2549047925420124e-03 0.0000000000000000e+00  3.7751137318001811e-04 4.2702893459994340e-03 0.0000000000000000e+00  3.7853370817079730e-04 4.2858370838311285e-03 0.0000000000000000e+00  3.7950087319736317e-04 4.3015446618936996e-03 0.0000000000000000e+00  3.8040769116316986e-04 4.3174077877183269e-03 0.0000000000000000e+00  3.4725286106788522e-04 3.8245607119270775e-03 0.0000000000000000e+00  3.4663828596640087e-04 3.8103594575220100e-03 0.0000000000000000e+00  3.4789056546657992e-04 3.8386641201914539e-03 0.0000000000000000e+00  3.4854797972961834e-04 3.8526596904288634e-03 0.0000000000000000e+00  3.4921711499215260e-04 3.8665395907867628e-03 0.0000000000000000e+00  3.4988566006797817e-04 3.8803025852082135e-03 0.0000000000000000e+00  3.5050022839714523e-04 3.8939345091586791e-03 0.0000000000000000e+00  3.5112860067464878e-04 3.9074574987350624e-03 0.0000000000000000e+00  3.5178848735620456e-04 3.9209174890763527e-03 0.0000000000000000e+00  3.5224066956047079e-04 3.9341679310686915e-03 0.0000000000000000e+00  3.5263673141510890e-04 3.9473913488584514e-03 0.0000000000000000e+00  3.5297479197301379e-04 3.9606069356460478e-03 0.0000000000000000e+00  3.5327560779018554e-04 3.9738434863347835e-03 0.0000000000000000e+00  3.5355651070439489e-04 3.9871397779008355e-03 0.0000000000000000e+00  3.5382120902434095e-04 4.0005220785345628e-03 0.0000000000000000e+00  3.5407078281905589e-04 4.0139915853121396e-03 0.0000000000000000e+00  3.5430701646035000e-04 4.0275426032083507e-03 0.0000000000000000e+00  3.5453188124929440e-04 4.0411685687545664e-03 0.0000000000000000e+00  3.5474703362707398e-04 4.0548633170506632e-03 0.0000000000000000e+00  3.5495372004519738e-04 4.0686209488445171e-03 0.0000000000000000e+00  3.5515280803687414e-04 4.0824353001399707e-03 0.0000000000000000e+00  3.5534487031223467e-04 4.0962989100274509e-03 0.0000000000000000e+00  3.5552999932073097e-04 4.1102022436195779e-03 0.0000000000000000e+00  3.5570732936929212e-04 4.1241326577180736e-03 0.0000000000000000e+00  3.5587390287456974e-04 4.1380739538505957e-03 0.0000000000000000e+00  3.5602185449616603e-04 4.1520066468054197e-03 0.0000000000000000e+00  3.5612895684625310e-04 4.1659030380201325e-03 0.0000000000000000e+00  3.5627029377909930e-04 4.1799957119477271e-03 0.0000000000000000e+00  3.5727368938858958e-04 4.1946386420359718e-03 0.0000000000000000e+00  3.5828427830668374e-04 4.2094043457729267e-03 0.0000000000000000e+00  3.5930326044471630e-04 4.2242771405820541e-03 0.0000000000000000e+00  3.6031675864186841e-04 4.2393143946329662e-03 0.0000000000000000e+00  3.6130242723535341e-04 4.2545408268444924e-03 0.0000000000000000e+00  3.6224852735099877e-04 4.2699399874201998e-03 0.0000000000000000e+00  3.6314864184763931e-04 4.2855050875662644e-03 0.0000000000000000e+00  3.6399742167910230e-04 4.3012317361575654e-03 0.0000000000000000e+00  3.6478999739634262e-04 4.3171153956182030e-03 0.0000000000000000e+00  3.6552184414587500e-04 4.3331509829376714e-03 0.0000000000000000e+00  3.3317907450068987e-04 3.8238901732076361e-03 0.0000000000000000e+00  3.3257195725902350e-04 3.8095258129036340e-03 0.0000000000000000e+00  3.3370371462464069e-04 3.8384292545921325e-03 0.0000000000000000e+00  3.3442992532729874e-04 3.8524406004669808e-03 0.0000000000000000e+00  3.3521549834582558e-04 3.8663167974233516e-03 0.0000000000000000e+00  3.3600195137743896e-04 3.8800800163675941e-03 0.0000000000000000e+00  3.3681639067909377e-04 3.8937275114193015e-03 0.0000000000000000e+00  3.3764661456214888e-04 3.9072496907610749e-03 0.0000000000000000e+00  3.3832291513339544e-04 3.9206885911444497e-03 0.0000000000000000e+00  3.3916765868167032e-04 3.9340689950964252e-03 0.0000000000000000e+00  3.3949174305424653e-04 3.9472926712886642e-03 0.0000000000000000e+00  3.3977437066760109e-04 3.9605253297665234e-03 0.0000000000000000e+00  3.3998071443883945e-04 3.9737469217934673e-03 0.0000000000000000e+00  3.4018119471994655e-04 3.9870313320610569e-03 0.0000000000000000e+00  3.4037547202586649e-04 4.0004172272456555e-03 0.0000000000000000e+00  3.4056092603534547e-04 4.0138950071700024e-03 0.0000000000000000e+00  3.4073843848996633e-04 4.0274532478512242e-03 0.0000000000000000e+00  3.4091015231512236e-04 4.0410836088534529e-03 0.0000000000000000e+00  3.4107831726200543e-04 4.0547799185443123e-03 0.0000000000000000e+00  3.4124499889642596e-04 4.0685369879435423e-03 0.0000000000000000e+00  3.4141195670687818e-04 4.0823498984191835e-03 0.0000000000000000e+00  3.4158074375330771e-04 4.0962127708644158e-03 0.0000000000000000e+00  3.4175243178503120e-04 4.1101186880756254e-03 0.0000000000000000e+00  3.4192734415865357e-04 4.1240590094228993e-03 0.0000000000000000e+00  3.4210459924507254e-04 4.1380241528999511e-03 0.0000000000000000e+00  3.4228107276524061e-04 4.1520072966281596e-03 0.0000000000000000e+00  3.4245040864995605e-04 4.1660156203450812e-03 0.0000000000000000e+00  3.4261501659878279e-04 4.1801414094323960e-03 0.0000000000000000e+00  3.4282641458913745e-04 4.1944481135232532e-03 0.0000000000000000e+00  3.4368502121573797e-04 4.2091735180217462e-03 0.0000000000000000e+00  3.4453669966088803e-04 4.2239679064600168e-03 0.0000000000000000e+00  3.4540681234491571e-04 4.2389677749250796e-03 0.0000000000000000e+00  3.4626550403784695e-04 4.2542011191075571e-03 0.0000000000000000e+00  3.4709456022873232e-04 4.2696135253294729e-03 0.0000000000000000e+00  3.4788395725730235e-04 4.2851947906979186e-03 0.0000000000000000e+00  3.4862607288827115e-04 4.3009395890529992e-03 0.0000000000000000e+00  3.4931550603932275e-04 4.3168427570527759e-03 0.0000000000000000e+00  3.4994828961723329e-04 4.3328990318655903e-03 0.0000000000000000e+00  3.5052002134081301e-04 4.3491046399630352e-03 0.0000000000000000e+00  3.1937312800351541e-04 3.8230190282233286e-03 0.0000000000000000e+00  3.2013462946485906e-04 3.8374123521348626e-03 0.0000000000000000e+00  3.2095339072533378e-04 3.8514854541298457e-03 0.0000000000000000e+00  3.2176571654213211e-04 3.8654107411822663e-03 0.0000000000000000e+00  3.2256993578004865e-04 3.8792263922621658e-03 0.0000000000000000e+00  3.2336016050016656e-04 3.8929305654527863e-03 0.0000000000000000e+00  3.2412272959809525e-04 3.9065346299804469e-03 0.0000000000000000e+00  3.2483345519695452e-04 3.9200760586409417e-03 0.0000000000000000e+00  3.2549520415906560e-04 3.9335269276934677e-03 0.0000000000000000e+00  3.2607643234706815e-04 3.9469853701546761e-03 0.0000000000000000e+00  3.2663317905289518e-04 3.9604930282512978e-03 0.0000000000000000e+00  3.2676040741002748e-04 3.9737016753435446e-03 0.0000000000000000e+00  3.2683851596179914e-04 3.9869443398478600e-03 0.0000000000000000e+00  3.2694610990464132e-04 4.0003283388575350e-03 0.0000000000000000e+00  3.2706100600199390e-04 4.0138129386990649e-03 0.0000000000000000e+00  3.2717760276696959e-04 4.0273770757145262e-03 0.0000000000000000e+00  3.2729543379746661e-04 4.0410100737671229e-03 0.0000000000000000e+00  3.2741566075821828e-04 4.0547057532377608e-03 0.0000000000000000e+00  3.2754004873579678e-04 4.0684597091312025e-03 0.0000000000000000e+00  3.2767033512392163e-04 4.0822685778071745e-03 0.0000000000000000e+00  3.2780830588914237e-04 4.0961281106483187e-03 0.0000000000000000e+00  3.2795511103151379e-04 4.1100342649815569e-03 0.0000000000000000e+00  3.2811108399317544e-04 4.1239819490567755e-03 0.0000000000000000e+00  3.2827570125098311e-04 4.1379663076202113e-03 0.0000000000000000e+00  3.2844718160745276e-04 4.1519874955324850e-03 0.0000000000000000e+00  3.2862337542606247e-04 4.1660600171150603e-03 0.0000000000000000e+00  3.2880964925286767e-04 4.1802365183615606e-03 0.0000000000000000e+00  3.2903844342099152e-04 4.1945716017704349e-03 0.0000000000000000e+00  3.2929675683550575e-04 4.2090627286140844e-03 0.0000000000000000e+00  3.2987242699283274e-04 4.2237077050962992e-03 0.0000000000000000e+00  3.3055481775059195e-04 4.2386278912351274e-03 0.0000000000000000e+00  3.3129951781342426e-04 4.2538753914415795e-03 0.0000000000000000e+00  3.3203188029008561e-04 4.2692999480056087e-03 0.0000000000000000e+00  3.3272828590989891e-04 4.2848971158984516e-03 0.0000000000000000e+00  3.3337728015256991e-04 4.3006603182661474e-03 0.0000000000000000e+00  3.3397402843587986e-04 4.3165827660948701e-03 0.0000000000000000e+00  3.3451663629475385e-04 4.3326585530200296e-03 0.0000000000000000e+00  3.3500145239703354e-04 4.3488869739466262e-03 0.0000000000000000e+00  3.3542371062112738e-04 4.3652625276217301e-03 0.0000000000000000e+00  3.0647812892788237e-04 3.8364012809038355e-03 0.0000000000000000e+00  3.0559345366083264e-04 3.8220574077968499e-03 0.0000000000000000e+00  3.0736810351297269e-04 3.8505337266228914e-03 0.0000000000000000e+00  3.0822791869079163e-04 3.8645253995652144e-03 0.0000000000000000e+00  3.0905505649830877e-04 3.8784044618140586e-03 0.0000000000000000e+00  3.0984632590277738e-04 3.8921814215922357e-03 0.0000000000000000e+00  3.1059234009526808e-04 3.9058702452482749e-03 0.0000000000000000e+00  3.1128329699014968e-04 3.9194935732013401e-03 0.0000000000000000e+00  3.1191308047871802e-04 3.9330511270902532e-03 0.0000000000000000e+00  3.1247204035422728e-04 3.9465931778409962e-03 0.0000000000000000e+00  3.1296934621517704e-04 3.9601284900331879e-03 0.0000000000000000e+00  3.1341946480468780e-04 3.9736414109166687e-03 0.0000000000000000e+00  3.1345083651934880e-04 3.9868732627948529e-03 0.0000000000000000e+00  3.1348970699513753e-04 4.0002544966015307e-03 0.0000000000000000e+00  3.1354418209433789e-04 4.0137458458047075e-03 0.0000000000000000e+00  3.1360585095158351e-04 4.0273148861222673e-03 0.0000000000000000e+00  3.1367292320753855e-04 4.0409491457338177e-03 0.0000000000000000e+00  3.1374574003990320e-04 4.0546427015326677e-03 0.0000000000000000e+00  3.1382570265330257e-04 4.0683919187257918e-03 0.0000000000000000e+00  3.1391418330669826e-04 4.0821953899665194e-03 0.0000000000000000e+00  3.1401308585973813e-04 4.0960501631557922e-03 0.0000000000000000e+00  3.1412331012943117e-04 4.1099556083359122e-03 0.0000000000000000e+00  3.1424476505379645e-04 4.1239096783532801e-03 0.0000000000000000e+00  3.1437676762291467e-04 4.1379104448431023e-03 0.0000000000000000e+00  3.1451754348638269e-04 4.1519615443434436e-03 0.0000000000000000e+00  3.1466489283199186e-04 4.1660773495895706e-03 0.0000000000000000e+00  3.1481931688152447e-04 4.1802903573071367e-03 0.0000000000000000e+00  3.1498831007629297e-04 4.1946304613255103e-03 0.0000000000000000e+00  3.1517587309583446e-04 4.2090959723025774e-03 0.0000000000000000e+00  3.1537166150557341e-04 4.2236252642446192e-03 0.0000000000000000e+00  3.1552010409404395e-04 4.2382153405467818e-03 0.0000000000000000e+00  3.1633650519540294e-04 4.2535359749271322e-03 0.0000000000000000e+00  3.1704371836389461e-04 4.2689808365640623e-03 0.0000000000000000e+00  3.1767788225348553e-04 4.2846005181987317e-03 0.0000000000000000e+00  3.1824790642803145e-04 4.3003865225211104e-03 0.0000000000000000e+00  3.1875960280534433e-04 4.3163298047170159e-03 0.0000000000000000e+00  3.1921809056263169e-04 4.3324236743318353e-03 0.0000000000000000e+00  3.1962125567548536e-04 4.3486749753483571e-03 0.0000000000000000e+00  3.1996399351855804e-04 4.3650793102434993e-03 0.0000000000000000e+00  3.2024224377436971e-04 4.3816243154653966e-03 0.0000000000000000e+00  2.9279813442211459e-04 3.8354018493669522e-03 0.0000000000000000e+00  2.9374511864608578e-04 3.8495911330704204e-03 0.0000000000000000e+00  2.9464956418590071e-04 3.8636526137558434e-03 0.0000000000000000e+00  2.9550623179919525e-04 3.8776049362788290e-03 0.0000000000000000e+00  2.9631155790650398e-04 3.8914612093046233e-03 0.0000000000000000e+00  2.9705984953004843e-04 3.9052354535798607e-03 0.0000000000000000e+00  2.9774570055797868e-04 3.9189431592219206e-03 0.0000000000000000e+00  2.9836648588437342e-04 3.9325918616788186e-03 0.0000000000000000e+00  2.9892387048531093e-04 3.9462066144406432e-03 0.0000000000000000e+00  2.9943351158436920e-04 3.9597892182086378e-03 0.0000000000000000e+00  2.9989050019664471e-04 3.9732898072819631e-03 0.0000000000000000e+00  2.9994262442150120e-04 3.9867475980848157e-03 0.0000000000000000e+00  2.9997143774183991e-04 4.0001779919218517e-03 0.0000000000000000e+00  2.9999065744980432e-04 4.0136865529438077e-03 0.0000000000000000e+00  3.0001053066389127e-04 4.0272636738992017e-03 0.0000000000000000e+00  3.0003351720205967e-04 4.0409001760290872e-03 0.0000000000000000e+00  3.0006117457312176e-04 4.0545919162229670e-03 0.0000000000000000e+