<?xml version="1.0"?>
<VTKFile type="UnstructuredGrid"  version="0.1"  >
<UnstructuredGrid>
<Piece  NumberOfPoints="2394" NumberOfCells="4550">
<Points>
<DataArray  type="Float64"  NumberOfComponents="3"  format="ascii">1.858695652173913 0.1666666666666667 0  1.86695652173913 0.1666666666666667 0  1.86695652173913 0.175 0  1.858695652173913 0.175 0  1.875217391304348 0.1666666666666667 0  1.875217391304348 0.175 0  1.883478260869565 0.175 0  1.86695652173913 0.1833333333333333 0  1.858695652173913 0.1833333333333333 0  1.875217391304348 0.1833333333333333 0  1.883478260869565 0.1833333333333333 0  1.891739130434782 0.175 0  1.891739130434782 0.1833333333333333 0  1.9 0.175 0  1.9 0.1833333333333333 0  1.908260869565217 0.1833333333333333 0  1.850434782608696 0.1833333333333333 0  1.858695652173913 0.1916666666666667 0  1.850434782608696 0.1916666666666667 0  1.86695652173913 0.1916666666666667 0  1.875217391304348 0.1916666666666667 0  1.883478260869565 0.1916666666666667 0  1.891739130434782 0.1916666666666667 0  1.9 0.1916666666666667 0  1.908260869565217 0.1916666666666667 0  1.916521739130435 0.1833333333333333 0  1.916521739130435 0.1916666666666667 0  1.924782608695652 0.1833333333333333 0  1.924782608695652 0.1916666666666667 0  1.933043478260869 0.1916666666666667 0  1.858695652173913 0.2 0  1.850434782608696 0.2 0  1.86695652173913 0.2 0  1.875217391304348 0.2 0  1.883478260869565 0.2 0  1.891739130434782 0.2 0  1.9 0.2 0  1.908260869565217 0.2 0  1.916521739130435 0.2 0  1.924782608695652 0.2 0  1.933043478260869 0.2 0  1.941304347826087 0.1916666666666667 0  1.941304347826087 0.2 0  1.949565217391304 0.1916666666666667 0  1.949565217391304 0.2 0  1.957826086956522 0.1916666666666667 0  1.957826086956522 0.2 0  1.966086956521739 0.2 0  1.858695652173913 0.2083333333333333 0  1.86695652173913 0.2083333333333333 0  1.875217391304348 0.2083333333333333 0  1.883478260869565 0.2083333333333333 0  1.891739130434782 0.2083333333333333 0  1.9 0.2083333333333333 0  1.908260869565217 0.2083333333333333 0  1.916521739130435 0.2083333333333333 0  1.924782608695652 0.2083333333333333 0  1.933043478260869 0.2083333333333333 0  1.941304347826087 0.2083333333333333 0  1.949565217391304 0.2083333333333333 0  1.957826086956522 0.2083333333333333 0  1.966086956521739 0.2083333333333333 0  1.974347826086956 0.2 0  1.974347826086956 0.2083333333333333 0  1.982608695652174 0.2083333333333333 0  1.86695652173913 0.2166666666666667 0  1.858695652173913 0.2166666666666667 0  1.875217391304348 0.2166666666666667 0  1.883478260869565 0.2166666666666667 0  1.891739130434782 0.2166666666666667 0  1.9 0.2166666666666667 0  1.908260869565217 0.2166666666666667 0  1.916521739130435 0.2166666666666667 0  1.924782608695652 0.2166666666666667 0  1.933043478260869 0.2166666666666667 0  1.941304347826087 0.2166666666666667 0  1.949565217391304 0.2166666666666667 0  1.957826086956522 0.2166666666666667 0  1.966086956521739 0.2166666666666667 0  1.974347826086956 0.2166666666666667 0  1.982608695652174 0.2166666666666667 0  1.990869565217391 0.2083333333333333 0  1.990869565217391 0.2166666666666667 0  1.999130434782608 0.2166666666666667 0  1.86695652173913 0.225 0  1.875217391304348 0.225 0  1.883478260869565 0.225 0  1.891739130434782 0.225 0  1.9 0.225 0  1.908260869565217 0.225 0  1.916521739130435 0.225 0  1.924782608695652 0.225 0  1.933043478260869 0.225 0  1.941304347826087 0.225 0  1.949565217391304 0.225 0  1.957826086956522 0.225 0  1.966086956521739 0.225 0  1.974347826086956 0.225 0  1.982608695652174 0.225 0  1.990869565217391 0.225 0  1.999130434782608 0.225 0  2.007391304347826 0.2166666666666667 0  2.007391304347826 0.225 0  2.015652173913043 0.225 0  1.875217391304348 0.2333333333333333 0  1.883478260869565 0.2333333333333333 0  1.891739130434782 0.2333333333333333 0  1.9 0.2333333333333333 0  1.908260869565217 0.2333333333333333 0  1.916521739130435 0.2333333333333333 0  1.924782608695652 0.2333333333333333 0  1.933043478260869 0.2333333333333333 0  1.941304347826087 0.2333333333333333 0  1.949565217391304 0.2333333333333333 0  1.957826086956522 0.2333333333333333 0  1.966086956521739 0.2333333333333333 0  1.974347826086956 0.2333333333333333 0  1.982608695652174 0.2333333333333333 0  1.990869565217391 0.2333333333333333 0  1.999130434782608 0.2333333333333333 0  2.007391304347826 0.2333333333333333 0  2.015652173913043 0.2333333333333333 0  2.023913043478261 0.225 0  2.023913043478261 0.2333333333333333 0  2.032173913043478 0.2333333333333333 0  1.883478260869565 0.2416666666666667 0  1.875217391304348 0.2416666666666667 0  1.891739130434782 0.2416666666666667 0  1.9 0.2416666666666667 0  1.908260869565217 0.2416666666666667 0  1.916521739130435 0.2416666666666667 0  1.924782608695652 0.2416666666666667 0  1.933043478260869 0.2416666666666667 0  1.941304347826087 0.2416666666666667 0  1.949565217391304 0.2416666666666667 0  1.957826086956522 0.2416666666666667 0  1.966086956521739 0.2416666666666667 0  1.974347826086956 0.2416666666666667 0  1.982608695652174 0.2416666666666667 0  1.990869565217391 0.2416666666666667 0  1.999130434782608 0.2416666666666667 0  2.007391304347826 0.2416666666666667 0  2.015652173913043 0.2416666666666667 0  2.023913043478261 0.2416666666666667 0  2.032173913043478 0.2416666666666667 0  2.040434782608695 0.2333333333333333 0  2.040434782608695 0.2416666666666667 0  2.048695652173913 0.2416666666666667 0  1.883478260869565 0.25 0  1.891739130434782 0.25 0  1.9 0.25 0  1.908260869565217 0.25 0  1.916521739130435 0.25 0  1.924782608695652 0.25 0  1.933043478260869 0.25 0  1.941304347826087 0.25 0  1.949565217391304 0.25 0  1.957826086956522 0.25 0  1.966086956521739 0.25 0  1.974347826086956 0.25 0  1.982608695652174 0.25 0  1.990869565217391 0.25 0  1.999130434782608 0.25 0  2.007391304347826 0.25 0  2.015652173913043 0.25 0  2.023913043478261 0.25 0  2.032173913043478 0.25 0  2.040434782608695 0.25 0  2.048695652173913 0.25 0  2.05695652173913 0.25 0  1.891739130434782 0.2583333333333334 0  1.883478260869565 0.2583333333333334 0  1.9 0.2583333333333334 0  1.908260869565217 0.2583333333333334 0  1.916521739130435 0.2583333333333334 0  1.924782608695652 0.2583333333333334 0  1.933043478260869 0.2583333333333334 0  1.941304347826087 0.2583333333333334 0  1.949565217391304 0.2583333333333334 0  1.957826086956522 0.2583333333333334 0  1.966086956521739 0.2583333333333334 0  1.974347826086956 0.2583333333333334 0  1.982608695652174 0.2583333333333334 0  1.990869565217391 0.2583333333333334 0  1.999130434782608 0.2583333333333334 0  2.007391304347826 0.2583333333333334 0  2.015652173913043 0.2583333333333334 0  2.023913043478261 0.2583333333333334 0  2.032173913043478 0.2583333333333334 0  2.040434782608695 0.2583333333333334 0  2.048695652173913 0.2583333333333334 0  2.05695652173913 0.2583333333333334 0  2.065217391304348 0.25 0  2.065217391304348 0.2583333333333334 0  2.073478260869565 0.2583333333333334 0  1.891739130434782 0.2666666666666667 0  1.9 0.2666666666666667 0  1.908260869565217 0.2666666666666667 0  1.916521739130435 0.2666666666666667 0  1.924782608695652 0.2666666666666667 0  1.933043478260869 0.2666666666666667 0  1.941304347826087 0.2666666666666667 0  1.949565217391304 0.2666666666666667 0  1.957826086956522 0.2666666666666667 0  1.966086956521739 0.2666666666666667 0  1.974347826086956 0.2666666666666667 0  1.982608695652174 0.2666666666666667 0  1.990869565217391 0.2666666666666667 0  1.999130434782608 0.2666666666666667 0  2.007391304347826 0.2666666666666667 0  2.015652173913043 0.2666666666666667 0  2.023913043478261 0.2666666666666667 0  2.032173913043478 0.2666666666666667 0  2.040434782608695 0.2666666666666667 0  2.048695652173913 0.2666666666666667 0  2.05695652173913 0.2666666666666667 0  2.065217391304348 0.2666666666666667 0  2.073478260869565 0.2666666666666667 0  2.081739130434782 0.2583333333333334 0  2.081739130434782 0.2666666666666667 0  2.09 0.2666666666666667 0  1.9 0.275 0  1.908260869565217 0.275 0  1.916521739130435 0.275 0  1.924782608695652 0.275 0  1.933043478260869 0.275 0  1.941304347826087 0.275 0  1.949565217391304 0.275 0  1.957826086956522 0.275 0  1.966086956521739 0.275 0  1.974347826086956 0.275 0  1.982608695652174 0.275 0  1.990869565217391 0.275 0  1.999130434782608 0.275 0  2.007391304347826 0.275 0  2.015652173913043 0.275 0  2.023913043478261 0.275 0  2.032173913043478 0.275 0  2.040434782608695 0.275 0  2.048695652173913 0.275 0  2.05695652173913 0.275 0  2.065217391304348 0.275 0  2.073478260869565 0.275 0  2.081739130434782 0.275 0  2.09 0.275 0  2.098260869565217 0.2666666666666667 0  2.098260869565217 0.275 0  2.106521739130435 0.2666666666666667 0  2.106521739130435 0.275 0  2.114782608695652 0.275 0  1.908260869565217 0.2833333333333333 0  1.916521739130435 0.2833333333333333 0  1.924782608695652 0.2833333333333333 0  1.933043478260869 0.2833333333333333 0  1.941304347826087 0.2833333333333333 0  1.949565217391304 0.2833333333333333 0  1.957826086956522 0.2833333333333333 0  1.966086956521739 0.2833333333333333 0  1.974347826086956 0.2833333333333333 0  1.982608695652174 0.2833333333333333 0  1.990869565217391 0.2833333333333333 0  1.999130434782608 0.2833333333333333 0  2.007391304347826 0.2833333333333333 0  2.015652173913043 0.2833333333333333 0  2.023913043478261 0.2833333333333333 0  2.032173913043478 0.2833333333333333 0  2.040434782608695 0.2833333333333333 0  2.048695652173913 0.2833333333333333 0  2.05695652173913 0.2833333333333333 0  2.065217391304348 0.2833333333333333 0  2.073478260869565 0.2833333333333333 0  2.081739130434782 0.2833333333333333 0  2.09 0.2833333333333333 0  2.098260869565217 0.2833333333333333 0  2.106521739130435 0.2833333333333333 0  2.114782608695652 0.2833333333333333 0  2.12304347826087 0.275 0  2.12304347826087 0.2833333333333333 0  2.131304347826087 0.2833333333333333 0  1.916521739130435 0.2916666666666667 0  1.908260869565217 0.2916666666666667 0  1.924782608695652 0.2916666666666667 0  
[...]
<CellData  Scalars="sigma_m"> 
<DataArray  type="Float64"  Name="sigma_m"  format="ascii">2.9060566878102110e+06   2.8449103812207463e+06   9.8850168680700695e+05   2.4135825498520173e+06   1.3911430485988408e+05   2.9231776549468562e+06   2.9089825310567156e+06   2.8053695816284167e+06   2.8246779096454624e+06   2.4539593690225631e+06   2.8344145674600452e+06   5.8928384139568962e+01   2.1665291721942727e+06   1.4149371197046910e-09   1.5417270973098394e+00   0.0000000000000000e+00   2.8057114259966575e+06   2.8609590268570692e+06   2.9158954055691045e+06   2.9204963329552310e+06   2.8919438089896622e+06   2.8929866510189082e+06   2.9290123776796875e+06   2.9557093478702195e+06   3.0401482335816105e+06   3.2926984331000084e+06   3.2276949650053120e+04   2.8651532617016551e+06   5.9420659720967346e-06   8.1477486103580031e+02   0.0000000000000000e+00   7.5606273819755766e-08   0.0000000000000000e+00   0.0000000000000000e+00   0.0000000000000000e+00   2.8374585308769471e+06   4.3046633245714993e+05   3.0907105142105813e+06   2.9922422040346973e+06   2.9225481460681572e+06   2.9155395999914096e+06   2.8770938975496008e+06   2.8852900729387566e+06   2.9535509217915339e+06   2.9361468016877822e+06   2.8601780127360420e+06   2.7892697736236220e+06   4.8093154956483823e+05   2.2444404233967722e+06   1.0029540079324363e-02   2.6170321516049920e+04   0.0000000000000000e+00   1.5525997061268732e-04   0.0000000000000000e+00   0.0000000000000000e+00   0.0000000000000000e+00   0.0000000000000000e+00   0.0000000000000000e+00   0.0000000000000000e+00   0.0000000000000000e+00   0.0000000000000000e+00   0.0000000000000000e+00   2.9410256209660133e+01   2.3833683163411217e+06   1.1764762117900377e+03   2.9559981968404129e+06   2.6335597275400441e+06   2.8692029070551945e+06   2.8556682208855515e+06   2.9561955648387801e+06   2.9677708002985995e+06   2.9512766761340736e+06   2.9313667298335936e+06   2.7507210946388696e+06   2.7638162139372281e+06   2.1472841086724643e+06   2.6600543909053612e+06   8.9660768054512268e+00   1.5567221814632104e+06   0.0000000000000000e+00   1.9218930510405297e-01   0.0000000000000000e+00   0.0000000000000000e+00   0.0000000000000000e+00   0.0000000000000000e+00   0.0000000000000000e+00   0.0000000000000000e+00   0.0000000000000000e+00   0.0000000000000000e+00   0.0000000000000000e+00   0.0000000000000000e+00   0.0000000000000000e+00   3.1562507116703796e-02   0.0000000000000000e+00   6.4203940071015246e+05   1.5266732928068967e+00   2.5370937676212625e+06   1.5718021425265961e+06   2.9170938243116303e+06   2.9567047103536935e+06   3.0054951669721985e+06   3.0069687366925753e+06   2.9229361544293817e+06   2.9184819775166837e+06   2.8792219112256407e+06   2.9005258553392384e+06   2.8164327451340351e+06   3.1218556956352270e+06   4.2466916182888854e+03   2.4703788251358303e+06   3.2558181003946129e-07   1.1601577417157792e+02   0.0000000000000000e+00   1.4841569132203941e-09   0.0000000000000000e+00   0.0000000000000000e+00   0.0000000000000000e+00   0.0000000000000000e+00   0.0000000000000000e+00   0.0000000000000000e+00   0.0000000000000000e+00   0.0000000000000000e+00   0.0000000000000000e+00   0.0000000000000000e+00   0.0000000000000000e+00   0.0000000000000000e+00   1.4304186041636519e-05   0.0000000000000000e+00   4.3486094734492064e+04   7.9262628624625060e-04   2.9417218798858500e+06   8.8307764443755918e+05   3.2310527387063387e+06   3.1595718348688940e+06   3.0404381200882196e+06   3.0311453422932276e+06   2.9465585973571399e+06   2.9518041940886560e+06   2.9699220788607690e+06   2.9650634820784624e+06   2.8520831981472624e+06   2.8488096616308354e+06   9.0131099467589718e+05   2.4299067797981519e+06   7.1205802063666447e-04   2.8976938032601665e+04   0.0000000000000000e+00   1.0901613066276096e-05   0.0000000000000000e+00   0.0000000000000000e+00   0.0000000000000000e+00   0.0000000000000000e+00   0.0000000000000000e+00   0.0000000000000000e+00   0.0000000000000000e+00   0.0000000000000000e+00   0.0000000000000000e+00   0.0000000000000000e+00   0.0000000000000000e+00   0.0000000000000000e+00   0.0000000000000000e+00   0.0000000000000000e+00   0.0000000000000000e+00   0.0000000000000000e+00   5.0936469658330786e+01   1.1034226453454426e-07   2.6524706400545752e+06   1.3796954080577532e+03   3.2058933328926619e+06   2.8315430428010495e+06   3.0251747139136847e+06   3.0046073711712467e+06   3.0415742778073605e+06   3.0610142686628569e+06   2.9660565489180638e+06   2.9515989059628639e+06   2.7751159618092836e+06   2.7448105174238193e+06   1.5302965267670066e+06   2.3974030294140531e+06   8.4546904961542890e-01   5.5937743484160060e+05   0.0000000000000000e+00   1.6688359971122002e-02   0.0000000000000000e+00   0.0000000000000000e+00   0.0000000000000000e+00   0.0000000000000000e+00   0.0000000000000000e+00   0.0000000000000000e+00   0.0000000000000000e+00   0.0000000000000000e+00   0.0000000000000000e+00   0.0000000000000000e+00   0.0000000000000000e+00   0.0000000000000000e+00   0.0000000000000000e+00   0.0000000000000000e+00   0.0000000000000000e+00   0.0000000000000000e+00   0.0000000000000000e+00   0.0000000000000000e+00   0.0000000000000000e+00   2.3206591286657422e-02   0.0000000000000000e+00   4.5011168205803185e+05   8.9706379011175219e-01   2.7179365692827040e+06   1.4403320722857269e+06   3.0891057201020275e+06   3.1501464570020372e+06   3.1011358039174122e+06   3.1015510479127173e+06   2.9778159136271495e+06   2.9499599197461316e+06   2.8171013468103595e+06   2.8240857262258097e+06   2.5523475336421286e+06   2.8716668946628841e+06   6.1871616250866782e+02   2.3182446234894958e+06   2.1783791116241231e-08   1.6502587230842000e+01   0.0000000000000000e+00   0.0000000000000000e+00   0.0000000000000000e+00   0.0000000000000000e+00   0.0000000000000000e+00   0.0000000000000000e+00   0.0000000000000000e+00   0.0000000000000000e+00   0.0000000000000000e+00   0.0000000000000000e+00   0.0000000000000000e+00   0.0000000000000000e+00   0.0000000000000000e+00   0.0000000000000000e+00   0.0000000000000000e+00   0.0000000000000000e+00   0.0000000000000000e+00   0.0000000000000000e+00   0.0000000000000000e+00   0.0000000000000000e+00   0.0000000000000000e+00   0.0000000000000000e+00   6.1094473413034055e-06   0.0000000000000000e+00   2.2211820440910851e+04   3.6153425936450654e-04   3.2593122988347257e+06   5.5373195491749677e+05   3.4571982773912405e+06   3.3581362254493944e+06   3.1778441278504096e+06   3.1514270785286794e+06   2.9863853540754076e+06   2.9694424132352970e+06   2.9377386344581638e+06   2.9473688209387064e+06   3.0048455603905623e+06   3.1187065874797306e+06   2.4975184681485841e+05   2.8993566221727920e+06   7.2783500870089176e-05   7.2623196622482783e+03   0.0000000000000000e+00   9.1430168027884603e-07   0.0000000000000000e+00   0.0000000000000000e+00   0.0000000000000000e+00   0.0000000000000000e+00   0.0000000000000000e+00   0.0000000000000000e+00   0.0000000000000000e+00   0.0000000000000000e+00   0.0000000000000000e+00   0.0000000000000000e+00   0.0000000000000000e+00   0.0000000000000000e+00   0.0000000000000000e+00   0.0000000000000000e+00   0.0000000000000000e+00   0.0000000000000000e+00   0.0000000000000000e+00   0.0000000000000000e+00   0.0000000000000000e+00   0.0000000000000000e+00   0.0000000000000000e+00   0.0000000000000000e+00   0.0000000000000000e+00   4.7993647331698675e+01   8.7209552654921508e-08   2.8491395694248341e+06   1.9912666474857838e+03   3.3986918209978207e+06   3.0505443511113632e+06   3.0511325968832821e+06   3.0147165835409085e+06   2.9221629740686826e+06   2.9092242556891134e+06   2.9267403202945446e+06   2.9156069872350865e+06   2.8973915003198860e+06   2.8458921599124693e+06   1.2255661834766413e+06   2.4726737381894221e+06   1.2056949371186108e-01   2.7235590108151484e+05   0.0000000000000000e+00   1.9643698560073311e-03   0.0000000000000000e+00   0.0000000000000000e+00   0.0000000000000000e+00   0.0000000000000000e+00   0.0000000000000000e+00   0.0000000000000000e+00   0.0000000000000000e+00   0.0000000000000000e+00   0.0000000000000000e+00   0.0000000000000000e+00   0.0000000000000000e+00   0.0000000000000000e+00   0.0000000000000000e+00   0.0000000000000000e+00   0.0000000000000000e+00   0.0000000000000000e+00   0.0000000000000000e+00   0.0000000000000000e+00   0.0000000000000000e+00   0.0000000000000000e+00   0.0000000000000000e+00   0.0000000000000000e+00   0.0000000000000000e+00   0.0000000000000000e+00   0.0000000000000000e+00   0.0000000000000000e+00   8.8485111291103674e-02   0.0000000000000000e+00   1.4922667509999296e+06   6.3268205769625334e+00   2.9492092139415923e+06   2.3737995540524181e+06   2.8419839893846768e+06   2.8118250794787421e+06   2.8829478372388426e+06   2.8825755449468354e+06   2.9013568552382346e+06   2.8867577364983554e+06   2.8035926218443899e+06   2.8348630738485549e+06   2.5646351713545662e+06   2.9149512617229014e+06   1.5611811122171088e+02   2.3877869298743326e+06   1.6424710476628241e-09   3.8571780382973349e+00   0.0000000000000000e+00   0.0000000000000000e+00   0.0000000000000000e+00   0.0000000000000000e+00   0.0000000000000000e+00   0.0000000000000000e+00   0.0000000000000000e+00   0.0000000000000000e+00   0.0000000000000000e+00   0.0000000000000000e+00   0.0000000000000000e+00   0.0000000000000000e+00   0.0000000000000000e+00   0.0000000000000000e+00   0.0000000000000000e+00   0.0000000000000000e+00   0.0000000000000000e+00   0.0000000000000000e+00   0.0000000000000000e+00   0.0000000000000000e+00   0.0000000000000000e+00   0.0000000000000000e+00   0.0000000000000000e+00   0.0000000000000000e+00   0.0000000000000000e+00   0.0000000000000000e+00   0.0000000000000000e+00   0.0000000000000000e+00   1.8916741029708698e-04   0.0000000000000000e+00   4.9329668385596771e+04   2.3570162395172803e-02   2.4385420400487636e+06   8.3676767821072869e+05   2.7522377614535810e+06   2.7650625987460059e+06   2.8186811986171622e+06   2.8093344900316615e+06   2.8140287032996956e+06   2.8231366628971123e+06   2.8595679888154264e+06   2.8751507090326273e+06   3.0190459392031981e+06   3.1540979256160860e+06   1.4892622500462714e+05   2.9224289693819997e+06   1.9306708740732184e-05   4.5295518189409304e+03   0.0000000000000000e+00   2.7371059563996036e-07   0.0000000000000000e+00   0.0000000000000000e+00   0.0000000000000000e+00   0.0000000000000000e+00   0.0000000000000000e+00   0.0000000000000000e+00   0.0000000000000000e+00   0.0000000000000000e+00   0.0000000000000000e+00   0.0000000000000000e+00   0.0000000000000000e+00   0.0000000000000000e+00   0.0000000000000000e+00   0.0000000000000000e+00   0.0000000000000000e+00   0.0000000000000000e+00   0.0000000000000000e+00   0.0000000000000000e+00   0.0000000000000000e+00   0.0000000000000000e+00   0.0000000000000000e+00   0.0000000000000000e+00   0.0000000000000000e+00   0.0000000000000000e+00   0.0000000000000000e+00   0.0000000000000000e+00   0.0000000000000000e+00   0.0000000000000000e+00   0.0000000000000000e+00   0.0000000000000000e+00   5.2841390349913992e-07   0.0000000000000000e+00   1.4937679020466994e+04   9.2626084082130355e-05   2.5258169558847859e+06   8.6392741869365179e+05   2.7175697420231500e+06   2.7091110324852495e+06   2.7522832231212463e+06   2.7687969001977532e+06   2.7294046836199290e+06   2.7224340930984253e+06   2.8214722671990506e+06   2.7858045598934148e+06   2.8472862290547132e+06   2.7797711090508201e+06   1.3615106000223968e+06   2.4995073240353656e+06   1.2234894948537595e-01   5.2345155846964108e+05   0.0000000000000000e+00   2.5658246330120065e-03   0.0000000000000000e+00   0.0000000000000000e+00   0.0000000000000000e+00   0.0000000000000000e+00   0.0000000000000000e+00   0.0000000000000000e+00   0.0000000000000000e+00   0.0000000000000000e+00   0.0000000000000000e+00   0.0000000000000000e+00   0.0000000000000000e+00   0.0000000000000000e+00   0.0000000000000000e+00   0.0000000000000000e+00   0.0000000000000000e+00   0.0000000000000000e+00   0.0000000000000000e+00   0.0000000000000000e+00   0.0000000000000000e+00   0.0000000000000000e+00   0.0000000000000000e+00   0.0000000000000000e+00   0.0000000000000000e+00   0.0000000000000000e+00   0.0000000000000000e+00   0.0000000000000000e+00   0.0000000000000000e+00   0.0000000000000000e+00   0.0000000000000000e+00   0.0000000000000000e+00   0.0000000000000000e+00   0.0000000000000000e+00   0.0000000000000000e+00   0.0000000000000000e+00   0.0000000000000000e+00   2.0941723344866969e+02   2.1222473017053138e-07   2.4252024186202325e+06   1.5679273866158499e+04   2.9335585906330855e+06   2.6969319808656345e+06   2.6993770109102037e+06   2.6844610186158670e+06   2.7082742223591944e+06   2.6879446341077108e+06   2.7673998183116927e+06   2.7404863211339051e+06   2.7366887838084651e+06   2.7789992920737984e+06   2.7159821513613565e+06   3.0647180935038715e+06   7.8174173181981962e+02   2.5696769916938203e+06   1.8092925789960103e-08   2.6662760029017448e+01   0.0000000000000000e+00   0.0000000000000000e+00   0.0000000000000000e+00   0.0000000000000000e+00   0.0000000000000000e+00   0.0000000000000000e+00   0.0000000000000000e+00   0.0000000000000000e+00   0.0000000000000000e+00   0.0000000000000000e+00   0.0000000000000000e+00   0.0000000000000000e+00   0.0000000000000000e+00   0.0000000000000000e+00   0.0000000000000000e+00   0.0000000000000000e+00   0.0000000000000000e+00   0.0000000000000000e+00   0.0000000000000000e+00   0.0000000000000000e+00   0.0000000000000000e+00   0.0000000000000000e+00   0.0000000000000000e+00   0.0000000000000000e+00   0.0000000000000000e+00   0.0000000000000000e+00   0.0000000000000000e+00   0.0000000000000000e+00   0.0000000000000000e+00   0.0000000000000000e+00   0.0000000000000000e+00   0.0000000000000000e+00   0.0000000000000000e+00   0.0000000000000000e+00   0.0000000000000000e+00   0.0000000000000000e+00   0.0000000000000000e+00   0.0000000000000000e+00   0.0000000000000000e+00   0.0000000000000000e+00   1.6349972423569676e+00   0.0000000000000000e+00   1.7939984170504224e+06   1.5352407263596805e+02   2.4759194510616916e+06   2.2332689865020360e+06   2.5073382780070547e+06   2.4881656248877938e+06   2.5614879165239939e+06   2.5449224809734942e+06   2.5842890286490684e+06   2.6027161259994758e+06   2.6543180819858462e+06   2.6383595808561458e+06   2.6708827490219353e+06   2.5941474706232031e+06   4.7154182092472585e+05   2.2478904886589260e+06   3.2407619465868007e-03   4.4516593331109791e+04   0.0000000000000000e+00   1.4373257281503365e-04   0.0000000000000000e+00   0.0000000000000000e+00   0.0000000000000000e+00   0.0000000000000000e+00   0.0000000000000000e+00   0.0000000000000000e+00   0.0000000000000000e+00   0.0000000000000000e+00   0.0000000000000000e+00   0.0000000000000000e+00   0.0000000000000000e+00   0.0000000000000000e+00   0.0000000000000000e+00   0.0000000000000000e+00   0.0000000000000000e+00   0.0000000000000000e+00   0.0000000000000000e+00   0.0000000000000000e+00   0.0000000000000000e+00   0.0000000000000000e+00   0.0000000000000000e+00   0.0000000000000000e+00   0.0000000000000000e+00   0.0000000000000000e+00   0.0000000000000000e+00   0.0000000000000000e+00   0.0000000000000000e+00   0.0000000000000000e+00   0.0000000000000000e+00   0.0000000000000000e+00   0.0000000000000000e+00   0.0000000000000000e+00   0.0000000000000000e+00   0.0000000000000000e+00   0.0000000000000000e+00   0.0000000000000000e+00   0.0000000000000000e+00   0.0000000000000000e+00   0.0000000000000000e+00   0.0000000000000000e+00   0.0000000000000000e+00   0.0000000000000000e+00   7.1922215256674171e-03   0.0000000000000000e+00   8.4886964325785579e+05   8.9962928257104990e-01   2.2575442547274577e+06   1.7952591778956209e+06   2.3226133692598129e+06   2.3062312804717622e+06   2.4392577826358415e+06   2.4663431598163182e+06   2.5057281974907387e+06   2.5097345527861430e+06   2.5442266080758264e+06   2.5120762472027545e+06   2.4565523066408304e+06   2.4384085760402838e+06   2.1373717910458958e+06   2.4657641858193600e+06   7.2118236139461533e+02   1.9391553403819061e+06   4.9638222313480285e-08   7.1468216589012471e+01   0.0000000000000000e+00   5.1355150804314864e-09   0.0000000000000000e+00   0.0000000000000000e+00   0.0000000000000000e+00   0.0000000000000000e+00   0.0000000000000000e+00   0.0000000000000000e+00   0.0000000000000000e+00   0.0000000000000000e+00   0.0000000000000000e+00   0.0000000000000000e+00   0.0000000000000000e+00   0.0000000000000000e+00   0.0000000000000000e+00   0.0000000000000000e+00   0.0000000000000000e+00   0.0000000000000000e+00   0.0000000000000000e+00   0.0000000000000000e+00   0.0000000000000000e+00   0.0000000000000000e+00   0.0000000000000000e+00   0.0000000000000000e+00   0.0000000000000000e+00   0.0000000000000000e+00   0.0000000000000000e+00   0.0000000000000000e+00   0.0000000000000000e+00   0.0000000000000000e+00   0.0000000000000000e+00   0.0000000000000000e+00   0.0000000000000000e+00   0.0000000000000000e+00   0.0000000000000000e+00   0.0000000000000000e+00   0.0000000000000000e+00   0.0000000000000000e+00   8.3940880025974862e-06   3.8625953176976202e-05   1.4516061572970990e+06   1.0415122497113022e+06   2.0157360799114376e+06   2.2293473173129582e+06   8.3047287722461682e+05   9.0666708211668441e+05   9.3054775294354232e+05   4.2941641542908875e+05   2.0536283305171023e+06   1.5772448959049552e+06   3.2198722048386824e+06   2.5195344045912065e+06   4.0032031133496016e+06   4.0409055473834286e+06   3.6165131332769844e+05   5.5146690846108261e+05   2.4735287745821169e-09   3.8277331254091675e-08   0.0000000000000000e+00   0.0000000000000000e+00   0.0000000000000000e+00   0.0000000000000000e+00   0.0000000000000000e+00   0.0000000000000000e+00   0.0000000000000000e+00   0.0000000000000000e+00   0.0000000000000000e+00   0.0000000000000000e+00   0.0000000000000000e+00   0.0000000000000000e+00   0.0000000000000000e+00   0.0000000000000000e+00   0.0000000000000000e+00   0.0000000000000000e+00   0.0000000000000000e+00   0.0000000000000000e+00   0.0000000000000000e+00   0.0000000000000000e+00   0.0000000000000000e+00   0.0000000000000000e+00   0.0000000000000000e+00   0.0000000000000000e+00   0.0000000000000000e+00   0.0000000000000000e+00   0.0000000000000000e+00   0.0000000000000000e+00   0.0000000000000000e+00   0.0000000000000000e+00   0.0000000000000000e+00   0.0000000000000000e+00   0.0000000000000000e+00   0.0000000000000000e+00   0.0000000000000000e+00   0.0000000000000000e+00   0.0000000000000000e+00   0.0000000000000000e+00   0.0000000000000000e+00   0.0000000000000000e+00   0.0000000000000000e+00   0.0000000000000000e+00   0.0000000000000000e+00   0.0000000000000000e+00   0.0000000000000000e+00   0.0000000000000000e+00   0.0000000000000000e+00   0.0000000000000000e+00   0.0000000000000000e+00   0.0000000000000000e+00   0.0000000000000000e+00   0.0000000000000000e+00   0.0000000000000000e+00   0.0000000000000000e+00   0.0000000000000000e+00   0.0000000000000000e+00   0.0000000000000000e+00   0.0000000000000000e+00   0.0000000000000000e+00   0.0000000000000000e+00   0.0000000000000000e+00   0.0000000000000000e+00   0.0000000000000000e+00   0.0000000000000000e+00   0.0000000000000000e+00   0.0000000000000000e+00   0.0000000000000000e+00   0.0000000000000000e+00   0.0000000000000000e+00   0.0000000000000000e+00   0.0000000000000000e+00   0.0000000000000000e+00   0.0000000000000000e+00   0.0000000000000000e+00   0.0000000000000000e+00   0.0000000000000000e+00   0.0000000000000000e+00   0.0000000000000000e+00   0.0000000000000000e+00   1.9466839419107669e-05   0.0000000000000000e+00   2.2674346503634370e+04   3.1743783552637397e-03   1.8197033109856097e+06   5.1379896508270659e+05   2.2641794900155212e+06   2.3174783314317353e+06   2.3967516866036677e+06   2.4058085488970256e+06   2.4312631174054579e+06   2.4182697888859720e+06   2.3697361115446119e+06   2.3517151522351159e+06   2.2968266152249253e+06   2.2508707269305945e+06   2.1099943195840600e+06   2.0198936487558046e+06   9.7483437567600480e+05   1.6042150428374067e+06   1.24974128