<?xml version="1.0"?>
<VTKFile type="UnstructuredGrid"  version="0.1"  >
<UnstructuredGrid>
<Piece  NumberOfPoints="2487" NumberOfCells="4720">
<Points>
<DataArray  type="Float64"  NumberOfComponents="3"  format="ascii">0 0.2 0  0.008260869565217391 0.2 0  0.008260869565217391 0.2083333333333333 0  0 0.2083333333333333 0  0.01652173913043478 0.2083333333333333 0  0.008260869565217391 0.2166666666666667 0  0 0.2166666666666667 0  0.01652173913043478 0.2166666666666667 0  0.02478260869565217 0.2166666666666667 0  0.008260869565217391 0.225 0  0 0.225 0  0.01652173913043478 0.225 0  0.02478260869565217 0.225 0  0.03304347826086956 0.225 0  0.008260869565217391 0.2333333333333333 0  0 0.2333333333333333 0  0.01652173913043478 0.2333333333333333 0  0.02478260869565217 0.2333333333333333 0  0.03304347826086956 0.2333333333333333 0  0.04130434782608695 0.2333333333333333 0  0.008260869565217391 0.2416666666666667 0  0 0.2416666666666667 0  0.01652173913043478 0.2416666666666667 0  0.02478260869565217 0.2416666666666667 0  0.03304347826086956 0.2416666666666667 0  0.04130434782608695 0.2416666666666667 0  0.04956521739130434 0.2416666666666667 0  0.008260869565217391 0.25 0  0 0.25 0  0.01652173913043478 0.25 0  0.02478260869565217 0.25 0  0.03304347826086956 0.25 0  0.04130434782608695 0.25 0  0.04956521739130434 0.25 0  0.05782608695652174 0.25 0  0.008260869565217391 0.2583333333333334 0  0 0.2583333333333334 0  0.01652173913043478 0.2583333333333334 0  0.02478260869565217 0.2583333333333334 0  0.03304347826086956 0.2583333333333334 0  0.04130434782608695 0.2583333333333334 0  0.04956521739130434 0.2583333333333334 0  0.05782608695652174 0.2583333333333334 0  0.06608695652173913 0.25 0  0.06608695652173913 0.2583333333333334 0  0.07434782608695652 0.2583333333333334 0  0.008260869565217391 0.2666666666666667 0  0 0.2666666666666667 0  0.01652173913043478 0.2666666666666667 0  0.02478260869565217 0.2666666666666667 0  0.03304347826086956 0.2666666666666667 0  0.04130434782608695 0.2666666666666667 0  0.04956521739130434 0.2666666666666667 0  0.05782608695652174 0.2666666666666667 0  0.06608695652173913 0.2666666666666667 0  0.07434782608695652 0.2666666666666667 0  0.08260869565217391 0.2583333333333334 0  0.08260869565217391 0.2666666666666667 0  0.0908695652173913 0.2666666666666667 0  0.008260869565217391 0.275 0  0 0.275 0  0.01652173913043478 0.275 0  0.02478260869565217 0.275 0  0.03304347826086956 0.275 0  0.04130434782608695 0.275 0  0.04956521739130434 0.275 0  0.05782608695652174 0.275 0  0.06608695652173913 0.275 0  0.07434782608695652 0.275 0  0.08260869565217391 0.275 0  0.0908695652173913 0.275 0  0.09913043478260869 0.2666666666666667 0  0.09913043478260869 0.275 0  0.1073913043478261 0.2666666666666667 0  0.1073913043478261 0.275 0  0.1156521739130435 0.2666666666666667 0  0.1156521739130435 0.275 0  0.1239130434782609 0.2666666666666667 0  0.1239130434782609 0.275 0  0.1321739130434783 0.275 0  0.008260869565217391 0.2833333333333333 0  0 0.2833333333333333 0  0.01652173913043478 0.2833333333333333 0  0.02478260869565217 0.2833333333333333 0  0.03304347826086956 0.2833333333333333 0  0.04130434782608695 0.2833333333333333 0  0.04956521739130434 0.2833333333333333 0  0.05782608695652174 0.2833333333333333 0  0.06608695652173913 0.2833333333333333 0  0.07434782608695652 0.2833333333333333 0  0.08260869565217391 0.2833333333333333 0  0.0908695652173913 0.2833333333333333 0  0.09913043478260869 0.2833333333333333 0  0.1073913043478261 0.2833333333333333 0  0.1156521739130435 0.2833333333333333 0  0.1239130434782609 0.2833333333333333 0  0.1321739130434783 0.2833333333333333 0  0.1404347826086956 0.275 0  0.1404347826086956 0.2833333333333333 0  0.148695652173913 0.2833333333333333 0  0.008260869565217391 0.2916666666666667 0  0 0.2916666666666667 0  0.01652173913043478 0.2916666666666667 0  0.02478260869565217 0.2916666666666667 0  0.03304347826086956 0.2916666666666667 0  0.04130434782608695 0.2916666666666667 0  0.04956521739130434 0.2916666666666667 0  0.05782608695652174 0.2916666666666667 0  0.06608695652173913 0.2916666666666667 0  0.07434782608695652 0.2916666666666667 0  0.08260869565217391 0.2916666666666667 0  0.0908695652173913 0.2916666666666667 0  0.09913043478260869 0.2916666666666667 0  0.1073913043478261 0.2916666666666667 0  0.1156521739130435 0.2916666666666667 0  0.1239130434782609 0.2916666666666667 0  0.1321739130434783 0.2916666666666667 0  0.1404347826086956 0.2916666666666667 0  0.148695652173913 0.2916666666666667 0  0.1569565217391304 0.2833333333333333 0  0.1569565217391304 0.2916666666666667 0  0.1652173913043478 0.2916666666666667 0  0.008260869565217391 0.3 0  0 0.3 0  0.01652173913043478 0.3 0  0.02478260869565217 0.3 0  0.03304347826086956 0.3 0  0.04130434782608695 0.3 0  0.04956521739130434 0.3 0  0.05782608695652174 0.3 0  0.06608695652173913 0.3 0  0.07434782608695652 0.3 0  0.08260869565217391 0.3 0  0.0908695652173913 0.3 0  0.09913043478260869 0.3 0  0.1073913043478261 0.3 0  0.1156521739130435 0.3 0  0.1239130434782609 0.3 0  0.1321739130434783 0.3 0  0.1404347826086956 0.3 0  0.148695652173913 0.3 0  0.1569565217391304 0.3 0  0.1652173913043478 0.3 0  0.1734782608695652 0.2916666666666667 0  0.1734782608695652 0.3 0  0.1817391304347826 0.3 0  0.008260869565217391 0.3083333333333333 0  0 0.3083333333333333 0  0.01652173913043478 0.3083333333333333 0  0.02478260869565217 0.3083333333333333 0  0.03304347826086956 0.3083333333333333 0  0.04130434782608695 0.3083333333333333 0  0.04956521739130434 0.3083333333333333 0  0.05782608695652174 0.3083333333333333 0  0.06608695652173913 0.3083333333333333 0  0.07434782608695652 0.3083333333333333 0  0.08260869565217391 0.3083333333333333 0  0.0908695652173913 0.3083333333333333 0  0.09913043478260869 0.3083333333333333 0  0.1073913043478261 0.3083333333333333 0  0.1156521739130435 0.3083333333333333 0  0.1239130434782609 0.3083333333333333 0  0.1321739130434783 0.3083333333333333 0  0.1404347826086956 0.3083333333333333 0  0.148695652173913 0.3083333333333333 0  0.1569565217391304 0.3083333333333333 0  0.1652173913043478 0.3083333333333333 0  0.1734782608695652 0.3083333333333333 0  0.1817391304347826 0.3083333333333333 0  0.19 0.3 0  0.19 0.3083333333333333 0  0.1982608695652174 0.3083333333333333 0  0.008260869565217391 0.3166666666666667 0  0 0.3166666666666667 0  0.01652173913043478 0.3166666666666667 0  0.02478260869565217 0.3166666666666667 0  0.03304347826086956 0.3166666666666667 0  0.04130434782608695 0.3166666666666667 0  0.04956521739130434 0.3166666666666667 0  0.05782608695652174 0.3166666666666667 0  0.06608695652173913 0.3166666666666667 0  0.07434782608695652 0.3166666666666667 0  0.08260869565217391 0.3166666666666667 0  0.0908695652173913 0.3166666666666667 0  0.09913043478260869 0.3166666666666667 0  0.1073913043478261 0.3166666666666667 0  0.1156521739130435 0.3166666666666667 0  0.1239130434782609 0.3166666666666667 0  0.1321739130434783 0.3166666666666667 0  0.1404347826086956 0.3166666666666667 0  0.148695652173913 0.3166666666666667 0  0.1569565217391304 0.3166666666666667 0  0.1652173913043478 0.3166666666666667 0  0.1734782608695652 0.3166666666666667 0  0.1817391304347826 0.3166666666666667 0  0.19 0.3166666666666667 0  0.1982608695652174 0.3166666666666667 0  0.2065217391304348 0.3083333333333333 0  0.2065217391304348 0.3166666666666667 0  0.2147826086956522 0.3083333333333333 0  0.2147826086956522 0.3166666666666667 0  0.2230434782608696 0.3083333333333333 0  0.2230434782608696 0.3166666666666667 0  0.2313043478260869 0.3083333333333333 0  0.2313043478260869 0.3166666666666667 0  0.2395652173913043 0.3083333333333333 0  0.2395652173913043 0.3166666666666667 0  0.2478260869565218 0.3083333333333333 0  0.2478260869565218 0.3166666666666667 0  0.2560869565217391 0.3083333333333333 0  0.2560869565217391 0.3166666666666667 0  0.2643478260869565 0.3083333333333333 0  0.2643478260869565 0.3166666666666667 0  0.2726086956521739 0.3083333333333333 0  0.2726086956521739 0.3166666666666667 0  0.2808695652173913 0.3083333333333333 0  0.2808695652173913 0.3166666666666667 0  0.2891304347826087 0.3083333333333333 0  0.2891304347826087 0.3166666666666667 0  0.2973913043478261 0.3083333333333333 0  0.2973913043478261 0.3166666666666667 0  0.3056521739130434 0.3083333333333333 0  0.3056521739130434 0.3166666666666667 0  0.3139130434782609 0.3083333333333333 0  0.3139130434782609 0.3166666666666667 0  0.3221739130434783 0.3083333333333333 0  0.3221739130434783 0.3166666666666667 0  0.3304347826086956 0.3083333333333333 0  0.3304347826086956 0.3166666666666667 0  0.338695652173913 0.3083333333333333 0  0.338695652173913 0.3166666666666667 0  0.3469565217391304 0.3083333333333333 0  0.3469565217391304 0.3166666666666667 0  0.3552173913043478 0.3083333333333333 0  0.3552173913043478 0.3166666666666667 0  0.3634782608695652 0.3083333333333333 0  0.3634782608695652 0.3166666666666667 0  0.3717391304347826 0.3083333333333333 0  0.3717391304347826 0.3166666666666667 0  0.3799999999999999 0.3083333333333333 0  0.3799999999999999 0.3166666666666667 0  0.3882608695652174 0.3083333333333333 0  0.3882608695652174 0.3166666666666667 0  0.3965217391304348 0.3083333333333333 0  0.3965217391304348 0.3166666666666667 0  0.4047826086956521 0.3083333333333333 0  0.4047826086956521 0.3166666666666667 0  0.4130434782608696 0.3083333333333333 0  0.4130434782608696 0.3166666666666667 0  0.4213043478260869 0.3083333333333333 0  0.4213043478260869 0.3166666666666667 0  0.4295652173913043 0.3083333333333333 0  0.4295652173913043 0.3166666666666667 0  0.4378260869565217 0.3083333333333333 0  0.4378260869565217 0.3166666666666667 0  0.4460869565217391 0.3083333333333333 0  0.4460869565217391 0.3166666666666667 0  0.4543478260869565 0.3083333333333333 0  0.4543478260869565 0.3166666666666667 0  0.4626086956521739 0.3083333333333333 0  0.4626086956521739 0.3166666666666667 0  0.4708695652173913 0.3083333333333333 0  0.4708695652173913 0.31666
[...]
<CellData  Scalars="sigma_m"> 
<DataArray  type="Float64"  Name="sigma_m"  format="ascii">0.0000000000000000e+00   0.0000000000000000e+00   0.0000000000000000e+00   0.0000000000000000e+00   0.0000000000000000e+00   0.0000000000000000e+00   0.0000000000000000e+00   0.0000000000000000e+00   0.0000000000000000e+00   0.0000000000000000e+00   0.0000000000000000e+00   0.0000000000000000e+00   0.0000000000000000e+00   0.0000000000000000e+00   0.0000000000000000e+00   0.0000000000000000e+00   0.0000000000000000e+00   0.0000000000000000e+00   0.0000000000000000e+00   0.0000000000000000e+00   0.0000000000000000e+00   0.0000000000000000e+00   0.0000000000000000e+00   0.0000000000000000e+00   0.0000000000000000e+00   0.0000000000000000e+00   0.0000000000000000e+00   0.0000000000000000e+00   0.0000000000000000e+00   0.0000000000000000e+00   0.0000000000000000e+00   0.0000000000000000e+00   0.0000000000000000e+00   0.0000000000000000e+00   0.0000000000000000e+00   0.0000000000000000e+00   0.0000000000000000e+00   0.0000000000000000e+00   0.0000000000000000e+00   0.0000000000000000e+00   0.0000000000000000e+00   0.0000000000000000e+00   0.0000000000000000e+00   0.0000000000000000e+00   0.0000000000000000e+00   0.0000000000000000e+00   0.0000000000000000e+00   0.0000000000000000e+00   0.0000000000000000e+00   0.0000000000000000e+00   0.0000000000000000e+00   0.0000000000000000e+00   0.0000000000000000e+00   0.0000000000000000e+00   0.0000000000000000e+00   0.0000000000000000e+00   0.0000000000000000e+00   0.0000000000000000e+00   0.0000000000000000e+00   0.0000000000000000e+00   0.0000000000000000e+00   0.0000000000000000e+00   0.0000000000000000e+00   0.0000000000000000e+00   0.0000000000000000e+00   0.0000000000000000e+00   0.0000000000000000e+00   0.0000000000000000e+00   0.0000000000000000e+00   0.0000000000000000e+00   0.0000000000000000e+00   0.0000000000000000e+00   0.0000000000000000e+00   0.0000000000000000e+00   0.0000000000000000e+00   0.0000000000000000e+00   0.0000000000000000e+00   0.0000000000000000e+00   0.0000000000000000e+00   0.0000000000000000e+00   0.0000000000000000e+00   0.0000000000000000e+00   0.0000000000000000e+00   0.0000000000000000e+00   0.0000000000000000e+00   0.0000000000000000e+00   0.0000000000000000e+00   0.0000000000000000e+00   0.0000000000000000e+00   0.0000000000000000e+00   0.0000000000000000e+00   0.0000000000000000e+00   0.0000000000000000e+00   0.0000000000000000e+00   0.0000000000000000e+00   0.0000000000000000e+00   0.0000000000000000e+00   0.0000000000000000e+00   0.0000000000000000e+00   0.0000000000000000e+00   0.0000000000000000e+00   0.0000000000000000e+00   0.0000000000000000e+00   0.0000000000000000e+00   0.0000000000000000e+00   0.0000000000000000e+00   0.0000000000000000e+00   0.0000000000000000e+00   0.0000000000000000e+00   0.0000000000000000e+00   0.0000000000000000e+00   0.0000000000000000e+00   0.0000000000000000e+00   0.0000000000000000e+00   0.0000000000000000e+00   0.0000000000000000e+00   0.0000000000000000e+00   0.0000000000000000e+00   0.0000000000000000e+00   0.0000000000000000e+00   0.0000000000000000e+00   0.0000000000000000e+00   0.0000000000000000e+00   0.0000000000000000e+00   0.0000000000000000e+00   0.0000000000000000e+00   0.0000000000000000e+00   0.0000000000000000e+00   0.0000000000000000e+00   0.0000000000000000e+00   0.0000000000000000e+00   0.0000000000000000e+00   0.0000000000000000e+00   0.0000000000000000e+00   0.0000000000000000e+00   0.0000000000000000e+00   0.0000000000000000e+00   0.0000000000000000e+00   0.0000000000000000e+00   0.0000000000000000e+00   0.0000000000000000e+00   0.0000000000000000e+00   0.0000000000000000e+00   0.0000000000000000e+00   0.0000000000000000e+00   0.0000000000000000e+00   0.0000000000000000e+00   0.0000000000000000e+00   0.0000000000000000e+00   0.0000000000000000e+00   0.0000000000000000e+00   0.0000000000000000e+00   0.0000000000000000e+00   0.0000000000000000e+00   0.0000000000000000e+00   0.0000000000000000e+00   0.0000000000000000e+00   0.0000000000000000e+00   0.0000000000000000e+00   0.0000000000000000e+00   0.0000000000000000e+00   0.0000000000000000e+00   0.0000000000000000e+00   0.0000000000000000e+00   0.0000000000000000e+00   0.0000000000000000e+00   0.0000000000000000e+00   0.0000000000000000e+00   0.0000000000000000e+00   0.0000000000000000e+00   0.0000000000000000e+00   0.0000000000000000e+00   0.0000000000000000e+00   0.0000000000000000e+00   0.0000000000000000e+00   0.0000000000000000e+00   0.0000000000000000e+00   0.0000000000000000e+00   0.0000000000000000e+00   0.0000000000000000e+00   0.0000000000000000e+00   0.0000000000000000e+00   0.0000000000000000e+00   0.0000000000000000e+00   0.0000000000000000e+00   0.0000000000000000e+00   0.0000000000000000e+00   0.0000000000000000e+00   0.0000000000000000e+00   0.0000000000000000e+00   0.0000000000000000e+00   0.0000000000000000e+00   0.0000000000000000e+00   0.0000000000000000e+00   0.0000000000000000e+00   0.0000000000000000e+00   0.0000000000000000e+00   0.0000000000000000e+00   0.0000000000000000e+00   0.0000000000000000e+00   0.0000000000000000e+00   0.0000000000000000e+00   0.0000000000000000e+00   0.0000000000000000e+00   0.0000000000000000e+00   0.0000000000000000e+00   0.0000000000000000e+00   0.0000000000000000e+00   0.0000000000000000e+00   0.0000000000000000e+00   0.0000000000000000e+00   0.0000000000000000e+00   0.0000000000000000e+00   0.0000000000000000e+00   0.0000000000000000e+00   0.0000000000000000e+00   0.0000000000000000e+00   0.0000000000000000e+00   0.0000000000000000e+00   0.0000000000000000e+00   0.0000000000000000e+00   0.0000000000000000e+00   0.0000000000000000e+00   0.0000000000000000e+00   0.0000000000000000e+00   0.0000000000000000e+00   0.0000000000000000e+00   0.0000000000000000e+00   0.0000000000000000e+00   0.0000000000000000e+00   0.0000000000000000e+00   0.0000000000000000e+00   0.0000000000000000e+00   0.0000000000000000e+00   0.0000000000000000e+00   0.0000000000000000e+00   0.0000000000000000e+00   0.0000000000000000e+00   0.0000000000000000e+00   0.0000000000000000e+00   0.0000000000000000e+00   0.0000000000000000e+00   0.0000000000000000e+00   0.0000000000000000e+00   0.0000000000000000e+00   0.0000000000000000e+00   0.0000000000000000e+00   0.0000000000000000e+00   0.0000000000000000e+00   0.0000000000000000e+00   0.0000000000000000e+00   0.0000000000000000e+00   0.0000000000000000e+00   0.0000000000000000e+00   0.0000000000000000e+00   0.0000000000000000e+00   0.0000000000000000e+00   0.0000000000000000e+00   0.0000000000000000e+00   0.0000000000000000e+00   0.0000000000000000e+00   0.0000000000000000e+00   0.0000000000000000e+00   0.0000000000000000e+00   0.0000000000000000e+00   0.0000000000000000e+00   0.0000000000000000e+00   0.0000000000000000e+00   0.0000000000000000e+00   0.0000000000000000e+00   0.0000000000000000e+00   0.0000000000000000e+00   0.0000000000000000e+00   0.0000000000000000e+00   0.0000000000000000e+00   0.0000000000000000e+00   0.0000000000000000e+00   0.0000000000000000e+00   0.0000000000000000e+00   0.0000000000000000e+00   0.0000000000000000e+00   0.0000000000000000e+00   0.0000000000000000e+00   0.0000000000000000e+00   0.0000000000000000e+00   0.0000000000000000e+00   0.0000000000000000e+00   0.0000000000000000e+00   0.0000000000000000e+00   0.0000000000000000e+00   0.0000000000000000e+00   0.0000000000000000e+00   0.0000000000000000e+00   0.0000000000000000e+00   0.0000000000000000e+00   0.0000000000000000e+00   0.0000000000000000e+00   0.0000000000000000e+00   0.0000000000000000e+00   0.0000000000000000e+00   0.0000000000000000e+00   0.0000000000000000e+00   0.0000000000000000e+00   0.0000000000000000e+00   0.0000000000000000e+00   0.0000000000000000e+00   0.0000000000000000e+00   0.0000000000000000e+00   0.0000000000000000e+00   0.0000000000000000e+00   0.0000000000000000e+00   0.0000000000000000e+00   0.0000000000000000e+00   0.0000000000000000e+00   0.0000000000000000e+00   0.0000000000000000e+00   0.0000000000000000e+00   0.0000000000000000e+00   0.0000000000000000e+00   0.0000000000000000e+00   0.0000000000000000e+00   0.0000000000000000e+00   0.0000000000000000e+00   0.0000000000000000e+00   0.0000000000000000e+00   0.0000000000000000e+00   0.0000000000000000e+00   0.0000000000000000e+00   0.0000000000000000e+00   0.0000000000000000e+00   0.0000000000000000e+00   0.0000000000000000e+00   0.0000000000000000e+00   0.0000000000000000e+00   0.0000000000000000e+00   0.0000000000000000e+00   0.0000000000000000e+00   0.0000000000000000e+00   0.0000000000000000e+00   0.0000000000000000e+00   0.0000000000000000e+00   0.0000000000000000e+00   0.0000000000000000e+00   0.0000000000000000e+00   0.0000000000000000e+00   0.0000000000000000e+00   0.0000000000000000e+00   0.0000000000000000e+00   0.0000000000000000e+00   0.0000000000000000e+00   0.0000000000000000e+00   0.0000000000000000e+00   0.0000000000000000e+00   0.0000000000000000e+00   0.0000000000000000e+00   0.0000000000000000e+00   0.0000000000000000e+00   0.0000000000000000e+00   0.0000000000000000e+00   0.0000000000000000e+00   0.0000000000000000e+00   0.0000000000000000e+00   0.0000000000000000e+00   0.0000000000000000e+00   0.0000000000000000e+00   0.0000000000000000e+00   0.0000000000000000e+00   0.0000000000000000e+00   0.0000000000000000e+00   0.0000000000000000e+00   0.0000000000000000e+00   0.0000000000000000e+00   0.0000000000000000e+00   0.0000000000000000e+00   0.0000000000000000e+00   0.0000000000000000e+00   0.0000000000000000e+00   0.0000000000000000e+00   0.0000000000000000e+00   0.0000000000000000e+00   0.0000000000000000e+00   0.0000000000000000e+00   0.0000000000000000e+00   0.0000000000000000e+00   0.0000000000000000e+00   0.0000000000000000e+00   0.0000000000000000e+00   0.0000000000000000e+00   0.0000000000000000e+00   0.0000000000000000e+00   0.0000000000000000e+00   0.0000000000000000e+00   0.0000000000000000e+00   0.0000000000000000e+00   0.0000000000000000e+00   0.0000000000000000e+00   0.0000000000000000e+00   0.0000000000000000e+00   0.0000000000000000e+00   0.0000000000000000e+00   0.0000000000000000e+00   0.0000000000000000e+00   0.0000000000000000e+00   0.0000000000000000e+00   0.0000000000000000e+00   0.0000000000000000e+00   0.0000000000000000e+00   0.0000000000000000e+00   0.0000000000000000e+00   0.0000000000000000e+00   0.0000000000000000e+00   0.0000000000000000e+00   0.0000000000000000e+00   0.0000000000000000e+00   0.0000000000000000e+00   0.0000000000000000e+00   0.0000000000000000e+00   0.0000000000000000e+00   0.0000000000000000e+00   0.0000000000000000e+00   0.0000000000000000e+00   0.0000000000000000e+00   0.0000000000000000e+00   0.0000000000000000e+00   0.0000000000000000e+00   0.0000000000000000e+00   0.0000000000000000e+00   0.0000000000000000e+00   0.0000000000000000e+00   0.0000000000000000e+00   0.0000000000000000e+00   0.0000000000000000e+00   0.0000000000000000e+00   0.0000000000000000e+00   0.0000000000000000e+00   0.0000000000000000e+00   0.0000000000000000e+00   0.0000000000000000e+00   0.0000000000000000e+00   1.7114463335412833e-01   0.0000000000000000e+00   4.0594142170745255e+06   9.7014112638235286e+00   4.3047113323136279e+06   3.8324183919692189e+06   3.7516264705393491e+06   3.6840451009912197e+06   3.4186426962337741e+06   3.4151121548995860e+06   3.1007971743350369e+06   3.0896999961704765e+06   2.8159688259879574e+06   0.0000000000000000e+00   0.0000000000000000e+00   0.0000000000000000e+00   0.0000000000000000e+00   0.0000000000000000e+00   0.0000000000000000e+00   0.0000000000000000e+00   0.0000000000000000e+00   0.0000000000000000e+00   0.0000000000000000e+00   0.0000000000000000e+00   0.0000000000000000e+00   0.0000000000000000e+00   0.0000000000000000e+00   0.0000000000000000e+00   0.0000000000000000e+00   0.0000000000000000e+00   0.0000000000000000e+00   0.0000000000000000e+00   0.0000000000000000e+00   0.0000000000000000e+00   0.0000000000000000e+00   0.0000000000000000e+00   0.0000000000000000e+00   0.0000000000000000e+00   0.0000000000000000e+00   0.0000000000000000e+00   0.0000000000000000e+00   0.0000000000000000e+00   0.0000000000000000e+00   0.0000000000000000e+00   0.0000000000000000e+00   0.0000000000000000e+00   0.0000000000000000e+00   0.0000000000000000e+00   0.0000000000000000e+00   0.0000000000000000e+00   0.0000000000000000e+00   0.0000000000000000e+00   0.0000000000000000e+00   0.0000000000000000e+00   0.0000000000000000e+00   0.0000000000000000e+00   0.0000000000000000e+00   0.0000000000000000e+00   0.0000000000000000e+00   0.0000000000000000e+00   0.0000000000000000e+00   0.0000000000000000e+00   0.0000000000000000e+00   0.0000000000000000e+00   0.0000000000000000e+00   0.0000000000000000e+00   0.0000000000000000e+00   0.0000000000000000e+00   0.0000000000000000e+00   0.0000000000000000e+00   0.0000000000000000e+00   0.0000000000000000e+00   0.0000000000000000e+00   0.0000000000000000e+00   0.0000000000000000e+00   0.0000000000000000e+00   0.0000000000000000e+00   0.0000000000000000e+00   0.0000000000000000e+00   0.0000000000000000e+00   0.0000000000000000e+00   0.0000000000000000e+00   0.0000000000000000e+00   0.0000000000000000e+00   0.0000000000000000e+00   0.0000000000000000e+00   0.0000000000000000e+00   0.0000000000000000e+00   0.0000000000000000e+00   0.0000000000000000e+00   0.0000000000000000e+00   0.0000000000000000e+00   0.0000000000000000e+00   0.0000000000000000e+00   0.0000000000000000e+00   0.0000000000000000e+00   0.0000000000000000e+00   0.0000000000000000e+00   0.0000000000000000e+00   0.0000000000000000e+00   0.0000000000000000e+00   0.0000000000000000e+00   0.0000000000000000e+00   0.0000000000000000e+00   0.0000000000000000e+00   0.0000000000000000e+00   0.0000000000000000e+00   0.0000000000000000e+00   0.0000000000000000e+00   0.0000000000000000e+00   0.0000000000000000e+00   0.0000000000000000e+00   0.0000000000000000e+00   0.0000000000000000e+00   0.0000000000000000e+00   0.0000000000000000e+00   0.0000000000000000e+00   0.0000000000000000e+00   0.0000000000000000e+00   0.0000000000000000e+00   0.0000000000000000e+00   0.0000000000000000e+00   0.0000000000000000e+00   0.0000000000000000e+00   0.0000000000000000e+00   0.0000000000000000e+00   0.0000000000000000e+00   0.0000000000000000e+00   0.0000000000000000e+00   0.0000000000000000e+00   0.0000000000000000e+00   0.0000000000000000e+00   0.0000000000000000e+00   0.0000000000000000e+00   0.0000000000000000e+00   0.0000000000000000e+00   0.0000000000000000e+00   0.0000000000000000e+00   0.0000000000000000e+00   0.0000000000000000e+00   0.0000000000000000e+00   0.0000000000000000e+00   0.0000000000000000e+00   0.0000000000000000e+00   0.0000000000000000e+00   0.0000000000000000e+00   0.0000000000000000e+00   0.0000000000000000e+00   0.0000000000000000e+00   0.0000000000000000e+00   0.0000000000000000e+00   0.0000000000000000e+00   0.0000000000000000e+00   0.0000000000000000e+00   0.0000000000000000e+00   0.0000000000000000e+00   0.0000000000000000e+00   0.0000000000000000e+00   0.0000000000000000e+00   0.0000000000000000e+00   0.0000000000000000e+00   0.0000000000000000e+00   0.0000000000000000e+00   0.0000000000000000e+00   0.0000000000000000e+00   0.0000000000000000e+00   0.0000000000000000e+00   0.0000000000000000e+00   0.0000000000000000e+00   0.0000000000000000e+00   0.0000000000000000e+00   0.0000000000000000e+00   0.0000000000000000e+00   0.0000000000000000e+00   0.0000000000000000e+00   9.2213700349847961e+04   1.2352852334802479e-08   3.5617522569015566e+06   8.2174758538023056e+05   3.5921157631834168e+06   3.6728119925884986e+06   3.3603214429536364e+06   3.3773755203159954e+06   3.0675215249390523e+06   3.0259889761837861e+06   2.8315826211986681e+06   0.0000000000000000e+00   0.0000000000000000e+00   0.0000000000000000e+00   0.0000000000000000e+00   0.0000000000000000e+00   0.0000000000000000e+00   0.0000000000000000e+00   0.0000000000000000e+00   0.0000000000000000e+00   0.0000000000000000e+00   0.0000000000000000e+00   0.0000000000000000e+00   0.0000000000000000e+00   0.0000000000000000e+00   0.0000000000000000e+00   0.0000000000000000e+00   0.0000000000000000e+00   0.0000000000000000e+00   0.0000000000000000e+00   0.0000000000000000e+00   0.0000000000000000e+00   0.0000000000000000e+00   0.0000000000000000e+00   0.0000000000000000e+00   0.0000000000000000e+00   0.0000000000000000e+00   0.0000000000000000e+00   0.0000000000000000e+00   0.0000000000000000e+00   0.0000000000000000e+00   0.0000000000000000e+00   0.0000000000000000e+00   0.0000000000000000e+00   0.0000000000000000e+00   0.0000000000000000e+00   0.0000000000000000e+00   0.0000000000000000e+00   0.0000000000000000e+00   0.0000000000000000e+00   0.0000000000000000e+00   0.0000000000000000e+00   0.0000000000000000e+00   0.0000000000000000e+00   0.0000000000000000e+00   0.0000000000000000e+00   0.0000000000000000e+00   0.0000000000000000e+00   0.0000000000000000e+00   0.0000000000000000e+00   0.0000000000000000e+00   0.0000000000000000e+00   0.0000000000000000e+00   0.0000000000000000e+00   0.0000000000000000e+00   0.0000000000000000e+00   0.0000000000000000e+00   0.0000000000000000e+00   0.0000000000000000e+00   0.0000000000000000e+00   0.0000000000000000e+00   0.0000000000000000e+00   0.0000000000000000e+00   0.0000000000000000e+00   0.0000000000000000e+00   0.0000000000000000e+00   0.0000000000000000e+00   0.0000000000000000e+00   0.0000000000000000e+00   0.0000000000000000e+00   0.0000000000000000e+00   0.0000000000000000e+00   0.0000000000000000e+00   0.0000000000000000e+00   0.0000000000000000e+00   0.0000000000000000e+00   0.0000000000000000e+00   0.0000000000000000e+00   0.0000000000000000e+00   0.0000000000000000e+00   0.0000000000000000e+00   0.0000000000000000e+00   0.0000000000000000e+00   0.0000000000000000e+00   0.0000000000000000e+00   0.0000000000000000e+00   0.0000000000000000e+00   0.0000000000000000e+00   0.0000000000000000e+00   0.0000000000000000e+00   0.0000000000000000e+00   0.0000000000000000e+00   0.0000000000000000e+00   0.0000000000000000e+00   0.0000000000000000e+00   0.0000000000000000e+00   0.0000000000000000e+00   0.0000000000000000e+00   0.0000000000000000e+00   0.0000000000000000e+00   0.0000000000000000e+00   0.0000000000000000e+00   0.0000000000000000e+00   0.0000000000000000e+00   0.0000000000000000e+00   0.0000000000000000e+00   0.0000000000000000e+00   0.0000000000000000e+00   0.0000000000000000e+00   0.0000000000000000e+00   0.0000000000000000e+00   0.0000000000000000e+00   0.0000000000000000e+00   0.0000000000000000e+00   0.0000000000000000e+00   0.0000000000000000e+00   0.0000000000000000e+00   0.0000000000000000e+00   0.0000000000000000e+00   0.0000000000000000e+00   0.0000000000000000e+00   0.0000000000000000e+00   0.0000000000000000e+00   0.0000000000000000e+00   0.0000000000000000e+00   0.0000000000000000e+00   0.0000000000000000e+00   0.0000000000000000e+00   0.0000000000000000e+00   0.0000000000000000e+00   0.0000000000000000e+00   0.0000000000000000e+00   0.0000000000000000e+00   0.0000000000000000e+00   0.0000000000000000e+00   0.0000000000000000e+00   0.0000000000000000e+00   0.0000000000000000e+00   0.0000000000000000e+00   0.0000000000000000e+00   0.0000000000000000e+00   0.0000000000000000e+00   0.0000000000000000e+00   0.0000000000000000e+00   0.0000000000000000e+00   0.0000000000000000e+00   0.0000000000000000e+00   0.0000000000000000e+00   0.0000000000000000e+00   0.0000000000000000e+00   0.0000000000000000e+00   0.0000000000000000e+00   0.0000000000000000e+00   0.0000000000000000e+00   0.0000000000000000e+00   0.0000000000000000e+00   0.0000000000000000e+00   0.0000000000000000e+00   0.0000000000000000e+00   0.0000000000000000e+00   0.0000000000000000e+00   0.0000000000000000e+00   0.0000000000000000e+00   0.0000000000000000e+00   0.0000000000000000e+00   3.4284902771449855e-04   0.0000000000000000e+00   3.5012429402152584e+06   2.0509588079681052e-02   4.0427221954012238e+06   3.4683212104062722e+06   3.3489801685631191e+06   3.22266334