<?xml version="1.0"?>
<VTKFile type="UnstructuredGrid"  version="0.1"  >
<UnstructuredGrid>
<Piece  NumberOfPoints="2484" NumberOfCells="4774">
<Points>
<DataArray  type="Float64"  NumberOfComponents="3"  format="ascii">1.016086956521739 0 0  1.024347826086957 0 0  1.024347826086957 0.008333333333333333 0  1.016086956521739 0.008333333333333333 0  1.032608695652174 0 0  1.032608695652174 0.008333333333333333 0  1.040869565217391 0 0  1.040869565217391 0.008333333333333333 0  1.049130434782609 0 0  1.049130434782609 0.008333333333333333 0  1.057391304347826 0 0  1.057391304347826 0.008333333333333333 0  1.065652173913043 0 0  1.065652173913043 0.008333333333333333 0  1.073913043478261 0 0  1.073913043478261 0.008333333333333333 0  1.082173913043478 0 0  1.082173913043478 0.008333333333333333 0  1.090434782608696 0 0  1.090434782608696 0.008333333333333333 0  1.098695652173913 0 0  1.098695652173913 0.008333333333333333 0  1.10695652173913 0 0  1.10695652173913 0.008333333333333333 0  1.115217391304348 0 0  1.115217391304348 0.008333333333333333 0  1.123478260869565 0 0  1.123478260869565 0.008333333333333333 0  1.131739130434783 0 0  1.131739130434783 0.008333333333333333 0  1.14 0 0  1.14 0.008333333333333333 0  1.148260869565217 0 0  1.148260869565217 0.008333333333333333 0  1.156521739130435 0 0  1.156521739130435 0.008333333333333333 0  1.164782608695652 0 0  1.164782608695652 0.008333333333333333 0  1.17304347826087 0 0  1.17304347826087 0.008333333333333333 0  1.181304347826087 0 0  1.181304347826087 0.008333333333333333 0  1.189565217391304 0 0  1.189565217391304 0.008333333333333333 0  1.197826086956522 0 0  1.197826086956522 0.008333333333333333 0  1.206086956521739 0 0  1.206086956521739 0.008333333333333333 0  1.214347826086956 0 0  1.214347826086956 0.008333333333333333 0  1.222608695652174 0 0  1.222608695652174 0.008333333333333333 0  1.230869565217391 0 0  1.230869565217391 0.008333333333333333 0  1.239130434782609 0 0  1.239130434782609 0.008333333333333333 0  1.247391304347826 0 0  1.247391304347826 0.008333333333333333 0  1.255652173913044 0 0  1.255652173913044 0.008333333333333333 0  1.263913043478261 0 0  1.263913043478261 0.008333333333333333 0  1.272173913043478 0 0  1.272173913043478 0.008333333333333333 0  1.280434782608696 0 0  1.280434782608696 0.008333333333333333 0  1.288695652173913 0 0  1.288695652173913 0.008333333333333333 0  1.296956521739131 0 0  1.296956521739131 0.008333333333333333 0  1.305217391304348 0 0  1.305217391304348 0.008333333333333333 0  1.313478260869565 0 0  1.313478260869565 0.008333333333333333 0  1.321739130434783 0 0  1.321739130434783 0.008333333333333333 0  1.33 0 0  1.33 0.008333333333333333 0  1.338260869565217 0 0  1.338260869565217 0.008333333333333333 0  1.346521739130435 0 0  1.346521739130435 0.008333333333333333 0  1.354782608695652 0 0  1.354782608695652 0.008333333333333333 0  1.36304347826087 0 0  1.36304347826087 0.008333333333333333 0  1.371304347826087 0.008333333333333333 0  1.024347826086957 0.01666666666666667 0  1.032608695652174 0.01666666666666667 0  1.040869565217391 0.01666666666666667 0  1.049130434782609 0.01666666666666667 0  1.057391304347826 0.01666666666666667 0  1.065652173913043 0.01666666666666667 0  1.073913043478261 0.01666666666666667 0  1.082173913043478 0.01666666666666667 0  1.090434782608696 0.01666666666666667 0  1.098695652173913 0.01666666666666667 0  1.10695652173913 0.01666666666666667 0  1.115217391304348 0.01666666666666667 0  1.123478260869565 0.01666666666666667 0  1.131739130434783 0.01666666666666667 0  1.14 0.01666666666666667 0  1.148260869565217 0.01666666666666667 0  1.156521739130435 0.01666666666666667 0  1.164782608695652 0.01666666666666667 0  1.17304347826087 0.01666666666666667 0  1.181304347826087 0.01666666666666667 0  1.189565217391304 0.01666666666666667 0  1.197826086956522 0.01666666666666667 0  1.206086956521739 0.01666666666666667 0  1.214347826086956 0.01666666666666667 0  1.222608695652174 0.01666666666666667 0  1.230869565217391 0.01666666666666667 0  1.239130434782609 0.01666666666666667 0  1.247391304347826 0.01666666666666667 0  1.255652173913044 0.01666666666666667 0  1.263913043478261 0.01666666666666667 0  1.272173913043478 0.01666666666666667 0  1.280434782608696 0.01666666666666667 0  1.288695652173913 0.01666666666666667 0  1.296956521739131 0.01666666666666667 0  1.305217391304348 0.01666666666666667 0  1.313478260869565 0.01666666666666667 0  1.321739130434783 0.01666666666666667 0  1.33 0.01666666666666667 0  1.338260869565217 0.01666666666666667 0  1.346521739130435 0.01666666666666667 0  1.354782608695652 0.01666666666666667 0  1.36304347826087 0.01666666666666667 0  1.371304347826087 0.01666666666666667 0  1.379565217391304 0.01666666666666667 0  1.032608695652174 0.025 0  1.040869565217391 0.025 0  1.049130434782609 0.025 0  1.057391304347826 0.025 0  1.065652173913043 0.025 0  1.073913043478261 0.025 0  1.082173913043478 0.025 0  1.090434782608696 0.025 0  1.098695652173913 0.025 0  1.10695652173913 0.025 0  1.115217391304348 0.025 0  1.123478260869565 0.025 0  1.131739130434783 0.025 0  1.14 0.025 0  1.148260869565217 0.025 0  1.156521739130435 0.025 0  1.164782608695652 0.025 0  1.17304347826087 0.025 0  1.181304347826087 0.025 0  1.189565217391304 0.025 0  1.197826086956522 0.025 0  1.206086956521739 0.025 0  1.214347826086956 0.025 0  1.222608695652174 0.025 0  1.230869565217391 0.025 0  1.239130434782609 0.025 0  1.247391304347826 0.025 0  1.255652173913044 0.025 0  1.263913043478261 0.025 0  1.272173913043478 0.025 0  1.280434782608696 0.025 0  1.288695652173913 0.025 0  1.296956521739131 0.025 0  1.305217391304348 0.025 0  1.313478260869565 0.025 0  1.321739130434783 0.025 0  1.33 0.025 0  1.338260869565217 0.025 0  1.346521739130435 0.025 0  1.354782608695652 0.025 0  1.36304347826087 0.025 0  1.371304347826087 0.025 0  1.379565217391304 0.025 0  1.387826086956522 0.025 0  1.040869565217391 0.03333333333333333 0  1.049130434782609 0.03333333333333333 0  1.057391304347826 0.03333333333333333 0  1.065652173913043 0.03333333333333333 0  1.073913043478261 0.03333333333333333 0  1.082173913043478 0.03333333333333333 0  1.090434782608696 0.03333333333333333 0  1.098695652173913 0.03333333333333333 0  1.10695652173913 0.03333333333333333 0  1.115217391304348 0.03333333333333333 0  1.123478260869565 0.03333333333333333 0  1.131739130434783 0.03333333333333333 0  1.14 0.03333333333333333 0  1.148260869565217 0.03333333333333333 0  1.156521739130435 0.03333333333333333 0  1.164782608695652 0.03333333333333333 0  1.17304347826087 0.03333333333333333 0  1.181304347826087 0.03333333333333333 0  1.189565217391304 0.03333333333333333 0  1.197826086956522 0.03333333333333333 0  1.206086956521739 0.03333333333333333 0  1.214347826086956 0.03333333333333333 0  1.222608695652174 0.03333333333333333 0  1.230869565217391 0.03333333333333333 0  1.239130434782609 0.03333333333333333 0  1.247391304347826 0.03333333333333333 0  1.255652173913044 0.03333333333333333 0  1.263913043478261 0.03333333333333333 0  1.272173913043478 0.03333333333333333 0  1.280434782608696 0.03333333333333333 0  1.288695652173913 0.03333333333333333 0  1.296956521739131 0.03333333333333333 0  1.305217391304348 0.03333333333333333 0  1.313478260869565 0.03333333333333333 0  1.321739130434783 0.03333333333333333 0  1.33 0.03333333333333333 0  1.338260869565217 0.03333333333333333 0  1.346521739130435 0.03333333333333333 0  1.354782608695652 0.03333333333333333 0  1.36304347826087 0.03333333333333333 0  1.371304347826087 0.03333333333333333 0  1.379565217391304 0.03333333333333333 0  1.387826086956522 0.03333333333333333 0  1.396086956521739 0.03333333333333333 0  1.049130434782609 0.04166666666666666 0  1.057391304347826 0.04166666666666666 0  1.065652173913043 0.04166666666666666 0  1.073913043478261 0.04166666666666666 0  1.082173913043478 0.04166666666666666 0  1.090434782608696 0.04166666666666666 0  1.098695652173913 0.04166666666666666 0  1.10695652173913 0.04166666666666666 0  1.115217391304348 0.04166666666666666 0  1.123478260869565 0.04166666666666666 0  1.131739130434783 0.04166666666666666 0  1.14 0.04166666666666666 0  1.148260869565217 0.04166666666666666 0  1.156521739130435 0.04166666666666666 0  1.164782608695652 0.04166666666666666 0  1.17304347826087 0.04166666666666666 0  1.181304347826087 0.04166666666666666 0  1.189565217391304 0.04166666666666666 0  1.197826086956522 0.04166666666666666 0  1.206086956521739 0.04166666666666666 0  1.214347826086956 0.04166666666666666 0  1.222608695652174 0.04166666666666666 0  1.230869565217391 0.04166666666666666 0  1.239130434782609 0.04166666666666666 0  1.247391304347826 0.04166666666666666 0  1.255652173913044 0.04166666666666666 0  1.263913043478261 0.04166666666666666 0  1.272173913043478 0.04166666666666666 0  1.280434782608696 0.04166666666666666 0  1.288695652173913 0.04166666666666666 0  1.296956521739131 0.04166666666666666 0  1.305217391304348 0.04166666666666666 0  1.313478260869565 0.04166666666666666 0  1.321739130434783 0.04166666666666666 0  1.33 0.04166666666666666 0  1.338260869565217 0.04166666666666666 0  1.346521739130435 0.04166666666666666 0  1.354782608695652 0.04166666666666666 0  1.36304347826087 0.04166666666666666 0  1.371304347826087 0.04166666666666666 0  1.379565217391304 0.04166666666666666 0  1.387826086956522 0.04166666666666666 0  1.396086956521739 0.04166666666666666 0  1.404347826086957 0.04166666666666666 0  1.057391304347826 0.05 0  1.065652173913043 0.05 0  1.073913043478261 0.05 0  1.082173913043478 0.05 0  1.090434782608696 0.05 0  1.098695652173913 0.05 0  1.10695652173913 0.05 0  1.115217391304348 0.05 0  1.123478260869565 0.05 0  1.131739130434783 0.05 0  1.14 0.05 0  1.148260869565217 0.05 0  1.156521739130435 0.05 0  1.164782608695652 0.05 0  1.17304347826087 0.05 0  1.181304347826087 0.05 0  1.189565217391304 0.05 0  1.197826086956522 0.05 0  1.206086956521739 0.05 0  1.214347826086956 0.05 0  1.2226086956
[...]
<CellData  Scalars="rho_bar"> 
<DataArray  type="Float64"  Name="rho_bar"  format="ascii">7.0140322639568053e-01   6.9930918006652021e-01   7.0287832091032743e-01   7.0074702559002089e-01   7.0447437353250864e-01   7.0231420524066235e-01   7.0616846875608796e-01   7.0398782921397918e-01   7.0793656838843966e-01   7.0574411971504969e-01   7.0975447016293025e-01   7.0755904130624547e-01   7.1159591505777076e-01   7.0940701867848488e-01   7.1343316233078580e-01   7.1126091639432809e-01   7.1523592699468697e-01   7.1309102248282863e-01   7.1697166448841354e-01   7.1486575541389696e-01   7.1860499692151125e-01   7.1655018252628466e-01   7.2009996839437163e-01   7.1810836960903679e-01   7.2141988154067294e-01   7.1950337299591749e-01   7.2252914423924675e-01   7.2069896296512015e-01   7.2339387626538942e-01   7.2166009387189844e-01   7.2398373927862580e-01   7.2235506978320452e-01   7.2427201678925457e-01   7.2275547805625873e-01   7.2423755237411414e-01   7.2283814718738193e-01   7.2386510939234128e-01   7.2258525111622052e-01   7.2314801852415989e-01   7.2198694801631358e-01   7.2208931032627000e-01   7.2104239550343818e-01   7.2070442227010079e-01   7.1976273808164459e-01   7.1902068841150280e-01   7.1817123529148708e-01   7.1707663006991784e-01   7.1630323749978564e-01   7.1491838887755277e-01   7.1420281112262651e-01   7.1259713040123107e-01   7.1192033972458135e-01   7.1016463759596093e-01   7.0950804065619810e-01   7.0767078973056707e-01   7.0701737048321778e-01   7.0516022838787329e-01   7.0449511553343869e-01   7.0267240282472587e-01   7.0198291782287869e-01   7.0024140695145798e-01   6.9951654383935424e-01   6.9789747217413844e-01   6.9712793371288129e-01   6.9566567444519256e-01   6.9484400687876768e-01   6.9356621650913808e-01   6.9268708161186365e-01   6.9161271117983369e-01   6.9067311990823244e-01   6.8981350373021832e-01   6.8881238006664158e-01   6.8817121610335508e-01   6.8710918007140720e-01   6.8668319798118593e-01   6.8556292104077210e-01   6.8534116638889819e-01   6.8416673732655098e-01   6.8413397945837473e-01   6.8291051692597293e-01   6.8304671413478257e-01   6.8178007403165297e-01   6.8206321703247119e-01   6.8075954563427410e-01   6.7983186625212910e-01   6.9323261751539611e-01   6.9474985605938167e-01   6.8931493375723796e-01   6.9639175008237830e-01   6.9094427453278806e-01   6.9813459570717640e-01   6.9268438610465222e-01   6.9995488397568451e-01   6.9451181273771512e-01   7.0182774493872235e-01   6.9640194903137420e-01   7.0372748854189726e-01   6.9832964846435597e-01   7.0562554055713733e-01   7.0026709541646937e-01   7.0749181175103892e-01   7.0218473634401923e-01   7.0929234405821429e-01   7.0404952750468952e-01   7.1099133428063266e-01   7.0582567671494312e-01   7.1255112389822783e-01   7.0747520541020570e-01   7.1393409571302746e-01   7.0895976007783401e-01   7.1510273995609863e-01   7.1024068496934301e-01   7.1602228097229192e-01   7.1128137886117149e-01   7.1666078722594828e-01   7.1204799380313966e-01   7.1699112390423270e-01   7.1251123751206324e-01   7.1699035887289186e-01   7.1264590867617017e-01   7.1664236857923946e-01   7.1243279452356612e-01   7.1593841848904705e-01   7.1185946463056859e-01   7.1488110900159441e-01   7.1092380150041667e-01   7.1348502563897398e-01   7.0963572080621728e-01   7.1177843159382315e-01   7.0801911381864757e-01   7.0980054532763559e-01   7.0611019608684156e-01   7.0759949227222718e-01   7.0395542987087589e-01   7.0522757269753378e-01   7.0160694224288589e-01   7.0273905089939115e-01   6.9911987277391796e-01   7.0018527630415728e-01   6.9654794970167699e-01   6.9761288767262808e-01   6.9394080111389023e-01   6.9506192264144506e-01   6.9134131213145433e-01   6.9256819577193296e-01   6.8878737219898567e-01   6.9016268318542717e-01   6.8631215549383884e-01   6.8787240680206863e-01   6.8394503227224124e-01   6.8571817801631507e-01   6.8170967139750471e-01   6.8371491386874139e-01   6.7962372162770812e-01   6.8187078654228517e-01   6.7769765662411219e-01   6.8018895013007141e-01   6.7593656801023794e-01   6.7866605518567480e-01   6.7433915675585554e-01   6.7729420431888809e-01   6.7289898615677712e-01   6.7606075743148175e-01   6.7160420438380730e-01   6.7495051708086384e-01   6.7044012768959071e-01   6.7394618518064675e-01   6.6938938081778754e-01   6.7303081974477019e-01   6.6843449861960014e-01   6.6755860762308594e-01   6.7668161647037461e-01   6.7842118640364035e-01   6.6956712902613102e-01   6.8026898296404936e-01   6.7142700895841745e-01   6.8220088725555561e-01   6.7338208081105533e-01   6.8419255080799346e-01   6.7540844188239646e-01   6.8621756121921706e-01   6.7748021184694940e-01   6.8824802633415838e-01   6.7957037090910133e-01   6.9025208298186536e-01   6.8164795148809854e-01   6.9219524113601205e-01   6.8367911602635989e-01   6.9403863374480856e-01   6.8562537388477185e-01   6.9574257051860044e-01   6.8744613583425418e-01   6.9726569340398692e-01   6.8909901580632216e-01   6.9856801142177893e-01   6.9054205620204367e-01   6.9961103756056753e-01   6.9173451588881973e-01   7.0036120581028194e-01   6.9264002052366846e-01   7.0078861731045183e-01   6.9322630909554350e-01   7.0086872371109143e-01   6.9346629923637226e-01   7.0058135064147264e-01   6.9333673764642856e-01   6.9991523604888417e-01   6.9282170509447549e-01   6.9886969126759502e-01   6.9191505168178302e-01   6.9745918135834806e-01   6.9062536248928752e-01   6.9571196115445577e-01   6.8897613867178942e-01   6.9367016955757677e-01   6.8700594841187712e-01   6.9138422456344661e-01   6.8476390011186639e-01   6.8891053311822503e-01   6.8230637229548774e-01   6.8630633100345417e-01   6.7969204667551741e-01   6.8362744126920760e-01   6.7697939124869011e-01   6.8092333382574155e-01   6.7422169083249017e-01   6.7823758956608904e-01   6.7146612313054288e-01   6.7560814905228384e-01   6.6875346316759610e-01   6.7306975128795055e-01   6.6612114644962994e-01   6.7065163721803001e-01   6.6360158099020372e-01   6.6837829079913258e-01   6.6122247929181588e-01   6.6626570844600119e-01   6.5900380941040693e-01   6.6432335197876058e-01   6.5695782000172209e-01   6.6255394076380703e-01   6.5508928610416051e-01   6.6095496995562031e-01   6.5339778453512232e-01   6.5951701849440303e-01   6.5187576399956915e-01   6.5822607215416551e-01   6.5051017653576093e-01   6.5706445512736422e-01   6.4928321558837054e-01   6.5601445549689741e-01   6.4817635474657698e-01   6.5505788815849086e-01   6.4717123979261815e-01   6.5417706210747495e-01   6.4624939113945856e-01   6.4539298835941150e-01   6.5025226188220375e-01   6.5225373607799497e-01   6.3990350646952887e-01   6.5435002552852295e-01   6.4203395193531076e-01   6.5651677715778167e-01   6.4424730520494711e-01   6.5872858899455256e-01   6.4651926635007229e-01   6.6095701384444949e-01   6.4882247509971391e-01   6.6317001098825401e-01   6.5112655727578372e-01   6.6533014478487307e-01   6.5339496849758150e-01   6.6739638146599312e-01   6.5558708797159237e-01   6.6932409152189387e-01   6.5765744697887962e-01   6.7106775618298375e-01   6.5955918857676243e-01   6.7258157415816155e-01   6.6124396041501654e-01   6.7382316345561255e-01   6.6266629281606471e-01   6.7475485351301945e-01   6.6378475019702443e-01   6.7534499348315780e-01   6.6456510006214808e-01   6.7556502201979951e-01   6.6497656703234365e-01   6.7539058064734570e-01   6.6499202130792012e-01   6.7480387806829079e-01   6.6458828066923314e-01   6.7380063151712577e-01   6.6375407441124445e-01   6.7239272501041369e-01   6.6249386600744031e-01   6.7060951427815807e-01   6.6083129164152177e-01   6.6849462648066416e-01   6.5880551805678156e-01   6.6610326450065882e-01   6.5646986149906306e-01   6.6349597778733260e-01   6.5388500798105054e-01   6.6073552535303204e-01   6.5111562896504604e-01   6.5788175815226790e-01   6.4822441440404521e-01   6.5498962048105602e-01   6.4527023613709988e-01   6.5210716598303120e-01   6.4230508626822569e-01   6.4927800563354776e-01   6.3937625817398425e-01   6.4654144106010014e-01   6.3652638568830988e-01   6.4393226134665893e-01   6.3379446461744660e-01   6.4147859552600750e-01   6.3121252207122991e-01   6.3920072033926212e-01   6.2880577590433129e-01   6.3710903865199331e-01   6.2658866747290132e-01   6.3520705770433961e-01   6.2456754230108247e-01   6.3349162639813195e-01   6.2274111117559117e-01   6.3195302961005195e-01   6.2110198086062229e-01   6.3057386096466816e-01   6.1963419360172078e-01   6.2933364956922677e-01   6.1831670732464739e-01   6.2821255125050790e-01   6.1712785769645573e-01   6.2719237303153130e-01   6.1604878947945185e-01   6.2625365173691527e-01   6.1506050062183104e-01   6.2537679052875594e-01   6.1414254022241577e-01   6.1327511729667827e-01   6.1389732224344695e-01   6.1619402290005998e-01   6.0038857932566980e-01   6.1857613680822920e-01   6.0281926319250612e-01   6.2101964716972013e-01   6.0532572307799004e-01   6.2349767013297397e-01   6.0788334137564914e-01   6.2597722365209918e-01   6.1046154655212070e-01   6.2841922408660300e-01   6.1302316783661515e-01   6.3077829267629670e-01   6.1552346836073379e-01   6.3300515874851293e-01   6.1791286629502040e-01   6.3504766926561318e-01   6.2013762771878733e-01   6.3685351408598523e-01   6.2214298743583230e-01   6.3837326699993313e-01   6.2387521727988104e-01   6.3956546339683118e-01   6.2528796055075397e-01   6.4039605202664396e-01   6.2634370834817843e-01   6.4083375778580498e-01   6.2701051578841815e-01   6.4084706145382320e-01   6.2725491462357041e-01   6.4040979864837733e-01   6.2704515294692331e-01   6.3951024869616724e-01   6.2635997260158982e-01   6.3815709247368813e-01   6.2519885883648374e-01   6.3637853927420551e-01   6.2358248260918403e-01   6.3421959935166017e-01   6.2155062376289572e-01   6.3173874880847747e-01   6.1915790740534460e-01   6.2900327372478426e-01   6.1647131310311254e-01   6.2608124075536431e-01   6.1356138273458138e-01   6.2303753045483645e-01   6.1049645956999965e-01   6.1993175821132951e-01   6.0733931050467171e-01   6.1681884954960886e-01   6.0414855097110243e-01   6.1374939724723543e-01   6.0097845030661901e-01   6.1077048748096063e-01   5.9788036725718419e-01   6.0792351046303073e-01   5.9490043888032174e-01   6.0524301903571254e-01   5.9207836941729608e-01   6.0275397371775663e-01   5.8944454533326129e-01   6.0047087122720000e-01   5.8701903896757823e-01   5.9839799359753154e-01   5.8481022882590639e-01   5.9653210342150653e-01   5.8281760793226078e-01   5.9486163870635489e-01   5.8103190428581331e-01   5.9336679946212290e-01   5.7943539716237336e-01   5.9202252140713529e-01   5.7800280770976820e-01   5.9080650111362065e-01   5.7670900676713843e-01   5.8969983705601503e-01   5.7553347624538553e-01   5.8868346123358162e-01   5.7445793014084923e-01   5.8773507103674472e-01   5.7346099041488130e-01   5.8683296279286123e-01   5.7251929629826182e-01   5.7161108825766305e-01   5.6807505605635356e-01   5.7067980623464287e-01   5.5174896189423894e-01   5.7336792602520747e-01   5.5448561484322412e-01   5.7611494751590175e-01   5.5729901794761816e-01   5.7888958478425290e-01   5.6016174844348021e-01   5.8165075669843957e-01   5.6303621405984017e-01   5.8434977374325581e-01   5.6587549184419417e-01   5.8693177699667676e-01   5.6862498763805236e-01   5.8933858067804912e-01   5.7122572649659331e-01   5.9150935450526232e-01   5.7361504978777222e-01   5.9338662663226693e-01   5.7573084785191397e-01   5.9492278716058655e-01   5.7751869438496717e-01   5.9608282041953708e-01   5.7893838505383721e-01   5.9683323392964038e-01   5.7995683546975241e-01   5.9713551819747079e-01   5.8053618513874639e-01   5.9695102228189589e-01   5.8063294351354022e-01   5.9625776041614142e-01   5.8021329078842288e-01   5.9505793572201071e-01   5.7926748509108028e-01   5.9337698852018439e-01   5.7781169500021312e-01   5.9125818307931310e-01   5.7588237247949203e-01   5.8876165174397388e-01   5.7353350541654080e-01   5.8596016997227784e-01   5.7083486501076353e-01   5.8292874254919336e-01   5.6786399935394993e-01   5.7973629733348320e-01   5.6469400365098044e-01   5.7644705230481474e-01   5.6139177526875961e-01   5.7312207125701975e-01   5.5802080984791713e-01   5.6982071697094039e-01   5.5464355935797793e-01   5.6659890849699068e-01   5.5132024922098699e-01   5.6350702646433570e-01   5.4810675416179666e-01   5.6058675510829958e-01   5.4505066648233580e-01   5.5786999171390406e-01   5.4219001793600796e-01   5.5537638089076258e-01   5.3955083918663060e-01   5.5311371113909369e-01   5.3714660200502040e-01   5.5107831984719713e-01   5.3497783465859139e-01   5.4925723238381963e-01   5.3303444921803156e-01   5.4762786609242065e-01   5.3129633050709513e-01   5.4616235650289813e-01   5.2973624410291809e-01   5.4483423717842638e-01   5.2832520418224205e-01   5.4362389239422804e-01   5.2704048602048770e-01   5.4251260557402514e-01   5.2586367341112950e-01   5.4147785989321917e-01   5.2477414127209232e-01   5.4049422524186586e-01   5.2374637999973050e-01   5.3953883172265882e-01   5.2275551796052411e-01   5.2177914803579617e-01   5.1425365484932561e-01   5.1714635966053424e-01   4.9589035149585531e-01   5.2012853630346845e-01   4.9890181326273564e-01   5.2317259430181484e-01   5.0199742030814087e-01   5.2623919239259564e-01   5.0514399958781941e-01   5.2927687653971067e-01   5.0829421844995037e-01   5.3222733583145310e-01   5.1139117592498307e-01   5.3502719783108776e-01   5.1437193126922010e-01   5.3760892212657008e-01   5.1716905716843342e-01   5.3990614544998838e-01   5.1971260760823634e-01   5.4186396975032669e-01   5.2194039538245807e-01   5.4344295758604821e-01   5.2380510274576231e-01   5.4460845032206440e-01   5.2527092845795642e-01   5.4531561278584084e-01   5.2629584367610771e-01   5.4551418972144006e-01   5.2682760309715648e-01   5.4516833546525389e-01   5.2681874229626036e-01   5.4427072377365460e-01   5.2624765625941172e-01   5.4283945705881742e-01   5.2512088441771754e-01   5.4091311643240236e-01   5.2346791879164067e-01   5.3854820592309627e-01   5.2133664358012810e-01   5.3581901604841875e-01   5.1879420926700925e-01   5.3280498946616073e-01   5.1591979739430815e-01   5.2957981482870264e-01   5.1279089074656492e-01   5.2621113296072475e-01   5.0947773346617620e-01   5.2276576039566269e-01   5.0604859302009342e-01   5.1931062710330378e-01   5.0257231070794572e-01   5.1591183139512076e-01   4.9911857776937124e-01   5.1262896843180217e-01   4.9575288001000489e-01   5.0951231797804830e-01   4.9253198344028715e-01   5.0660097195781717e-01   4.8950129976303863e-01   5.0392174167613901e-01   4.8669455542091905e-01   5.0148661484154922e-01   4.8413068381031371e-01   4.9929378372947397e-01   4.8181365617652566e-01   4.9732883797902305e-01   4.7973316237765962e-01   4.9556842682688801e-01   4.7786868899572421e-01   4.9398316392274610e-01   4.7619228125019986e-01   4.9254463376593816e-01   4.7467450305625236e-01   4.9122988401957979e-01   4.7328923617575153e-01   4.9002067781842285e-01   4.7201682484163748e-01   4.8889425889899696e-01   4.7083660936214627e-01   4.8782417369681264e-01   4.6972300814539891e-01   4.8678507341982957e-01   4.6864917747534424e-01   4.8575474824132014e-01   4.6759197428382798e-01   4.6653113818547731e-01   4.5529370870236135e-01   4.5841155740909872e-01   4.3613211532081686e-01   4.6162979042267782e-01   4.3934225485373130e-01   4.6491517261334531e-01   4.4264658736606766e-01   4.6821903104302226e-01   4.4600439061203656e-01   4.7148178468576685e-01   4.4936022278424276e-01   4.7463919136256777e-01   4.5265181838362634e-01   4.7762015972555866e-01   4.5581086929076464e-01   4.8035356232568049e-01   4.5876501673752257e-01   4.8277748643168883e-01   4.6144700133926581e-01   4.8484435458380465e-01   4.6380194215069837e-01   4.8651272944122198e-01   4.6578452077127791e-01   4.8773301642585931e-01   4.6734690930243500e-01   4.8844649548898328e-01   4.6843025903220870e-01   4.8860550874474928e-01   4.6897764714121115e-01   4.8818867361918505e-01   4.6895324051847787e-01   4.8720183945742918e-01   4.6834923467403988e-01   4.8567267641057232e-01   4.6718121593479456e-01   4.8364940325918210e-01   4.6548627518924401e-01   4.8119905938288310e-01   4.6332113694214888e-01   4.7839947335743849e-01   4.6075863114076293e-01   4.7532631957664767e-01   4.5787504316925265e-01   4.7205150709690408e-01   4.5474391531929315e-01   4.6864628825161186e-01   4.5143752756843991e-01   4.6518458147448921e-01   4.4803074013943356e-01   4.6174137590495018e-01   4.4460083312676957e-01   4.5838641701309607e-01   4.4122343243654627e-01   4.5517763038081727e-01   4.3796353325880855e-01   4.5216165373676781e-01   4.3487378981027153e-01   4.4937212238703200e-01   4.3199442162870361e-01   4.4682692324837964e-01   4.2935109832890517e-01   4.4452696719446422e-01   4.2695171098560664e-01   4.4245933530646214e-01   4.2478879616394799e-01   4.4060102436273851e-01   4.2284286159543466e-01   4.3892413991714679e-01   4.2108813406471773e-01   4.3740008469554814e-01   4.1949613432498750e-01   4.3600416872631115e-01   4.1804071502751122e-01   4.3471531641815819e-01   4.1669893724271451e-01   4.3351131698561740e-01   4.1544958867902759e-01   4.3236568210243598e-01   4.1426746580024021e-01   4.3125271611957383e-01   4.1312636092006483e-01   4.3014998061411586e-01   4.1200277512469280e-01   4.2903915605313042e-01   4.1087713853071162e-01   4.0973363938924418e-01   3.9517420037382395e-01   3.9842127557471757e-01   3.7660268928936846e-01   4.0177927751672388e-01   3.7991148409328590e-01   4.0520854895478831e-01   3.8332182019486777e-01   4.0865572578870407e-01   3.8678816913839170e-01   4.1206021180857383e-01   3.9025469611796404e-01   4.1535468927060104e-01   3.9365979255536282e-01   4.1846837266444437e-01   3.9693494076480701e-01   4.2133738227945366e-01   4.0001396332031841e-01   4.2390615943187332e-01   4.0283765172481217e-01   4.2612314799704315e-01   4.0535152265027569e-01   4.2793095533760050e-01   4.0749836136835654e-01   4.2926468981820098e-01   4.0921300418596912e-01   4.3006540216232064e-01   4.1042870939276549e-01   4.3029562877804983e-01   4.1109418242805162e-01   4.2994236277027353e-01   4.1118122390282724e-01   4.2901659554800359e-01   4.1068590310696790e-01   4.2755160712143631e-01   4.0962750870449949e-01   4.2560137176695384e-01   4.0804771932355099e-01   4.2323369019639756e-01   4.0600581360526233e-01   4.2052188868496310e-01   4.0357163759121378e-01   4.1754020702917172e-01   4.0081861208796926e-01   4.1436505397326667e-01   3.9782346536177660e-01   4.1107568755292789e-01   3.9466596768546369e-01   4.0775469928907532e-01   3.9142972797474063e-01   4.0448052383801997e-01   3.8819783000378294e-01   4.0131903817471126e-01   3.8504369252708504e-01   3.9832230434471044e-01   3.8202554305672082e-01   3.9553005569435412e-01   3.7918894267862335e-01   3.9296549899289973e-01   3.7656458131216725e-01   3.9063453629085804e-01   3.7416590085804274e-01   3.8852764876423290e-01   3.7198978158084739e-01   3.8662530219700580e-01   3.7002121101230395e-01   3.8490238983833835e-01   3.6823781485673479e-01   3.8333256270446042e-01   3.6661449265646512e-01   3.8189086398044708e-01   3.6512597342655140e-01   3.8055453374136705e-01   3.6374893012535353e-01   3.7930029852467156e-01   3.6246039529471730e-01   3.7810333433188442e-01   3.6123646492967482e-01   3.7693875550359651e-01   3.6005235747876896e-01   3.7578491654437368e-01   3.5888554730902911e-01   3.7462378276038799e-01   3.5771697899469168e-01   3.7344081679796065e-01   3.5653113476162968e-01   3.5531556650366647e-01   3.3787083012387487e-01   3.4115557906245531e-01   3.2097351048476735e-01   3.4455825764994835e-01   3.2430041947006433e-01   3.4803795674615490e-01   3.2773584885860424e-01   3.5154522088723339e-01   3.3123741191735684e-01   3.5502321019967248e-01   3.3475561130308534e-01   3.5840977310147965e-01   3.3823422849007895e-01   3.6164383610377221e-01   3.4161394899085451e-01   3.6466744407824170e-01   3.4483722971666414e-01   3.6742117547499170e-01   3.4784483210677786e-01   3.6983965768662391e-01   3.5057210657338694e-01   3.7184977983978185e-01   3.5294559601464132e-01   3.73379797