<?xml version="1.0"?>
<VTKFile type="UnstructuredGrid"  version="0.1"  >
<UnstructuredGrid>
<Piece  NumberOfPoints="2423" NumberOfCells="4638">
<Points>
<DataArray  type="Float64"  NumberOfComponents="3"  format="ascii">2.940869565217391 0 0  2.949130434782608 0 0  2.949130434782608 0.008333333333333333 0  2.940869565217391 0.008333333333333333 0  2.957391304347826 0 0  2.957391304347826 0.008333333333333333 0  2.965652173913043 0 0  2.965652173913043 0.008333333333333333 0  2.973913043478261 0 0  2.973913043478261 0.008333333333333333 0  2.982173913043478 0 0  2.982173913043478 0.008333333333333333 0  2.990434782608696 0 0  2.990434782608696 0.008333333333333333 0  2.998695652173913 0 0  2.998695652173913 0.008333333333333333 0  3.006956521739131 0 0  3.006956521739131 0.008333333333333333 0  3.015217391304348 0 0  3.015217391304348 0.008333333333333333 0  3.023478260869565 0 0  3.023478260869565 0.008333333333333333 0  3.031739130434782 0 0  3.031739130434782 0.008333333333333333 0  3.04 0 0  3.04 0.008333333333333333 0  3.048260869565218 0 0  3.048260869565218 0.008333333333333333 0  3.056521739130435 0 0  3.056521739130435 0.008333333333333333 0  3.064782608695652 0 0  3.064782608695652 0.008333333333333333 0  3.073043478260869 0 0  3.073043478260869 0.008333333333333333 0  3.081304347826087 0 0  3.081304347826087 0.008333333333333333 0  3.089565217391304 0 0  3.089565217391304 0.008333333333333333 0  3.097826086956522 0 0  3.097826086956522 0.008333333333333333 0  3.106086956521739 0 0  3.106086956521739 0.008333333333333333 0  3.114347826086956 0 0  3.114347826086956 0.008333333333333333 0  3.122608695652174 0 0  3.122608695652174 0.008333333333333333 0  3.130869565217391 0 0  3.130869565217391 0.008333333333333333 0  3.139130434782609 0 0  3.139130434782609 0.008333333333333333 0  3.147391304347826 0 0  3.147391304347826 0.008333333333333333 0  3.155652173913043 0 0  3.155652173913043 0.008333333333333333 0  3.163913043478261 0 0  3.163913043478261 0.008333333333333333 0  3.172173913043478 0 0  3.172173913043478 0.008333333333333333 0  3.180434782608696 0 0  3.180434782608696 0.008333333333333333 0  3.188695652173913 0 0  3.188695652173913 0.008333333333333333 0  3.19695652173913 0 0  3.19695652173913 0.008333333333333333 0  3.205217391304347 0 0  3.205217391304347 0.008333333333333333 0  3.213478260869565 0 0  3.213478260869565 0.008333333333333333 0  3.221739130434782 0 0  3.221739130434782 0.008333333333333333 0  3.23 0 0  3.23 0.008333333333333333 0  3.238260869565217 0 0  3.238260869565217 0.008333333333333333 0  2.949130434782608 0.01666666666666667 0  2.957391304347826 0.01666666666666667 0  2.965652173913043 0.01666666666666667 0  2.973913043478261 0.01666666666666667 0  2.982173913043478 0.01666666666666667 0  2.990434782608696 0.01666666666666667 0  2.998695652173913 0.01666666666666667 0  3.006956521739131 0.01666666666666667 0  3.015217391304348 0.01666666666666667 0  3.023478260869565 0.01666666666666667 0  3.031739130434782 0.01666666666666667 0  3.04 0.01666666666666667 0  3.048260869565218 0.01666666666666667 0  3.056521739130435 0.01666666666666667 0  3.064782608695652 0.01666666666666667 0  3.073043478260869 0.01666666666666667 0  3.081304347826087 0.01666666666666667 0  3.089565217391304 0.01666666666666667 0  3.097826086956522 0.01666666666666667 0  3.106086956521739 0.01666666666666667 0  3.114347826086956 0.01666666666666667 0  3.122608695652174 0.01666666666666667 0  3.130869565217391 0.01666666666666667 0  3.139130434782609 0.01666666666666667 0  3.147391304347826 0.01666666666666667 0  3.155652173913043 0.01666666666666667 0  3.163913043478261 0.01666666666666667 0  3.172173913043478 0.01666666666666667 0  3.180434782608696 0.01666666666666667 0  3.188695652173913 0.01666666666666667 0  3.19695652173913 0.01666666666666667 0  3.205217391304347 0.01666666666666667 0  3.213478260869565 0.01666666666666667 0  3.221739130434782 0.01666666666666667 0  3.23 0.01666666666666667 0  3.238260869565217 0.01666666666666667 0  3.246521739130435 0.01666666666666667 0  2.957391304347826 0.025 0  2.949130434782608 0.025 0  2.965652173913043 0.025 0  2.973913043478261 0.025 0  2.982173913043478 0.025 0  2.990434782608696 0.025 0  2.998695652173913 0.025 0  3.006956521739131 0.025 0  3.015217391304348 0.025 0  3.023478260869565 0.025 0  3.031739130434782 0.025 0  3.04 0.025 0  3.048260869565218 0.025 0  3.056521739130435 0.025 0  3.064782608695652 0.025 0  3.073043478260869 0.025 0  3.081304347826087 0.025 0  3.089565217391304 0.025 0  3.097826086956522 0.025 0  3.106086956521739 0.025 0  3.114347826086956 0.025 0  3.122608695652174 0.025 0  3.130869565217391 0.025 0  3.139130434782609 0.025 0  3.147391304347826 0.025 0  3.155652173913043 0.025 0  3.163913043478261 0.025 0  3.172173913043478 0.025 0  3.180434782608696 0.025 0  3.188695652173913 0.025 0  3.19695652173913 0.025 0  3.205217391304347 0.025 0  3.213478260869565 0.025 0  3.221739130434782 0.025 0  3.23 0.025 0  3.238260869565217 0.025 0  3.246521739130435 0.025 0  3.254782608695652 0.025 0  2.957391304347826 0.03333333333333333 0  2.949130434782608 0.03333333333333333 0  2.965652173913043 0.03333333333333333 0  2.973913043478261 0.03333333333333333 0  2.982173913043478 0.03333333333333333 0  2.990434782608696 0.03333333333333333 0  2.998695652173913 0.03333333333333333 0  3.006956521739131 0.03333333333333333 0  3.015217391304348 0.03333333333333333 0  3.023478260869565 0.03333333333333333 0  3.031739130434782 0.03333333333333333 0  3.04 0.03333333333333333 0  3.048260869565218 0.03333333333333333 0  3.056521739130435 0.03333333333333333 0  3.064782608695652 0.03333333333333333 0  3.073043478260869 0.03333333333333333 0  3.081304347826087 0.03333333333333333 0  3.089565217391304 0.03333333333333333 0  3.097826086956522 0.03333333333333333 0  3.106086956521739 0.03333333333333333 0  3.114347826086956 0.03333333333333333 0  3.122608695652174 0.03333333333333333 0  3.130869565217391 0.03333333333333333 0  3.139130434782609 0.03333333333333333 0  3.147391304347826 0.03333333333333333 0  3.155652173913043 0.03333333333333333 0  3.163913043478261 0.03333333333333333 0  3.172173913043478 0.03333333333333333 0  3.180434782608696 0.03333333333333333 0  3.188695652173913 0.03333333333333333 0  3.19695652173913 0.03333333333333333 0  3.205217391304347 0.03333333333333333 0  3.213478260869565 0.03333333333333333 0  3.221739130434782 0.03333333333333333 0  3.23 0.03333333333333333 0  3.238260869565217 0.03333333333333333 0  3.246521739130435 0.03333333333333333 0  3.254782608695652 0.03333333333333333 0  3.26304347826087 0.03333333333333333 0  2.957391304347826 0.04166666666666666 0  2.965652173913043 0.04166666666666666 0  2.973913043478261 0.04166666666666666 0  2.982173913043478 0.04166666666666666 0  2.990434782608696 0.04166666666666666 0  2.998695652173913 0.04166666666666666 0  3.006956521739131 0.04166666666666666 0  3.015217391304348 0.04166666666666666 0  3.023478260869565 0.04166666666666666 0  3.031739130434782 0.04166666666666666 0  3.04 0.04166666666666666 0  3.048260869565218 0.04166666666666666 0  3.056521739130435 0.04166666666666666 0  3.064782608695652 0.04166666666666666 0  3.073043478260869 0.04166666666666666 0  3.081304347826087 0.04166666666666666 0  3.089565217391304 0.04166666666666666 0  3.097826086956522 0.04166666666666666 0  3.106086956521739 0.04166666666666666 0  3.114347826086956 0.04166666666666666 0  3.122608695652174 0.04166666666666666 0  3.130869565217391 0.04166666666666666 0  3.139130434782609 0.04166666666666666 0  3.147391304347826 0.04166666666666666 0  3.155652173913043 0.04166666666666666 0  3.163913043478261 0.04166666666666666 0  3.172173913043478 0.04166666666666666 0  3.180434782608696 0.04166666666666666 0  3.188695652173913 0.04166666666666666 0  3.19695652173913 0.04166666666666666 0  3.205217391304347 0.04166666666666666 0  3.213478260869565 0.04166666666666666 0  3.221739130434782 0.04166666666666666 0  3.23 0.04166666666666666 0  3.238260869565217 0.04166666666666666 0  3.246521739130435 0.04166666666666666 0  3.254782608695652 0.04166666666666666 0  3.26304347826087 0.04166666666666666 0  3.271304347826087 0.04166666666666666 0  2.965652173913043 0.05 0  2.957391304347826 0.05 0  2.973913043478261 0.05 0  2.982173913043478 0.05 0  2.990434782608696 0.05 0  2.998695652173913 0.05 0  3.006956521739131 0.05 0  3.015217391304348 0.05 0  3.023478260869565 0.05 0  3.031739130434782 0.05 0  3.04 0.05 0  3.048260869565218 0.05 0  3.056521739130435 0.05 0  3.064782608695652 0.05 0  3.073043478260869 0.05 0  3.081304347826087 0.05 0  3.089565217391304 0.05 0  3.097826086956522 0.05 0  3.106086956521739 0.05 0  3.114347826086956 0.05 0  3.122608695652174 0.05 0  3.130869565217391 0.05 0  3.139130434782609 0.05 0  3.147391304347826 0.05 0  3.155652173913043 0.05 0  3.163913043478261 0.05 0  3.172173913043478 0.05 0  3.180434782608696 0.05 0  3.188695652173913 0.05 0  3.19695652173913 0.05 0  3.205217391304347 0.05 0  3.213478260869565 0.05 0  3.221739130434782 0.05 0  3.23 0.05 0  3.238260869565217 0.05 0  3.246521739130435 0.05 0  3.254782608695652 0.05 0  3.26304347826087 0.05 0  3.271304347826087 0.05 0  3.279565217391304 0.05 0  2.965652173913043 0.05833333333333333 0  2.973913043478261 0.05833333333333333 0  2.982173913043478 0.05833333333333333 0  2.990434782608696 0.05833333333333333 0  2.998695652173913 0.05833333333333333 0  3.006956521739131 0.05833333333333333 0  3.015217391304348 0.05833333333333333 0  3.023478260869565 0.05833333333333333 0  3.031739130434782 0.05833333333333333 0  3.04 0.05833333333333333 0  3.048260869565218 0.05833333333333333 0  3.056521739130435 0.05833333333333333 0  3.064782608695652 0.05833333333333333 0  3.073043478260869 0.05833333333333333 0  3.081304347826087 0.05833333333333333 0  3.089565217391304 0.05833333333333333 0  3.097826086956522 0.05833333333333333 0  3.106086956521739 0.05833333333333333 0  3.114347826086956 0.05833333333333333 0  3.122608695652174 0.
[...]
<PointData  Vectors="Displacement"> 
<DataArray  type="Float64"  Name="Displacement"  NumberOfComponents="3" format="ascii">3.1184654965421132e-04 2.9407912613062413e-03 0.0000000000000000e+00  3.1221873134929152e-04 2.9514343038506592e-03 0.0000000000000000e+00  3.0147726746152241e-04 2.9513084363103166e-03 0.0000000000000000e+00  3.0108696890252071e-04 2.9406666112694268e-03 0.0000000000000000e+00  3.1259988534657041e-04 2.9620633248021210e-03 0.0000000000000000e+00  3.0186696843466517e-04 2.9619359652684400e-03 0.0000000000000000e+00  3.1299122389165070e-04 2.9726875692907316e-03 0.0000000000000000e+00  3.0225709755285718e-04 2.9725578121862039e-03 0.0000000000000000e+00  3.1339261848624942e-04 2.9833193232652907e-03 0.0000000000000000e+00  3.0264814309862120e-04 2.9831871946538434e-03 0.0000000000000000e+00  3.1380141301884867e-04 2.9939696954389889e-03 0.0000000000000000e+00  3.0303935133638794e-04 2.9938363986356581e-03 0.0000000000000000e+00  3.1421413251192260e-04 3.0046442437131585e-03 0.0000000000000000e+00  3.0342952306322693e-04 3.0045110565039119e-03 0.0000000000000000e+00  3.1462897146921482e-04 3.0153438063612319e-03 0.0000000000000000e+00  3.0381806203280996e-04 3.0152112071869124e-03 0.0000000000000000e+00  3.1504687273334499e-04 3.0260685930734725e-03 0.0000000000000000e+00  3.0420523219638397e-04 3.0259361109202815e-03 0.0000000000000000e+00  3.1547078724694861e-04 3.0368222551944110e-03 0.0000000000000000e+00  3.0459170753283673e-04 3.0366888534364873e-03 0.0000000000000000e+00  3.1590489449821887e-04 3.0476121280885835e-03 0.0000000000000000e+00  3.0497934754348052e-04 3.0474760715431775e-03 0.0000000000000000e+00  3.1635202999794504e-04 3.0584513146639275e-03 0.0000000000000000e+00  3.0536974888680380e-04 3.0583116277718195e-03 0.0000000000000000e+00  3.1681119426612414e-04 3.0693555629559685e-03 0.0000000000000000e+00  3.0576256527276914e-04 3.0692128078761770e-03 0.0000000000000000e+00  3.1727676126626890e-04 3.0803389057585625e-03 0.0000000000000000e+00  3.0615465416180014e-04 3.0801952623168128e-03 0.0000000000000000e+00  3.1773991356507731e-04 3.0914094393736371e-03 0.0000000000000000e+00  3.0654088349404187e-04 3.0912679022174093e-03 0.0000000000000000e+00  3.1819149956838959e-04 3.1025676001509074e-03 0.0000000000000000e+00  3.0691598311657984e-04 3.1024308130057515e-03 0.0000000000000000e+00  3.1862410115826063e-04 3.1138084191156485e-03 0.0000000000000000e+00  3.0727562242949610e-04 3.1136782434189065e-03 0.0000000000000000e+00  3.1903258151320626e-04 3.1251244219656104e-03 0.0000000000000000e+00  3.0761661840833081e-04 3.1250020072330102e-03 0.0000000000000000e+00  3.1941364916571852e-04 3.1365076001763806e-03 0.0000000000000000e+00  3.0793670639726010e-04 3.1363936251368857e-03 0.0000000000000000e+00  3.1976506518423226e-04 3.1479503341418592e-03 0.0000000000000000e+00  3.0823417069365556e-04 3.1478452570652383e-03 0.0000000000000000e+00  3.2008485610631956e-04 3.1594455447738518e-03 0.0000000000000000e+00  3.0850748724640654e-04 3.1593498066206896e-03 0.0000000000000000e+00  3.2037068064669823e-04 3.1709863321116687e-03 0.0000000000000000e+00  3.0875505022942399e-04 3.1709005058246338e-03 0.0000000000000000e+00  3.2061939127062551e-04 3.1825652434703958e-03 0.0000000000000000e+00  3.0897500861372731e-04 3.1824901527028916e-03 0.0000000000000000e+00  3.2082682115148369e-04 3.1941731687174461e-03 0.0000000000000000e+00  3.0916521192216257e-04 3.1941100295080202e-03 0.0000000000000000e+00  3.2098787558417321e-04 3.2057977674692924e-03 0.0000000000000000e+00  3.0932317748471943e-04 3.2057484979515004e-03 0.0000000000000000e+00  3.2109726203124968e-04 3.2174211672107672e-03 0.0000000000000000e+00  3.0944585998586956e-04 3.2173890855117428e-03 0.0000000000000000e+00  3.2115212517398430e-04 3.2290172685177044e-03 0.0000000000000000e+00  3.0952873558796429e-04 3.2290077823324340e-03 0.0000000000000000e+00  3.2116381788650479e-04 3.2405594309115678e-03 0.0000000000000000e+00  3.0956309297208002e-04 3.2405682649181838e-03 0.0000000000000000e+00  3.2181187764046066e-04 3.2523860727159200e-03 0.0000000000000000e+00  3.0956339353707272e-04 3.2520765143489107e-03 0.0000000000000000e+00  3.2252015037276147e-04 3.2644984557597804e-03 0.0000000000000000e+00  3.1037626883251816e-04 3.2642727527224229e-03 0.0000000000000000e+00  3.2318397042892705e-04 3.2765638190442067e-03 0.0000000000000000e+00  3.1105599862675390e-04 3.2763545775317138e-03 0.0000000000000000e+00  3.2381373561292485e-04 3.2886252669443775e-03 0.0000000000000000e+00  3.1166964963385863e-04 3.2884264830881356e-03 0.0000000000000000e+00  3.2441254331460668e-04 3.3007135808671246e-03 0.0000000000000000e+00  3.1223778437870320e-04 3.3005250886402873e-03 0.0000000000000000e+00  3.2497769690543424e-04 3.3128412082656456e-03 0.0000000000000000e+00  3.1276731926372292e-04 3.3126643946291066e-03 0.0000000000000000e+00  3.2550744767805137e-04 3.3250056626532853e-03 0.0000000000000000e+00  3.1326216560379990e-04 3.3248403982933123e-03 0.0000000000000000e+00  3.2600244701037038e-04 3.3372019043738039e-03 0.0000000000000000e+00  3.1372520231337297e-04 3.3370474971459179e-03 0.0000000000000000e+00  3.2646441903393054e-04 3.3494259230773416e-03 0.0000000000000000e+00  3.1415851516487721e-04 3.3492816743934117e-03 0.0000000000000000e+00  2.9073682346484833e-04 2.9511785670007160e-03 0.0000000000000000e+00  2.9113486823395529e-04 2.9618081078542791e-03 0.0000000000000000e+00  2.9152370972013349e-04 2.9724293321192357e-03 0.0000000000000000e+00  2.9190449856938662e-04 2.9830575942189452e-03 0.0000000000000000e+00  2.9227837270686340e-04 2.9937078462900510e-03 0.0000000000000000e+00  2.9264611553386392e-04 3.0043857353137253e-03 0.0000000000000000e+00  2.9300784099167861e-04 3.0150895295995017e-03 0.0000000000000000e+00  2.9336359196194630e-04 3.0258173105791098e-03 0.0000000000000000e+00  2.9371171377056077e-04 3.0365720438084178e-03 0.0000000000000000e+00  2.9405228624219298e-04 3.0473575609268832e-03 0.0000000000000000e+00  2.9438771520839361e-04 3.0581889067996704e-03 0.0000000000000000e+00  2.9471998686151621e-04 3.0690861431261905e-03 0.0000000000000000e+00  2.9504784874846777e-04 3.0800678298420025e-03 0.0000000000000000e+00  2.9536756476394112e-04 3.0911438527342428e-03 0.0000000000000000e+00  2.9567570277125912e-04 3.1023127442679722e-03 0.0000000000000000e+00  2.9597011994765543e-04 3.1135671373768476e-03 0.0000000000000000e+00  2.9624964261252250e-04 3.1248979289036096e-03 0.0000000000000000e+00  2.9651358348259572e-04 3.1362962921499585e-03 0.0000000000000000e+00  2.9676141573049467e-04 3.1477543694213854e-03 0.0000000000000000e+00  2.9699259692257966e-04 3.1592652155620661e-03 0.0000000000000000e+00  2.9720649619757527e-04 3.1708223086886951e-03 0.0000000000000000e+00  2.9740238611504353e-04 3.1824188002470715e-03 0.0000000000000000e+00  2.9757947199788844e-04 3.1940465444582756e-03 0.0000000000000000e+00  2.9773679947375206e-04 3.2056950924008697e-03 0.0000000000000000e+00  2.9787274809614669e-04 3.2173506327721115e-03 0.0000000000000000e+00  2.9798357085034007e-04 3.2289947190458023e-03 0.0000000000000000e+00  2.9805974685174596e-04 3.2406016778908963e-03 0.0000000000000000e+00  2.9808032147413843e-04 3.2521380142033944e-03 0.0000000000000000e+00  2.9855897887836447e-04 3.2640939033928627e-03 0.0000000000000000e+00  2.9911070302694742e-04 3.2761696371983780e-03 0.0000000000000000e+00  2.9964607507443851e-04 3.2882431084225411e-03 0.0000000000000000e+00  3.0015724683296775e-04 3.3003489864151078e-03 0.0000000000000000e+00  3.0063914937871351e-04 3.3125010045651571e-03 0.0000000000000000e+00  3.0109229590794445e-04 3.3246884655990594e-03 0.0000000000000000e+00  3.0151888666654717e-04 3.3369052037318628e-03 0.0000000000000000e+00  3.0192052511496996e-04 3.3491478621367906e-03 0.0000000000000000e+00  3.0229774475874077e-04 3.3614151348734822e-03 0.0000000000000000e+00  2.8042604332899785e-04 2.9616801180728531e-03 0.0000000000000000e+00  2.8001698065628628e-04 2.9510440483507582e-03 0.0000000000000000e+00  2.8081538827493294e-04 2.9723040059050848e-03 0.0000000000000000e+00  2.8118090901482073e-04 2.9829322863079697e-03 0.0000000000000000e+00  2.8152989260760429e-04 2.9935846072331480e-03 0.0000000000000000e+00  2.8187103967276887e-04 3.0042675669495564e-03 0.0000000000000000e+00  2.8220753984862948e-04 3.0149780648611713e-03 0.0000000000000000e+00  2.8253527704842217e-04 3.0257104206637786e-03 0.0000000000000000e+00  2.8285191560716998e-04 3.0364721139967917e-03 0.0000000000000000e+00  2.8314922927664331e-04 3.0472583738285226e-03 0.0000000000000000e+00  2.8342753693296044e-04 3.0580830510567561e-03 0.0000000000000000e+00  2.8369753133155288e-04 3.0689722484595807e-03 0.0000000000000000e+00  2.8396203393570057e-04 3.0799511598612796e-03 0.0000000000000000e+00  2.8421801081116943e-04 3.0910316997169430e-03 0.0000000000000000e+00  2.8446280674668028e-04 3.1022085995283653e-03 0.0000000000000000e+00  2.8469577290000724e-04 3.1134712892252562e-03 0.0000000000000000e+00  2.8491738029606437e-04 3.1248091897910927e-03 0.0000000000000000e+00  2.8512838568470856e-04 3.1362131285834218e-03 0.0000000000000000e+00  2.8532943006841292e-04 3.1476754544650714e-03 0.0000000000000000e+00  2.8552091634710713e-04 3.1591896542539329e-03 0.0000000000000000e+00  2.8570302655435572e-04 3.1707497263412884e-03 0.0000000000000000e+00  2.8587579757830548e-04 3.1823494341933433e-03 0.0000000000000000e+00  2.8603926589290316e-04 3.1939814065183418e-03 0.0000000000000000e+00  2.8619349465433319e-04 3.2056365548409475e-03 0.0000000000000000e+00  2.8633827496221394e-04 3.2173038573436999e-03 0.0000000000000000e+00  2.8647228602891655e-04 3.2289706294341791e-03 0.0000000000000000e+00  2.8659112310383826e-04 3.2406234757989451e-03 0.0000000000000000e+00  2.8668027107554985e-04 3.2522465959330220e-03 0.0000000000000000e+00  2.8679593073379153e-04 3.2640173687600933e-03 0.0000000000000000e+00  2.8725503029203471e-04 3.2760576000859746e-03 0.0000000000000000e+00  2.8770335635716187e-04 3.2880972614301178e-03 0.0000000000000000e+00  2.8814798649361194e-04 3.3001942396246112e-03 0.0000000000000000e+00  2.8857628879165901e-04 3.3123565965514725e-03 0.0000000000000000e+00  2.8898445260037157e-04 3.3245533601498033e-03 0.0000000000000000e+00  2.8937281901090936e-04 3.3367772591429089e-03 0.0000000000000000e+00  2.8974178006265964e-04 3.3490258079460276e-03 0.0000000000000000e+00  2.9009060206578488e-04 3.3612995123485988e-03 0.0000000000000000e+00  2.9041819630041686e-04 3.3735971704183599e-03 0.0000000000000000e+00  2.6977806324908352e-04 2.9615469780009318e-03 0.0000000000000000e+00  2.6936073213024376e-04 2.9509052894133550e-03 0.0000000000000000e+00  2.7018669365379288e-04 2.9721895482855711e-03 0.0000000000000000e+00  2.7051200242522109e-04 2.9828230589511394e-03 0.0000000000000000e+00  2.7080273294013523e-04 2.9934732208185075e-03 0.0000000000000000e+00  2.7110220978002105e-04 3.0041567130529609e-03 0.0000000000000000e+00  2.7141550869432316e-04 3.0148700027866179e-03 0.0000000000000000e+00  2.7173611117325746e-04 3.0256139812645348e-03 0.0000000000000000e+00  2.7201978928929118e-04 3.0363756591192653e-03 0.0000000000000000e+00  2.7231325783155086e-04 3.0471859511687644e-03 0.0000000000000000e+00  2.7251598391286630e-04 3.0580005458529171e-03 0.0000000000000000e+00  2.7270790759680979e-04 3.0688730686461098e-03 0.0000000000000000e+00  2.7289963566372636e-04 3.0798438895192578e-03 0.0000000000000000e+00  2.7308765729625023e-04 3.0909296834499621e-03 0.0000000000000000e+00  2.7326803491952209e-04 3.1021168115713694e-03 0.0000000000000000e+00  2.7344030992414842e-04 3.1133892816902452e-03 0.0000000000000000e+00  2.7360566332407168e-04 3.1247344863945740e-03 0.0000000000000000e+00  2.7376561997590257e-04 3.1361429617615534e-03 0.0000000000000000e+00  2.7392150967407014e-04 3.1476075285723666e-03 0.0000000000000000e+00  2.7407429899911899e-04 3.1591224427179676e-03 0.0000000000000000e+00  2.7422458777201026e-04 3.1706825751323313e-03 0.0000000000000000e+00  2.7437267157541821e-04 3.1822826384102850e-03 0.0000000000000000e+00  2.7451880365212907e-04 3.1939161845486947e-03 0.0000000000000000e+00  2.7466334542516473e-04 3.2055754173051869e-03 0.0000000000000000e+00  2.7480662294604018e-04 3.2172516458483583e-03 0.0000000000000000e+00  2.7494854832292858e-04 3.2289365110006957e-03 0.0000000000000000e+00  2.7508825018283164e-04 3.2406251453456852e-03 0.0000000000000000e+00  2.7522495955548994e-04 3.2523266583739164e-03 0.0000000000000000e+00  2.7537548009859273e-04 3.2641320195211203e-03 0.0000000000000000e+00  2.7554098735703837e-04 3.2760274700983491e-03 0.0000000000000000e+00  2.7583832216263412e-04 3.2879938657664398e-03 0.0000000000000000e+00  2.7618518094996017e-04 3.3000582789007365e-03 0.0000000000000000e+00  2.7655756860970411e-04 3.3122326755755469e-03 0.0000000000000000e+00  2.7692328384845406e-04 3.3244361129984518e-03 0.0000000000000000e+00  2.7727581160933129e-04 3.3366641561893124e-03 0.0000000000000000e+00  2.7761369565618290e-04 3.3489154187510053e-03 0.0000000000000000e+00  2.7793485036735989e-04 3.3611937349125437e-03 0.0000000000000000e+00  2.7823714495531595e-04 3.3734980370999507e-03 0.0000000000000000e+00  2.7851974830354551e-04 3.3858240053397117e-03 0.0000000000000000e+00  2.5854436744108096e-04 2.9607416132770036e-03 0.0000000000000000e+00  2.5897262218964198e-04 2.9714370577951822e-03 0.0000000000000000e+00  2.5937243637499799e-04 2.9821447240027344e-03 0.0000000000000000e+00  2.5975036583301498e-04 2.9928691082665645e-03 0.0000000000000000e+00  2.6013016877951415e-04 3.0036556250079226e-03 0.0000000000000000e+00  2.6058350096806314e-04 3.0147276010618249e-03 0.0000000000000000e+00  2.6089787859779370e-04 3.0255072288655218e-03 0.0000000000000000e+00  2.6123747489602397e-04 3.0362872122201971e-03 0.0000000000000000e+00  2.6150243236478665e-04 3.0471128951176686e-03 0.0000000000000000e+00  2.6168302078281858e-04 3.0579627175124392e-03 0.0000000000000000e+00  2.6175845204104751e-04 3.0687996042495563e-03 0.0000000000000000e+00  2.6185167783081471e-04 3.0797475749343175e-03 0.0000000000000000e+00  2.6196295723867100e-04 3.0908382818462554e-03 0.0000000000000000e+00  2.6207665222204783e-04 3.1020377006220133e-03 0.0000000000000000e+00  2.6218881282422509e-04 3.1133211400504084e-03 0.0000000000000000e+00  2.6229959377616763e-04 3.1246736028436237e-03 0.0000000000000000e+00  2.6241029683937603e-04 3.1360855068604111e-03 0.0000000000000000e+00  2.6252232746657329e-04 3.1475504425026450e-03 0.0000000000000000e+00  2.6263678314239198e-04 3.1590637946108105e-03 0.0000000000000000e+00  2.6275428025993811e-04 3.1706217089099188e-03 0.0000000000000000e+00  2.6287486364962281e-04 3.1822202803496540e-03 0.0000000000000000e+00  2.6299842194114052e-04 3.1938540809360624e-03 0.0000000000000000e+00  2.6312489622114352e-04 3.2055164842725754e-03 0.0000000000000000e+00  2.6325401451731626e-04 3.2172007536614973e-03 0.0000000000000000e+00  2.6338473146372311e-04 3.2289017254235274e-03 0.0000000000000000e+00  2.6351467716910428e-04 3.2406190420014910e-03 0.0000000000000000e+00  2.6364060625734998e-04 3.2523644582246871e-03 0.0000000000000000e+00  2.6376401893864117e-04 3.2641784062379907e-03 0.0000000000000000e+00  2.6389577182678396e-04 3.2760583668348889e-03 0.0000000000000000e+00  2.6404582388783157e-04 3.2879930834127237e-03 0.0000000000000000e+00  2.6413812532186006e-04 3.2999080669232923e-03 0.0000000000000000e+00  2.6453899003392342e-04 3.3121217220244228e-03 0.0000000000000000e+00  2.6489244350725178e-04 3.3243332217307736e-03 0.0000000000000000e+00  2.6521961145135984e-04 3.3365643098576406e-03 0.0000000000000000e+00  2.6553021213722721e-04 3.3488150992421004e-03 0.0000000000000000e+00  2.6582492632190753e-04 3.3610969113029208e-03 0.0000000000000000e+00  2.6610178249299795e-04 3.3734080507451885e-03 0.0000000000000000e+00  2.6636039460022710e-04 3.3857414840037514e-03 0.0000000000000000e+00  2.6660147179456109e-04 3.3980918119495972e-03 0.0000000000000000e+00  2.4773636065544998e-04 2.9706650180013460e-03 0.0000000000000000e+00  2.4728254142001812e-04 2.9599150552968930e-03 0.0000000000000000e+00  2.4816241253890713e-04 2.9814282583201859e-03 0.0000000000000000e+00  2.4856252676664205e-04 2.9922152533888059e-03 0.0000000000000000e+00  2.4894028210216109e-04 3.0030571674248357e-03 0.0000000000000000e+00  2.4931337880763140e-04 3.0140206014022488e-03 0.0000000000000000e+00  2.4969106935830736e-04 3.0249141587386317e-03 0.0000000000000000e+00  2.5001473851897184e-04 3.0357764559732939e-03 0.0000000000000000e+00  2.5029239412728441e-04 3.0466860182376582e-03 0.0000000000000000e+00  2.5052416849827898e-04 3.0576466667124134e-03 0.0000000000000000e+00  2.5074631980396303e-04 3.0687530820685226e-03 0.0000000000000000e+00  2.5076494986986560e-04 3.0796577784607680e-03 0.0000000000000000e+00  2.5081022775804996e-04 3.0907552846458006e-03 0.0000000000000000e+00  2.5086511833101401e-04 3.1019704564283291e-03 0.0000000000000000e+00  2.5092318747407366e-04 3.1132663865233458e-03 0.0000000000000000e+00  2.5098401560008849e-04 3.1246261764282411e-03 0.0000000000000000e+00  2.5104875697393040e-04 3.1360405554790275e-03 0.0000000000000000e+00  2.5111886456847648e-04 3.1475042437806217e-03 0.0000000000000000e+00  2.5119551174337777e-04 3.1590141450740148e-03 0.0000000000000000e+00  2.5127922339380490e-04 3.1705681448558729e-03 0.0000000000000000e+00  2.5136950584247282e-04 3.1821643144223986e-03 0.0000000000000000e+00  2.5146570187705949e-04 3.1937981217933656e-03 0.0000000000000000e+00  2.5156736042951264e-04 3.2054637468887839e-03 0.0000000000000000e+00  2.5167385101067903e-04 3.2171558868931589e-03 0.0000000000000000e+00  2.5178378763260285e-04 3.2288714885116317e-03 0.0000000000000000e+00  2.5189476836750879e-04 3.2406121191999194e-03 0.0000000000000000e+00  2.5200433745085026e-04 3.2523873174349262e-03 0.0000000000000000e+00  2.5211342119836914e-04 3.2642168477987287e-03 0.0000000000000000e+00  2.5222887703995575e-04 3.2761020061349007e-03 0.0000000000000000e+00  2.5235385709697594e-04 3.2880356844141945e-03 0.0000000000000000e+00  2.5248224079641444e-04 3.2999983693390053e-03 0.0000000000000000e+00  2.5260971360115017e-04 3.3120138967197986e-03 0.0000000000000000e+00  2.5292755422285626e-04 3.3242407877739945e-03 0.0000000000000000e+00  2.5321589803435157e-04 3.3364776921687043e-03 0.0000000000000000e+00  2.5349239560045362e-04 3.3487232784908528e-03 0.0000000000000000e+00  2.5375752513070380e-04 3.3610081515404386e-03 0.0000000000000000e+00  2.5400697346481389e-04 3.3733275044896876e-03 0.0000000000000000e+00  2.5424022112444951e-04 3.3856689481114076e-03 0.0000000000000000e+00  2.5445834826480788e-04 3.3980258786637154e-03 0.0000000000000000e+00  2.5466254786632892e-04 3.4103946992092783e-03 0.0000000000000000e+00  2.3647688798636023e-04 2.9698739924134765e-03 0.0000000000000000e+00  2.3692048420040127e-04 2.9806901402314057e-03 0.0000000000000000e+00  2.3733477118909296e-04 2.9915321183259509e-03 0.0000000000000000e+00  2.3772181945720534e-04 3.0024191231378264e-03 0.0000000000000000e+00  2.3809147864066013e-04 3.0133698341102983e-03 0.0000000000000000e+00  2.3845277497059470e-04 3.0243098341633523e-03 0.0000000000000000e+00  2.3877845625849890e-04 3.0352535434259391e-03 0.0000000000000000e+00  2.3906024326209062e-04 3.0462339214079224e-03 0.0000000000000000e+00  2.3930258759450806e-04 3.0572719747850876e-03 0.0000000000000000e+00  2.3950017201747315e-04 3.0683593853221142e-03 0.0000000000000000e+00  2.3957093010029042e-04 3.0795224831162062e-03 0.0000000000000000e+00  2.3959431018831564e-04 3.0906670108359468e-03 0.0000000000000000e+00  2.3961134357106660e-04 3.1019093290104217e-03 0.0000000000000000e+00  2.3962790152393625e-04 3.1132220510289217e-03 0.0000000000000000e+00  2.3964685679156135e-04 3.1245906035418354e-03 0.0000000000000000e+00  2.3967072923446764e-04 3.1360073369004530e-03 0.0000000000000000e+00  2.3970170294711080e-04 3.1474687369803379e-03 0.0000000000000000e+