<?xml version="1.0"?>
<VTKFile type="UnstructuredGrid"  version="0.1"  >
<UnstructuredGrid>
<Piece  NumberOfPoints="2345" NumberOfCells="4492">
<Points>
<DataArray  type="Float64"  NumberOfComponents="3"  format="ascii">0.7021739130434783 0 0  0.7104347826086956 0 0  0.7104347826086956 0.008333333333333333 0  0.7021739130434783 0.008333333333333333 0  0.718695652173913 0 0  0.718695652173913 0.008333333333333333 0  0.7269565217391304 0 0  0.7269565217391304 0.008333333333333333 0  0.7352173913043478 0 0  0.7352173913043478 0.008333333333333333 0  0.7434782608695653 0 0  0.7434782608695653 0.008333333333333333 0  0.7517391304347827 0 0  0.7517391304347827 0.008333333333333333 0  0.7599999999999999 0 0  0.7599999999999999 0.008333333333333333 0  0.7682608695652173 0 0  0.7682608695652173 0.008333333333333333 0  0.7765217391304348 0 0  0.7765217391304348 0.008333333333333333 0  0.7847826086956522 0 0  0.7847826086956522 0.008333333333333333 0  0.7930434782608695 0 0  0.7930434782608695 0.008333333333333333 0  0.8013043478260868 0 0  0.8013043478260868 0.008333333333333333 0  0.8095652173913043 0 0  0.8095652173913043 0.008333333333333333 0  0.8178260869565217 0 0  0.8178260869565217 0.008333333333333333 0  0.8260869565217391 0 0  0.8260869565217391 0.008333333333333333 0  0.8343478260869565 0 0  0.8343478260869565 0.008333333333333333 0  0.8426086956521739 0 0  0.8426086956521739 0.008333333333333333 0  0.8508695652173912 0 0  0.8508695652173912 0.008333333333333333 0  0.8591304347826086 0 0  0.8591304347826086 0.008333333333333333 0  0.8673913043478261 0 0  0.8673913043478261 0.008333333333333333 0  0.8756521739130434 0 0  0.8756521739130434 0.008333333333333333 0  0.8839130434782608 0 0  0.8839130434782608 0.008333333333333333 0  0.8921739130434783 0 0  0.8921739130434783 0.008333333333333333 0  0.9004347826086956 0 0  0.9004347826086956 0.008333333333333333 0  0.908695652173913 0 0  0.908695652173913 0.008333333333333333 0  0.9169565217391303 0 0  0.9169565217391303 0.008333333333333333 0  0.9252173913043478 0 0  0.9252173913043478 0.008333333333333333 0  0.9334782608695652 0 0  0.9334782608695652 0.008333333333333333 0  0.9417391304347826 0 0  0.9417391304347826 0.008333333333333333 0  0.95 0 0  0.95 0.008333333333333333 0  0.9582608695652173 0 0  0.9582608695652173 0.008333333333333333 0  0.9665217391304347 0 0  0.9665217391304347 0.008333333333333333 0  0.9747826086956521 0 0  0.9747826086956521 0.008333333333333333 0  0.9830434782608696 0 0  0.9830434782608696 0.008333333333333333 0  0.991304347826087 0 0  0.991304347826087 0.008333333333333333 0  0.9995652173913042 0 0  0.9995652173913042 0.008333333333333333 0  1.007826086956522 0 0  1.007826086956522 0.008333333333333333 0  1.016086956521739 0 0  1.016086956521739 0.008333333333333333 0  0.7104347826086956 0.01666666666666667 0  0.7021739130434783 0.01666666666666667 0  0.718695652173913 0.01666666666666667 0  0.7269565217391304 0.01666666666666667 0  0.7352173913043478 0.01666666666666667 0  0.7434782608695653 0.01666666666666667 0  0.7517391304347827 0.01666666666666667 0  0.7599999999999999 0.01666666666666667 0  0.7682608695652173 0.01666666666666667 0  0.7765217391304348 0.01666666666666667 0  0.7847826086956522 0.01666666666666667 0  0.7930434782608695 0.01666666666666667 0  0.8013043478260868 0.01666666666666667 0  0.8095652173913043 0.01666666666666667 0  0.8178260869565217 0.01666666666666667 0  0.8260869565217391 0.01666666666666667 0  0.8343478260869565 0.01666666666666667 0  0.8426086956521739 0.01666666666666667 0  0.8508695652173912 0.01666666666666667 0  0.8591304347826086 0.01666666666666667 0  0.8673913043478261 0.01666666666666667 0  0.8756521739130434 0.01666666666666667 0  0.8839130434782608 0.01666666666666667 0  0.8921739130434783 0.01666666666666667 0  0.9004347826086956 0.01666666666666667 0  0.908695652173913 0.01666666666666667 0  0.9169565217391303 0.01666666666666667 0  0.9252173913043478 0.01666666666666667 0  0.9334782608695652 0.01666666666666667 0  0.9417391304347826 0.01666666666666667 0  0.95 0.01666666666666667 0  0.9582608695652173 0.01666666666666667 0  0.9665217391304347 0.01666666666666667 0  0.9747826086956521 0.01666666666666667 0  0.9830434782608696 0.01666666666666667 0  0.991304347826087 0.01666666666666667 0  0.9995652173913042 0.01666666666666667 0  1.007826086956522 0.01666666666666667 0  1.016086956521739 0.01666666666666667 0  1.024347826086957 0.01666666666666667 0  0.7104347826086956 0.025 0  0.718695652173913 0.025 0  0.7269565217391304 0.025 0  0.7352173913043478 0.025 0  0.7434782608695653 0.025 0  0.7517391304347827 0.025 0  0.7599999999999999 0.025 0  0.7682608695652173 0.025 0  0.7765217391304348 0.025 0  0.7847826086956522 0.025 0  0.7930434782608695 0.025 0  0.8013043478260868 0.025 0  0.8095652173913043 0.025 0  0.8178260869565217 0.025 0  0.8260869565217391 0.025 0  0.8343478260869565 0.025 0  0.8426086956521739 0.025 0  0.8508695652173912 0.025 0  0.8591304347826086 0.025 0  0.8673913043478261 0.025 0  0.8756521739130434 0.025 0  0.8839130434782608 0.025 0  0.8921739130434783 0.025 0  0.9004347826086956 0.025 0  0.908695652173913 0.025 0  0.9169565217391303 0.025 0  0.9252173913043478 0.025 0  0.9334782608695652 0.025 0  0.9417391304347826 0.025 0  0.95 0.025 0  0.9582608695652173 0.025 0  0.9665217391304347 0.025 0  0.9747826086956521 0.025 0  0.9830434782608696 0.025 0  0.991304347826087 0.025 0  0.9995652173913042 0.025 0  1.007826086956522 0.025 0  1.016086956521739 0.025 0  1.024347826086957 0.025 0  1.032608695652174 0.025 0  0.718695652173913 0.03333333333333333 0  0.7269565217391304 0.03333333333333333 0  0.7352173913043478 0.03333333333333333 0  0.7434782608695653 0.03333333333333333 0  0.7517391304347827 0.03333333333333333 0  0.7599999999999999 0.03333333333333333 0  0.7682608695652173 0.03333333333333333 0  0.7765217391304348 0.03333333333333333 0  0.7847826086956522 0.03333333333333333 0  0.7930434782608695 0.03333333333333333 0  0.8013043478260868 0.03333333333333333 0  0.8095652173913043 0.03333333333333333 0  0.8178260869565217 0.03333333333333333 0  0.8260869565217391 0.03333333333333333 0  0.8343478260869565 0.03333333333333333 0  0.8426086956521739 0.03333333333333333 0  0.8508695652173912 0.03333333333333333 0  0.8591304347826086 0.03333333333333333 0  0.8673913043478261 0.03333333333333333 0  0.8756521739130434 0.03333333333333333 0  0.8839130434782608 0.03333333333333333 0  0.8921739130434783 0.03333333333333333 0  0.9004347826086956 0.03333333333333333 0  0.908695652173913 0.03333333333333333 0  0.9169565217391303 0.03333333333333333 0  0.9252173913043478 0.03333333333333333 0  0.9334782608695652 0.03333333333333333 0  0.9417391304347826 0.03333333333333333 0  0.95 0.03333333333333333 0  0.9582608695652173 0.03333333333333333 0  0.9665217391304347 0.03333333333333333 0  0.9747826086956521 0.03333333333333333 0  0.9830434782608696 0.03333333333333333 0  0.991304347826087 0.03333333333333333 0  0.9995652173913042 0.03333333333333333 0  1.007826086956522 0.03333333333333333 0  1.016086956521739 0.03333333333333333 0  1.024347826086957 0.03333333333333333 0  1.032608695652174 0.03333333333333333 0  1.040869565217391 0.03333333333333333 0  0.7269565217391304 0.04166666666666666 0  0.7352173913043478 0.04166666666666666 0  0.7434782608695653 0.04166666666666666 0  0.7517391304347827 0.04166666666666666 0  0.7599999999999999 0.04166666666666666 0  0.7682608695652173 0.04166666666666666 0  0.7765217391304348 0.04166666666666666 0  0.7847826086956522 0.04166666666666666 0  0.7930434782608695 0.04166666666666666 0  0.8013043478260868 0.04166666666666666 0  0.8095652173913043 0.04166666666666666 0  0.8178260869565217 0.04166666666666666 0  0.8260869565217391 0.04166666666666666 0  0.8343478260869565 0.04166666666666666 0  0.8426086956521739 0.04166666666666666 0  0.8508695652173912 0.04166666666666666 0  0.8591304347826086 0.04166666666666666 0  0.8673913043478261 0.04166666666666666 0  0.8756521739130434 0.04166666666666666 0  0.8839130434782608 0.04166666666666666 0  0.8921739130434783 0.04166666666666666 0  0.9004347826086956 0.04166666666666666 0  0.908695652173913 0.04166666666666666 0  0.9169565217391303 0.04166666666666666 0  0.9252173913043478 0.04166666666666666 0  0.9334782608695652 0.04166666666666666 0  0.9417391304347826 0.04166666666666666 0  0.95 0.04166666666666666 0  0.9582608695652173 0.04166666666666666 0  0.9665217391304347 0.04166666666666666 0  0.9747826086956521 0.04166666666666666 0  0.9830434782608696 0.04166666666666666 0  0.991304347826087 0.04166666666666666 0  0.9995652173913042 0.04166666666666666 0  1.007826086956522 0.04166666666666666 0  1.016086956521739 0.04166666666666666 0  1.024347826086957 0.04166666666666666 0  1.032608695652174 0.04166666666666666 0  1.040869565217391 0.04166666666666666 0  1.049130434782609 0.04166666666666666 0  0.7352173913043478 0.05 0  0.7434782608695653 0.05 0  0.7517391304347827 0.05 0  0.7599999999999999 0.05 0  0.7682608695652173 0.05 0  0.7765217391304348 0.05 0  0.7847826086956522 0.05 0  0.7930434782608695 0.05 0  0.8013043478260868 0.05 0  0.8095652173913043 0.05 0  0.8178260869565217 0.05 0  0.8260869565217391 0.05 0  0.8343478260869565 0.05 0  0.8426086956521739 0.05 0  0.8508695652173912 0.05 0  0.8591304347826086 0.05 0  0.8673913043478261 0.05 0  0.8756521739130434 0.05 0  0.8839130434782608 0.05 0  0.8921739130434783 0.05 0  0.9004347826086956 0.05 0  0.908695652173913 0.05 0  0.9169565217391303 0.05 0  0.9252173913043478 0.05 0  0.9334782608695652 0.05 0  0.9417391304347826 0.05 0  0.95 0.05 0  0.9582608695652173 0.05 0  0.9665217391304347 0.05 0  0.9747826086956521 0.05 0  0.9830434782608696 0.05 0  0.991304347826087 0.05 0  0.9995652173913042 0.05 0  1.007826086956522 0.05 0  1.016086956521739 0.05 0  1.024347826086957 0.05 0  1.032608695652174 0.05 0  1.040869565217391 0.05 0  1.049130434782609 0.05 0  1.057391304347826 0.05 0  0.7434782608695653 0.05833333333333333 0  0.7517391304347827 0.0583333333
[...]
<CellData  Scalars="sigma_m"> 
<DataArray  type="Float64"  Name="sigma_m"  format="ascii">8.3383926587864617e+06   9.7396016607971024e+06   8.3624346648819316e+06   9.7489295010701604e+06   8.3864082990236050e+06   9.7582469750974718e+06   8.4103253635932766e+06   9.7675544717337713e+06   8.4341927627277225e+06   9.7768516840684209e+06   8.4580141231399439e+06   9.7861380196504612e+06   8.4817914061411712e+06   9.7954129206204116e+06   8.5055260822961740e+06   9.8046759363703690e+06   8.5292200524830148e+06   9.8139269810274877e+06   8.5528758769034091e+06   9.8231662958781738e+06   8.5764965063166488e+06   9.8323943581965379e+06   8.6000846373537984e+06   9.8416116635587644e+06   8.6236421294723004e+06   9.8508187494805958e+06   8.6471691136484612e+06   9.8600158187562060e+06   8.6706636243175548e+06   9.8692026571444441e+06   8.6941218185486048e+06   9.8783783962013684e+06   8.7175396212846804e+06   9.8875418406828642e+06   8.7409152403785363e+06   9.8966916440987680e+06   8.7642528331799917e+06   9.9058278084080257e+06   8.7875640444231946e+06   9.9149529073865023e+06   8.8108643155544233e+06   9.9240714284571521e+06   8.8341644366962519e+06   9.9331862952349111e+06   8.8574652073244229e+06   9.9422973969998937e+06   8.8807581853884719e+06   9.9514022551545538e+06   8.9040307408945058e+06   9.9604980732576605e+06   8.9272705149037987e+06   9.9695827616892792e+06   8.9504675832712017e+06   9.9786554406269938e+06   8.9736134469864909e+06   9.9877156641642079e+06   8.9966991084690765e+06   9.9967632458746620e+06   9.0197122099682260e+06   1.0005797612003572e+07   9.0426344806626495e+06   1.0014817426533625e+07   9.0654397245383263e+06   1.0023818965288725e+07   9.0880967686040066e+06   1.0032795495620826e+07   9.1105800348272044e+06   1.0041738027736852e+07   9.1328890478535276e+06   1.0050640517228711e+07   9.1550673360986467e+06   1.0059506564969499e+07   9.1772071180888303e+06   1.0068353943229692e+07   9.1994276649066992e+06   1.0077208404772656e+07   9.8307441546532735e+06   1.1234722551321616e+07   9.8391328118719906e+06   1.1228353081560258e+07   9.8475137799052522e+06   1.1222037257665053e+07   9.8558870732229408e+06   1.1215762566401446e+07   9.8642521320657637e+06   1.1209520480792331e+07   9.8726081314163134e+06   1.1203305526380047e+07   9.8809543198453411e+06   1.1197114238255182e+07   9.8892900320888311e+06   1.1190943959048824e+07   9.8976150504914802e+06   1.1184792471052153e+07   9.9059295351682007e+06   1.1178657679843694e+07   9.9142339609482456e+06   1.1172537741726788e+07   9.9225288722358495e+06   1.1166430996812558e+07   9.9308149918243308e+06   1.1160336733011086e+07   9.9390926699744780e+06   1.1154255101363637e+07   9.9473617831605077e+06   1.1148187443391899e+07   9.9556212718054913e+06   1.1142135361493509e+07   9.9638694941094350e+06   1.1136100221450916e+07   9.9721042667968776e+06   1.1130080880847380e+07   9.9803250148480292e+06   1.1124073222318849e+07   9.9885344877441768e+06   1.1118071039059749e+07   9.9967380329249892e+06   1.1112068930825163e+07   1.0004939050582333e+07   1.1106062520004367e+07   1.0013137540402187e+07   1.1100050457531998e+07   1.0021330965120887e+07   1.1094035371023066e+07   1.0029516768209759e+07   1.1088024034719013e+07   1.0037693327588052e+07   1.1082024946255794e+07   1.0045860582706366e+07   1.1076047367198953e+07   1.0054018956785997e+07   1.1070099988030704e+07   1.0062169432565421e+07   1.1064192438738910e+07   1.0070312686724206e+07   1.1058336146663336e+07   1.0078448612911729e+07   1.1052546270258065e+07   1.0086573652964018e+07   1.1046839794023365e+07   1.0094679542031445e+07   1.1041231984016722e+07   1.0102753510788744e+07   1.1035727590272097e+07   1.0110784888109159e+07   1.1030313540450094e+07   1.0118773641353134e+07   1.1024953746790815e+07   1.0126736700806538e+07   1.1019594555083642e+07   1.0134699986018810e+07   1.1014172270129319e+07   1.1008623128984304e+07   1.1325092969431167e+07   1.1317778032275723e+07   1.2706909837202156e+07   1.1310519309327591e+07   1.2684986838647531e+07   1.1303303760981916e+07   1.2663144533927957e+07   1.1296122755793996e+07   1.2641370079386741e+07   1.1288970705125419e+07   1.2619656619877674e+07   1.1281844099975942e+07   1.2598000630984528e+07   1.1274740096475108e+07   1.2576398983419068e+07   1.1267656379359897e+07   1.2554848313352792e+07   1.1260590732580172e+07   1.2533343431459198e+07   1.1253541284144998e+07   1.2511879213448578e+07   1.1246506278373972e+07   1.2490450936353818e+07   1.1239485192129994e+07   1.2469055238827266e+07   1.1232478240023039e+07   1.2447691158581318e+07   1.1225487003342746e+07   1.2426361871455505e+07   1.1218512979826966e+07   1.2405074053634837e+07   1.1211557496695641e+07   1.2383835808859635e+07   1.1204618649763389e+07   1.2362652662476255e+07   1.1197691690309489e+07   1.2341521896072563e+07   1.1190770130230976e+07   1.2320424607388271e+07   1.1183849213327689e+07   1.2299328832039213e+07   1.1176924437248386e+07   1.2278208386571683e+07   1.1169994537249546e+07   1.2257060029532051e+07   1.1163062317828687e+07   1.2235901546965338e+07   1.1156135412467638e+07   1.2214759995841615e+07   1.1149222972294345e+07   1.2193660137170769e+07   1.1142335277940514e+07   1.2172620220139755e+07   1.1135481551142672e+07   1.2151654010007223e+07   1.1128672478726272e+07   1.2130775910901876e+07   1.1121920405175991e+07   1.2110004675482867e+07   1.1115242035393368e+07   1.2089367614384852e+07   1.1108654954503516e+07   1.2068904459524773e+07   1.1102174228373708e+07   1.2048667478772292e+07   1.1095801839785334e+07   1.2028708151803225e+07   1.1089520873307813e+07   1.2009045947579009e+07   1.1083290489182524e+07   1.1989626046501970e+07   1.1077054519415248e+07   1.1970294320998996e+07   1.1070746699665051e+07   1.1950824766040556e+07   1.1064300128474226e+07   1.1931001253308237e+07   1.1910688400194617e+07   1.1592777194244640e+07   1.1572494050061334e+07   1.0096595718072392e+07   1.1552275237362081e+07   1.0069854929793267e+07   1.1532111683079217e+07   1.0043039335832916e+07   1.1511999548637707e+07   1.0016172757870924e+07   1.1491937435004404e+07   9.9892777186652329e+06   1.1471924333655396e+07   9.9623585744097475e+06   1.1451958344781363e+07   9.9354330482117329e+06   1.1432035649141654e+07   9.9085031718400996e+06   1.1412151518590378e+07   9.8815790419790577e+06   1.1392301378711617e+07   9.8546622912749257e+06   1.1372481363345558e+07   9.8277682148793843e+06   1.1352689999229845e+07   9.8008819196485858e+06   1.1332929290880432e+07   9.7740090415108204e+06   1.1313205172940269e+07   9.7471325078426674e+06   1.1293525092599716e+07   9.7202720919469353e+06   1.1273895455863379e+07   9.6934275152200367e+06   1.1254315042894917e+07   9.6666713664577417e+06   1.1234767448800258e+07   9.6400441281269118e+06   1.1215222324709721e+07   9.6135462324522901e+06   1.1195654439695433e+07   9.5870879804289266e+06   1.1176059125493146e+07   9.5606997462344971e+06   1.1156452144044794e+07   9.5344076432209034e+06   1.1136857845913647e+07   9.5082398031498119e+06   1.1117299121908009e+07   9.4821354556597807e+06   1.1097792099445373e+07   9.4560424107593335e+06   1.1078349083442420e+07   9.4298507378952522e+06   1.1058981980451353e+07   9.4035056710233781e+06   1.1039707007059714e+07   9.3768938993477784e+06   1.1020547529395029e+07   9.3499266642023232e+06   1.1001539970820021e+07   9.3224403266459331e+06   1.0982733827019285e+07   9.2943686683419254e+06   1.0964182053274300e+07   9.2657030200400036e+06   1.0945909511953257e+07   9.2366833943110332e+06   1.0927872520392133e+07   9.2076186427351497e+06   1.0909930044965634e+07   9.1788906622908264e+06   1.0891871909577144e+07   9.1506290534868836e+06   1.0873495635665976e+07   9.1230197070590481e+06   1.0854675113979604e+07   9.0963904516693521e+06   9.0712416184440665e+06   3.6735059179238523e-07   3.5223928402388514e-07   0.0000000000000000e+00   3.2552804091039791e-07   0.0000000000000000e+00   2.9443311418164488e-07   0.0000000000000000e+00   2.5898625721048842e-07   0.0000000000000000e+00   2.3038424226899486e-07   0.0000000000000000e+00   2.0135073333888989e-07   0.0000000000000000e+00   1.7570584902753077e-07   0.0000000000000000e+00   1.5354840144181426e-07   0.0000000000000000e+00   1.3870534985579904e-07   0.0000000000000000e+00   1.2373838439142529e-07   0.0000000000000000e+00   1.1243226449536159e-07   0.0000000000000000e+00   1.0480877664346018e-07   0.0000000000000000e+00   9.7136709392274915e-08   0.0000000000000000e+00   8.9433714606930394e-08   0.0000000000000000e+00   7.8002246311815187e-08   0.0000000000000000e+00   7.0301466928022226e-08   0.0000000000000000e+00   6.6303706881489283e-08   0.0000000000000000e+00   5.8637688861266157e-08   0.0000000000000000e+00   5.8305617090756291e-08   0.0000000000000000e+00   5.7941632392492733e-08   0.0000000000000000e+00   5.7546927591238082e-08   0.0000000000000000e+00   5.7122635089614743e-08   0.0000000000000000e+00   5.6669802498213815e-08   0.0000000000000000e+00   5.6189410904083302e-08   0.0000000000000000e+00   4.8722086975494214e-08   0.0000000000000000e+00   4.8255918726730154e-08   0.0000000000000000e+00   4.4355988251388513e-08   0.0000000000000000e+00   4.0507750283060101e-08   0.0000000000000000e+00   3.6716290494953117e-08   0.0000000000000000e+00   2.9687835507994757e-08   0.0000000000000000e+00   2.6064859058547662e-08   0.0000000000000000e+00   1.9297588768372570e-08   0.0000000000000000e+00   1.5865757405393098e-08   0.0000000000000000e+00   1.2515150397086857e-08   0.0000000000000000e+00   1.2332767178552840e-08   0.0000000000000000e+00   1.2145589038931632e-08   0.0000000000000000e+00   1.1953823642993944e-08   0.0000000000000000e+00   1.1757721674340251e-08   0.0000000000000000e+00   0.0000000000000000e+00   0.0000000000000000e+00   0.0000000000000000e+00   0.0000000000000000e+00   0.0000000000000000e+00   0.0000000000000000e+00   0.0000000000000000e+00   0.0000000000000000e+00   0.0000000000000000e+00   0.0000000000000000e+00   0.0000000000000000e+00   0.0000000000000000e+00   0.0000000000000000e+00   0.0000000000000000e+00   0.0000000000000000e+00   0.0000000000000000e+00   0.0000000000000000e+00   0.0000000000000000e+00   0.0000000000000000e+00   0.0000000000000000e+00   0.0000000000000000e+00   0.0000000000000000e+00   0.0000000000000000e+00   0.0000000000000000e+00   0.0000000000000000e+00   0.0000000000000000e+00   0.0000000000000000e+00   0.0000000000000000e+00   0.0000000000000000e+00   0.0000000000000000e+00   0.0000000000000000e+00   0.0000000000000000e+00   0.0000000000000000e+00   0.0000000000000000e+00   0.0000000000000000e+00   0.0000000000000000e+00   0.0000000000000000e+00   0.0000000000000000e+00   0.0000000000000000e+00   0.0000000000000000e+00   0.0000000000000000e+00   0.0000000000000000e+00   0.0000000000000000e+00   0.0000000000000000e+00   0.0000000000000000e+00   0.0000000000000000e+00   0.0000000000000000e+00   0.0000000000000000e+00   0.0000000000000000e+00   0.0000000000000000e+00   0.0000000000000000e+00   0.0000000000000000e+00   0.0000000000000000e+00   0.0000000000000000e+00   0.0000000000000000e+00   0.0000000000000000e+00   0.0000000000000000e+00   0.0000000000000000e+00   0.0000000000000000e+00   0.0000000000000000e+00   0.0000000000000000e+00   0.0000000000000000e+00   0.0000000000000000e+00   0.0000000000000000e+00   0.0000000000000000e+00   0.0000000000000000e+00   0.0000000000000000e+00   0.0000000000000000e+00   0.0000000000000000e+00   0.0000000000000000e+00   0.0000000000000000e+00   0.0000000000000000e+00   0.0000000000000000e+00   0.0000000000000000e+00   0.0000000000000000e+00   0.0000000000000000e+00   0.0000000000000000e+00   0.0000000000000000e+00   0.0000000000000000e+00   0.0000000000000000e+00   0.0000000000000000e+00   0.0000000000000000e+00   0.0000000000000000e+00   0.0000000000000000e+00   0.0000000000000000e+00   0.0000000000000000e+00   0.0000000000000000e+00   0.0000000000000000e+00   0.0000000000000000e+00   0.0000000000000000e+00   0.0000000000000000e+00   0.0000000000000000e+00   0.0000000000000000e+00   0.0000000000000000e+00   0.0000000000000000e+00   0.0000000000000000e+00   0.0000000000000000e+00   0.0000000000000000e+00   0.0000000000000000e+00   0.0000000000000000e+00   0.0000000000000000e+00   0.0000000000000000e+00   0.0000000000000000e+00   0.0000000000000000e+00   0.0000000000000000e+00   0.0000000000000000e+00   0.0000000000000000e+00   0.0000000000000000e+00   0.0000000000000000e+00   0.0000000000000000e+00   0.0000000000000000e+00   0.0000000000000000e+00   0.0000000000000000e+00   0.0000000000000000e+00   0.0000000000000000e+00   0.0000000000000000e+00   0.0000000000000000e+00   0.0000000000000000e+00   0.0000000000000000e+00   0.0000000000000000e+00   0.0000000000000000e+00   0.0000000000000000e+00   0.0000000000000000e+00   0.0000000000000000e+00   0.0000000000000000e+00   0.0000000000000000e+00   0.0000000000000000e+00   0.0000000000000000e+00   0.0000000000000000e+00   0.0000000000000000e+00   0.0000000000000000e+00   0.0000000000000000e+00   0.0000000000000000e+00   0.0000000000000000e+00   0.0000000000000000e+00   0.0000000000000000e+00   0.0000000000000000e+00   0.0000000000000000e+00   0.0000000000000000e+00   0.0000000000000000e+00   0.0000000000000000e+00   0.0000000000000000e+00   0.0000000000000000e+00   0.0000000000000000e+00   0.0000000000000000e+00   0.0000000000000000e+00   0.0000000000000000e+00   0.0000000000000000e+00   0.0000000000000000e+00   0.0000000000000000e+00   0.0000000000000000e+00   0.0000000000000000e+00   0.0000000000000000e+00   0.0000000000000000e+00   0.0000000000000000e+00   0.0000000000000000e+00   0.0000000000000000e+00   0.0000000000000000e+00   0.0000000000000000e+00   0.0000000000000000e+00   0.0000000000000000e+00   0.0000000000000000e+00   0.0000000000000000e+00   0.0000000000000000e+00   0.0000000000000000e+00   0.0000000000000000e+00   0.0000000000000000e+00   0.0000000000000000e+00   0.0000000000000000e+00   0.0000000000000000e+00   0.0000000000000000e+00   0.0000000000000000e+00   0.0000000000000000e+00   0.0000000000000000e+00   0.0000000000000000e+00   0.0000000000000000e+00   0.0000000000000000e+00   0.0000000000000000e+00   0.0000000000000000e+00   0.0000000000000000e+00   0.0000000000000000e+00   0.0000000000000000e+00   0.0000000000000000e+00   0.0000000000000000e+00   0.0000000000000000e+00   0.0000000000000000e+00   0.0000000000000000e+00   0.0000000000000000e+00   0.0000000000000000e+00   0.0000000000000000e+00   0.0000000000000000e+00   0.0000000000000000e+00   0.0000000000000000e+00   0.0000000000000000e+00   0.0000000000000000e+00   0.0000000000000000e+00   0.0000000000000000e+00   0.0000000000000000e+00   0.0000000000000000e+00   0.0000000000000000e+00   0.0000000000000000e+00   0.0000000000000000e+00   0.0000000000000000e+00   0.0000000000000000e+00   0.0000000000000000e+00   0.0000000000000000e+00   0.0000000000000000e+00   0.0000000000000000e+00   0.0000000000000000e+00   0.0000000000000000e+00   0.0000000000000000e+00   0.0000000000000000e+00   0.0000000000000000e+00   0.0000000000000000e+00   0.0000000000000000e+00   0.0000000000000000e+00   0.0000000000000000e+00   0.0000000000000000e+00   0.0000000000000000e+00   0.0000000000000000e+00   0.0000000000000000e+00   0.0000000000000000e+00   0.0000000000000000e+00   0.0000000000000000e+00   0.0000000000000000e+00   0.0000000000000000e+00   0.0000000000000000e+00   0.0000000000000000e+00   0.0000000000000000e+00   0.0000000000000000e+00   0.0000000000000000e+00   0.0000000000000000e+00   0.0000000000000000e+00   0.0000000000000000e+00   0.0000000000000000e+00   0.0000000000000000e+00   0.0000000000000000e+00   0.0000000000000000e+00   0.0000000000000000e+00   0.0000000000000000e+00   0.0000000000000000e+00   0.0000000000000000e+00   0.0000000000000000e+00   0.0000000000000000e+00   0.0000000000000000e+00   0.0000000000000000e+00   0.0000000000000000e+00   0.0000000000000000e+00   0.0000000000000000e+00   0.0000000000000000e+00   0.0000000000000000e+00   0.0000000000000000e+00   0.0000000000000000e+00   0.0000000000000000e+00   0.0000000000000000e+00   0.0000000000000000e+00   0.0000000000000000e+00   0.0000000000000000e+00   0.0000000000000000e+00   0.0000000000000000e+00   0.0000000000000000e+00   0.0000000000000000e+00   0.0000000000000000e+00   0.0000000000000000e+00   0.0000000000000000e+00   0.0000000000000000e+00   0.0000000000000000e+00   0.0000000000000000e+00   0.0000000000000000e+00   0.0000000000000000e+00   0.0000000000000000e+00   0.0000000000000000e+00   0.0000000000000000e+00   0.0000000000000000e+00   0.0000000000000000e+00   0.0000000000000000e+00   0.0000000000000000e+00   0.0000000000000000e+00   0.0000000000000000e+00   0.0000000000000000e+00   0.0000000000000000e+00   0.0000000000000000e+00   0.0000000000000000e+00   0.0000000000000000e+00   0.0000000000000000e+00   0.0000000000000000e+00   0.0000000000000000e+00   0.0000000000000000e+00   0.0000000000000000e+00   0.0000000000000000e+00   0.0000000000000000e+00   0.0000000000000000e+00   0.0000000000000000e+00   0.0000000000000000e+00   0.0000000000000000e+00   0.0000000000000000e+00   0.0000000000000000e+00   0.0000000000000000e+00   0.0000000000000000e+00   0.0000000000000000e+00   0.0000000000000000e+00   0.0000000000000000e+00   0.0000000000000000e+00   0.0000000000000000e+00   0.0000000000000000e+00   0.0000000000000000e+00   0.0000000000000000e+00   0.0000000000000000e+00   0.0000000000000000e+00   0.0000000000000000e+00   0.0000000000000000e+00   0.0000000000000000e+00   0.0000000000000000e+00   0.0000000000000000e+00   0.0000000000000000e+00   0.0000000000000000e+00   0.0000000000000000e+00   0.0000000000000000e+00   0.0000000000000000e+00   0.0000000000000000e+00   0.0000000000000000e+00   0.0000000000000000e+00   0.0000000000000000e+00   0.0000000000000000e+00   0.0000000000000000e+00   0.0000000000000000e+00   0.0000000000000000e+00   0.0000000000000000e+00   0.0000000000000000e+00   0.0000000000000000e+00   0.0000000000000000e+00   0.0000000000000000e+00   0.0000000000000000e+00   0.0000000000000000e+00   0.0000000000000000e+00   0.0000000000000000e+00   0.0000000000000000e+00   0.0000000000000000e+00   0.0000000000000000e+00   0.0000000000000000e+00   0.0000000000000000e+00   0.0000000000000000e+00   0.0000000000000000e+00   0.0000000000000000e+00   0.0000000000000000e+00   0.0000000000000000e+00   0.0000000000000000e+00   0.0000000000000000e+00   0.0000000000000000e+00   0.0000000000000000e+00   0.0000000000000000e+00   0.0000000000000000e+00   0.0000000000000000e+00   0.0000000000000000e+00   0.0000000000000000e+00   0.0000000000000000e+00   0.0000000000000000e+00   0.0000000000000000e+00   0.0000000000000000e+00   0.0000000000000000e+00   0.0000000000000000e+00   0.0000000000000000e+00   0.0000000000000000e+00   0.0000000000000000e+00   0.0000000000000000e+00   0.0000000000000000e+00   0.0000000000000000e+00   0.0000000000000000e+00   0.0000000000000000e+00   0.0000000000000000e+00   0.0000000000000000e+00   0.0000000000000000e+00   0.0000000000000000e+00   0.0000000000000000e+00   0.0000000000000000e+00   0.0000000000000000e+00   0.0000000000000000e+00   0.0000000000000000e+00   0.0000000000000000e+00   0.0000000000000000e+00   0.0000000000000000e+00   0.0000000000000000e+00   0.0000000000000000e+00   0.0000000000000000e+00   0.0000000000000000e+00   0.0000000000000000e+00   0.0000000000000000e+00   0.0000000000000000e+00   0.0000000000000000e+00   0.0000000000000000e+00   0.0000000000000000e+00   0.0000000000000000e+00   0.0000000000000000e+00   0.0000000000000000e+00   0.0000000000000000e+00   0.0000000000000000e+00   0.0000000000000000e+00   0.0000000000000000e+00   0.0000000000000000e+00   0.0000000000000000e+00   0.0000000000000000e+00   0.0000000000000000e+00   0.0000000000000000e+00   0.0000000000000000e+00   0.0000000000000000e+00   0.0000000000000000e+00   0.0000000000000000e+00   0.0000000000000000e+00   0.0000000000000000e+00   0.0000000000000000e+00   0.00000000