<?xml version="1.0"?>
<VTKFile type="UnstructuredGrid"  version="0.1"  >
<UnstructuredGrid>
<Piece  NumberOfPoints="2394" NumberOfCells="4550">
<Points>
<DataArray  type="Float64"  NumberOfComponents="3"  format="ascii">1.858695652173913 0.1666666666666667 0  1.86695652173913 0.1666666666666667 0  1.86695652173913 0.175 0  1.858695652173913 0.175 0  1.875217391304348 0.1666666666666667 0  1.875217391304348 0.175 0  1.883478260869565 0.175 0  1.86695652173913 0.1833333333333333 0  1.858695652173913 0.1833333333333333 0  1.875217391304348 0.1833333333333333 0  1.883478260869565 0.1833333333333333 0  1.891739130434782 0.175 0  1.891739130434782 0.1833333333333333 0  1.9 0.175 0  1.9 0.1833333333333333 0  1.908260869565217 0.1833333333333333 0  1.850434782608696 0.1833333333333333 0  1.858695652173913 0.1916666666666667 0  1.850434782608696 0.1916666666666667 0  1.86695652173913 0.1916666666666667 0  1.875217391304348 0.1916666666666667 0  1.883478260869565 0.1916666666666667 0  1.891739130434782 0.1916666666666667 0  1.9 0.1916666666666667 0  1.908260869565217 0.1916666666666667 0  1.916521739130435 0.1833333333333333 0  1.916521739130435 0.1916666666666667 0  1.924782608695652 0.1833333333333333 0  1.924782608695652 0.1916666666666667 0  1.933043478260869 0.1916666666666667 0  1.858695652173913 0.2 0  1.850434782608696 0.2 0  1.86695652173913 0.2 0  1.875217391304348 0.2 0  1.883478260869565 0.2 0  1.891739130434782 0.2 0  1.9 0.2 0  1.908260869565217 0.2 0  1.916521739130435 0.2 0  1.924782608695652 0.2 0  1.933043478260869 0.2 0  1.941304347826087 0.1916666666666667 0  1.941304347826087 0.2 0  1.949565217391304 0.1916666666666667 0  1.949565217391304 0.2 0  1.957826086956522 0.1916666666666667 0  1.957826086956522 0.2 0  1.966086956521739 0.2 0  1.858695652173913 0.2083333333333333 0  1.86695652173913 0.2083333333333333 0  1.875217391304348 0.2083333333333333 0  1.883478260869565 0.2083333333333333 0  1.891739130434782 0.2083333333333333 0  1.9 0.2083333333333333 0  1.908260869565217 0.2083333333333333 0  1.916521739130435 0.2083333333333333 0  1.924782608695652 0.2083333333333333 0  1.933043478260869 0.2083333333333333 0  1.941304347826087 0.2083333333333333 0  1.949565217391304 0.2083333333333333 0  1.957826086956522 0.2083333333333333 0  1.966086956521739 0.2083333333333333 0  1.974347826086956 0.2 0  1.974347826086956 0.2083333333333333 0  1.982608695652174 0.2083333333333333 0  1.86695652173913 0.2166666666666667 0  1.858695652173913 0.2166666666666667 0  1.875217391304348 0.2166666666666667 0  1.883478260869565 0.2166666666666667 0  1.891739130434782 0.2166666666666667 0  1.9 0.2166666666666667 0  1.908260869565217 0.2166666666666667 0  1.916521739130435 0.2166666666666667 0  1.924782608695652 0.2166666666666667 0  1.933043478260869 0.2166666666666667 0  1.941304347826087 0.2166666666666667 0  1.949565217391304 0.2166666666666667 0  1.957826086956522 0.2166666666666667 0  1.966086956521739 0.2166666666666667 0  1.974347826086956 0.2166666666666667 0  1.982608695652174 0.2166666666666667 0  1.990869565217391 0.2083333333333333 0  1.990869565217391 0.2166666666666667 0  1.999130434782608 0.2166666666666667 0  1.86695652173913 0.225 0  1.875217391304348 0.225 0  1.883478260869565 0.225 0  1.891739130434782 0.225 0  1.9 0.225 0  1.908260869565217 0.225 0  1.916521739130435 0.225 0  1.924782608695652 0.225 0  1.933043478260869 0.225 0  1.941304347826087 0.225 0  1.949565217391304 0.225 0  1.957826086956522 0.225 0  1.966086956521739 0.225 0  1.974347826086956 0.225 0  1.982608695652174 0.225 0  1.990869565217391 0.225 0  1.999130434782608 0.225 0  2.007391304347826 0.2166666666666667 0  2.007391304347826 0.225 0  2.015652173913043 0.225 0  1.875217391304348 0.2333333333333333 0  1.883478260869565 0.2333333333333333 0  1.891739130434782 0.2333333333333333 0  1.9 0.2333333333333333 0  1.908260869565217 0.2333333333333333 0  1.916521739130435 0.2333333333333333 0  1.924782608695652 0.2333333333333333 0  1.933043478260869 0.2333333333333333 0  1.941304347826087 0.2333333333333333 0  1.949565217391304 0.2333333333333333 0  1.957826086956522 0.2333333333333333 0  1.966086956521739 0.2333333333333333 0  1.974347826086956 0.2333333333333333 0  1.982608695652174 0.2333333333333333 0  1.990869565217391 0.2333333333333333 0  1.999130434782608 0.2333333333333333 0  2.007391304347826 0.2333333333333333 0  2.015652173913043 0.2333333333333333 0  2.023913043478261 0.225 0  2.023913043478261 0.2333333333333333 0  2.032173913043478 0.2333333333333333 0  1.883478260869565 0.2416666666666667 0  1.875217391304348 0.2416666666666667 0  1.891739130434782 0.2416666666666667 0  1.9 0.2416666666666667 0  1.908260869565217 0.2416666666666667 0  1.916521739130435 0.2416666666666667 0  1.924782608695652 0.2416666666666667 0  1.933043478260869 0.2416666666666667 0  1.941304347826087 0.2416666666666667 0  1.949565217391304 0.2416666666666667 0  1.957826086956522 0.2416666666666667 0  1.966086956521739 0.2416666666666667 0  1.974347826086956 0.2416666666666667 0  1.982608695652174 0.2416666666666667 0  1.990869565217391 0.2416666666666667 0  1.999130434782608 0.2416666666666667 0  2.007391304347826 0.2416666666666667 0  2.015652173913043 0.2416666666666667 0  2.023913043478261 0.2416666666666667 0  2.032173913043478 0.2416666666666667 0  2.040434782608695 0.2333333333333333 0  2.040434782608695 0.2416666666666667 0  2.048695652173913 0.2416666666666667 0  1.883478260869565 0.25 0  1.891739130434782 0.25 0  1.9 0.25 0  1.908260869565217 0.25 0  1.916521739130435 0.25 0  1.924782608695652 0.25 0  1.933043478260869 0.25 0  1.941304347826087 0.25 0  1.949565217391304 0.25 0  1.957826086956522 0.25 0  1.966086956521739 0.25 0  1.974347826086956 0.25 0  1.982608695652174 0.25 0  1.990869565217391 0.25 0  1.999130434782608 0.25 0  2.007391304347826 0.25 0  2.015652173913043 0.25 0  2.023913043478261 0.25 0  2.032173913043478 0.25 0  2.040434782608695 0.25 0  2.048695652173913 0.25 0  2.05695652173913 0.25 0  1.891739130434782 0.2583333333333334 0  1.883478260869565 0.2583333333333334 0  1.9 0.2583333333333334 0  1.908260869565217 0.2583333333333334 0  1.916521739130435 0.2583333333333334 0  1.924782608695652 0.2583333333333334 0  1.933043478260869 0.2583333333333334 0  1.941304347826087 0.2583333333333334 0  1.949565217391304 0.2583333333333334 0  1.957826086956522 0.2583333333333334 0  1.966086956521739 0.2583333333333334 0  1.974347826086956 0.2583333333333334 0  1.982608695652174 0.2583333333333334 0  1.990869565217391 0.2583333333333334 0  1.999130434782608 0.2583333333333334 0  2.007391304347826 0.2583333333333334 0  2.015652173913043 0.2583333333333334 0  2.023913043478261 0.2583333333333334 0  2.032173913043478 0.2583333333333334 0  2.040434782608695 0.2583333333333334 0  2.048695652173913 0.2583333333333334 0  2.05695652173913 0.2583333333333334 0  2.065217391304348 0.25 0  2.065217391304348 0.2583333333333334 0  2.073478260869565 0.2583333333333334 0  1.891739130434782 0.2666666666666667 0  1.9 0.2666666666666667 0  1.908260869565217 0.2666666666666667 0  1.916521739130435 0.2666666666666667 0  1.924782608695652 0.2666666666666667 0  1.933043478260869 0.2666666666666667 0  1.941304347826087 0.2666666666666667 0  1.949565217391304 0.2666666666666667 0  1.957826086956522 0.2666666666666667 0  1.966086956521739 0.2666666666666667 0  1.974347826086956 0.2666666666666667 0  1.982608695652174 0.2666666666666667 0  1.990869565217391 0.2666666666666667 0  1.999130434782608 0.2666666666666667 0  2.007391304347826 0.2666666666666667 0  2.015652173913043 0.2666666666666667 0  2.023913043478261 0.2666666666666667 0  2.032173913043478 0.2666666666666667 0  2.040434782608695 0.2666666666666667 0  2.048695652173913 0.2666666666666667 0  2.05695652173913 0.2666666666666667 0  2.065217391304348 0.2666666666666667 0  2.073478260869565 0.2666666666666667 0  2.081739130434782 0.2583333333333334 0  2.081739130434782 0.2666666666666667 0  2.09 0.2666666666666667 0  1.9 0.275 0  1.908260869565217 0.275 0  1.916521739130435 0.275 0  1.924782608695652 0.275 0  1.933043478260869 0.275 0  1.941304347826087 0.275 0  1.949565217391304 0.275 0  1.957826086956522 0.275 0  1.966086956521739 0.275 0  1.974347826086956 0.275 0  1.982608695652174 0.275 0  1.990869565217391 0.275 0  1.999130434782608 0.275 0  2.007391304347826 0.275 0  2.015652173913043 0.275 0  2.023913043478261 0.275 0  2.032173913043478 0.275 0  2.040434782608695 0.275 0  2.048695652173913 0.275 0  2.05695652173913 0.275 0  2.065217391304348 0.275 0  2.073478260869565 0.275 0  2.081739130434782 0.275 0  2.09 0.275 0  2.098260869565217 0.2666666666666667 0  2.098260869565217 0.275 0  2.106521739130435 0.2666666666666667 0  2.106521739130435 0.275 0  2.114782608695652 0.275 0  1.908260869565217 0.2833333333333333 0  1.916521739130435 0.2833333333333333 0  1.924782608695652 0.2833333333333333 0  1.933043478260869 0.2833333333333333 0  1.941304347826087 0.2833333333333333 0  1.949565217391304 0.2833333333333333 0  1.957826086956522 0.2833333333333333 0  1.966086956521739 0.2833333333333333 0  1.974347826086956 0.2833333333333333 0  1.982608695652174 0.2833333333333333 0  1.990869565217391 0.2833333333333333 0  1.999130434782608 0.2833333333333333 0  2.007391304347826 0.2833333333333333 0  2.015652173913043 0.2833333333333333 0  2.023913043478261 0.2833333333333333 0  2.032173913043478 0.2833333333333333 0  2.040434782608695 0.2833333333333333 0  2.048695652173913 0.2833333333333333 0  2.05695652173913 0.2833333333333333 0  2.065217391304348 0.2833333333333333 0  2.073478260869565 0.2833333333333333 0  2.081739130434782 0.2833333333333333 0  2.09 0.2833333333333333 0  2.098260869565217 0.2833333333333333 0  2.106521739130435 0.2833333333333333 0  2.114782608695652 0.2833333333333333 0  2.12304347826087 0.275 0  2.12304347826087 0.2833333333333333 0  2.131304347826087 0.2833333333333333 0  1.916521739130435 0.2916666666666667 0  1.908260869565217 0.2916666666666667 0  1.924782608695652 0.2916666666666667 0  
[...]
<CellData  Scalars="rho_bar"> 
<DataArray  type="Float64"  Name="rho_bar"  format="ascii">9.8318287393945780e-01   9.9203408027511208e-01   9.3255917034642699e-01   9.7793149660129353e-01   9.0513485381398628e-01   9.9412561187532766e-01   9.9527644735963106e-01   9.8765625433905491e-01   9.9333726696117808e-01   9.5791662708137648e-01   9.8454170767556182e-01   8.0125792716078037e-01   9.4242240093805163e-01   3.4168681648502480e-01   7.2317271760234503e-01   2.3178404630018173e-01   9.9239841275931051e-01   9.8454575608246564e-01   9.9508361017964986e-01   9.9333229795302591e-01   9.9473033592138482e-01   9.9520190603902292e-01   9.9066632071933425e-01   9.9427632914565278e-01   9.7284021194610215e-01   9.8873207334846114e-01   8.7982516266855437e-01   9.6377314245283541e-01   5.0737482560976788e-01   8.2992609977477927e-01   8.7541926804508008e-02   3.7999731432598727e-01   4.9654441938478330e-03   4.9034115110791851e-02   2.5270540439178714e-03   9.7050865506524409e-01   9.0393160889412683e-01   9.9023841013865610e-01   9.7774074623996021e-01   9.9463012477003854e-01   9.9179583762739043e-01   9.9509513595120802e-01   9.9495393083919370e-01   9.9259046650854343e-01   9.9485028161619538e-01   9.8151705867477557e-01   9.9132166643064357e-01   9.2648689321011846e-01   9.7594424565266491e-01   6.5936830809444757e-01   8.9608850815239671e-01   1.7431704207217708e-01   5.4177022603004965e-01   1.2492133662867642e-02   1.0357414449014625e-01   5.1672469662679887e-04   6.3788098609856136e-03   2.1265540737549132e-05   2.6062153128580040e-04   1.1525805490205289e-06   1.1219993626419384e-05   6.4361498777754122e-07   7.7894531897051134e-01   9.5500553250163667e-01   8.4614877902799768e-01   9.8705059753518809e-01   9.6704578443894962e-01   9.9386422882574277e-01   9.8943837639789434e-01   9.9518313088237820e-01   9.9439923928674201e-01   9.9375657295414344e-01   9.9508501961085261e-01   9.8662901937537106e-01   9.9288887598184916e-01   9.5331034317295826e-01   9.8304157104117440e-01   7.7756797457575177e-01   9.3489994714185520e-01   3.0088253293267669e-01   6.8725027767453761e-01   2.9749740488506947e-02   1.9444938007230864e-01   1.3344923878732082e-03   1.5482013148937459e-02   5.2385648078847248e-05   6.6795380289497196e-04   2.5545726759594149e-06   2.7206822071162991e-05   1.7370175096435391e-07   1.4056658966717561e-06   1.0114460259151121e-07   6.6023744469867107e-01   2.7087112639401045e-01   9.2880048223961209e-01   7.5631768827749135e-01   9.8181294548726683e-01   9.4849939213374013e-01   9.9254040792454368e-01   9.8548226333724109e-01   9.9496138958220115e-01   9.9336110528685651e-01   9.9439749380429421e-01   9.9499997110614946e-01   9.8971804267594821e-01   9.9380309089301555e-01   9.6891761421494149e-01   9.8733435734050001e-01   8.5890906821360957e-01   9.5764689141390724e-01   4.5182710889905975e-01   7.9799724486803703e-01   6.6122372586498931e-02   3.2281739483330435e-01   3.4240401129594848e-03   3.5776048149841311e-02   1.3346011108397729e-04   1.7191986553766565e-03   5.9367054202341699e-06   6.8468142535120096e-05   3.6184764360773052e-07   3.2161196326097050e-06   3.0624284783990318e-08   2.0754733067359279e-07   1.8561266718064580e-08   8.8601464272518429e-02   5.0490832006087849e-01   1.5034749371774705e-01   8.8138369407114880e-01   6.2199946898565894e-01   9.7254567112286749e-01   9.1419652144603092e-01   9.9028056714439183e-01   9.7851670499818488e-01   9.9438182977945422e-01   9.9158275114392724e-01   9.9466568349007467e-01   9.9459659507071918e-01   9.9164435914619797e-01   9.9429337345177438e-01   9.7832874505744838e-01   9.9004895127819137e-01   9.1090661312788157e-01   9.7135233936203969e-01   6.0278342818659869e-01   8.7298672166351832e-01   1.3466671703031877e-01   4.7650660899629327e-01   8.6596172297038858e-03   7.7519349065744120e-02   3.4857173249438128e-04   4.4023622389847712e-03   1.4370972197225171e-05   1.7682872064269295e-04   7.8433972579746379e-07   7.6396718263205299e-06   5.9974233301840525e-08   4.4204588250940112e-07   6.2789803819314967e-09   3.5862374838287670e-08   3.9769233369420724e-09   3.9409025156960764e-02   3.3204259669786290e-01   6.9012672159403390e-02   7.9575976906758361e-01   4.4783498139060107e-01   9.5554619412975794e-01   8.5084393884708598e-01   9.8648898126037565e-01   9.6603861380660261e-01   9.9337240867167576e-01   9.8868398867534568e-01   9.9465979795148818e-01   9.9385871276498672e-01   9.9289038040684863e-01   9.9450348114842135e-01   9.8426739280640574e-01   9.9185198664657226e-01   9.4314738688193012e-01   9.7993404708838128e-01   7.3274994685132822e-01   9.2054343874699751e-01   2.4533880433734154e-01   6.3101863103090849e-01   2.1243072815598570e-02   1.5354402332651007e-01   9.1688808960991685e-04   1.1009722664703686e-02   3.5763918230032533e-05   4.5990498081792879e-04   1.7579644801072702e-06   1.8617234717623526e-05   1.2187332880849355e-07   9.7374304593630055e-07   1.1758141812053447e-08   7.2055872111601983e-08   1.5239207025915156e-09   7.4049857357039198e-09   1.0188942004922083e-09   1.4967147619417137e-02   1.2538561467897637e-03   1.8131935158276746e-01   2.6700258169929162e-02   6.5736416951504606e-01   2.6981378670564748e-01   9.2440890150416077e-01   7.4404479217928943e-01   9.8025099106998925e-01   9.4392199077328975e-01   9.9183725490983210e-01   9.8412528427663903e-01   9.9444557953615798e-01   9.9275862700848694e-01   9.9373004115799202e-01   9.9452564730850690e-01   9.8818866069566835e-01   9.9310931331974417e-01   9.6305419250919788e-01   9.8551219409605839e-01   8.3031712892477649e-01   9.4982244279861971e-01   3.9231859245493095e-01   7.6021040678028484e-01   4.9323992684856446e-02   2.7111473897043314e-01   2.3848124374695199e-03   2.6331038561289169e-02   9.0652647038289984e-05   1.1888413475404282e-03   4.0782794841394895e-06   4.6420606468200474e-05   2.5841963982586884e-07   2.2314767749535384e-06   2.3107720468577383e-08   1.5185121647146957e-07   2.8145539880212555e-09   1.4543597280184769e-08   4.5059023179305789e-10   1.8902315546132091e-09   3.2166737791901789e-10   2.1628787937121499e-04   5.0905858074692788e-03   3.9666108315261644e-04   8.2665217665030946e-02   9.2715883367011122e-03   4.7883650679638651e-01   1.3521127232139374e-01   8.6997460840825891e-01   5.9416566288097317e-01   9.7026035372911013e-01   9.0642971121599192e-01   9.8966299849279005e-01   9.7720047920856512e-01   9.9406736384227334e-01   9.9126213089470350e-01   9.9431757177204827e-01   9.9441694142609149e-01   9.9087505577131296e-01   9.9402003199367717e-01   9.7542603189143817e-01   9.8924472878622738e-01   8.9555027714161373e-01   9.6768757491668411e-01   5.5169067694513207e-01   8.5202069935904556e-01   1.0559051808156349e-01   4.2284716827678215e-01   6.0910824982859588e-03   5.9233178303360536e-02   2.3489436590257165e-04   3.0585811042991864e-03   9.9001060406833703e-06   1.1962622375454501e-04   5.7862578540605457e-07   5.3933049470045197e-06   4.8237402720345107e-08   3.4017765565552709e-07   5.5517172340794730e-09   3.0537369762514060e-08   8.5033738383977240e-10   3.7704415053093259e-09   6.1712855196442271e-10   6.9599664121252291e-05   5.8974528652315071e-06   1.6671112787413447e-03   1.2708966885458903e-04   3.3476634930443130e-02   3.1268752863119489e-03   3.0530171127889899e-01   5.9651490108545799e-02   7.8402413227632672e-01   4.2715799026439216e-01   9.5483521740614696e-01   8.4797413515338016e-01   9.8671868361535209e-01   9.6705353131798066e-01   9.9354821753242883e-01   9.8931966469666854e-01   9.9473380421954427e-01   9.9420308432317461e-01   9.9275922594746935e-01   9.9468880065396614e-01   9.8320175834512447e-01   9.9179102815062647e-01   9.3600924642452565e-01   9.7864197915346074e-01   6.9625488179646111e-01   9.1051620947181000e-01   2.0340877642855398e-01   5.8592241493742603e-01   1.5297925255253475e-02   1.2328858839112102e-01   6.2774349612790303e-04   7.8687358688280182e-03   2.5498681676857291e-05   3.2160270867497487e-04   1.3891582396248960e-06   1.3938291769229529e-05   1.0869692678346555e-07   8.2333106178148894e-07   1.1898643579681222e-08   6.9780229733362757e-08   1.7555439787061057e-09   8.2434877072638383e-09   3.3741161716468103e-10   1.3074197187841944e-09   2.6912102176387042e-10   1.2819974858172920e-06   2.3779697007675356e-05   2.2227118786262907e-06   5.6449789843218711e-04   4.3828717569740126e-05   1.3117852314818762e-02   1.0971366526667712e-03   1.7498063483209575e-01   2.5211319671147807e-02   6.6746717814057710e-01   2.7805731962907138e-01   9.3199186903450204e-01   7.6661259296299333e-01   9.8282195976228803e-01   9.5262851218336231e-01   9.9288006158744790e-01   9.8682889068525459e-01   9.9501317704045111e-01   9.9387605775169063e-01   9.9409464869683606e-01   9.9516793222607280e-01   9.8816813161980854e-01   9.9354997656292465e-01   9.6033095485417930e-01   9.8546622006188733e-01   8.0885264796991374e-01   9.4584966356316624e-01   3.4555607527242782e-01   7.3102150330047222e-01   3.7511595217054224e-02   2.3215448173228492e-01   1.7341594721064417e-03   2.0106534988393515e-02   7.0476387531483650e-05   9.0407525999911952e-04   3.6430183303441218e-06   3.9022535291079671e-05   2.7012219443641377e-07   2.1984082890132623e-06   2.8357766782930827e-08   1.7771839009676318e-07   4.0644618781726674e-09   2.0267851184400487e-08   7.6816448572418058e-10   3.1437033161848186e-09   1.8571919927860383e-10   6.4074232956438491e-10   1.6656915661587384e-10   5.2949616915117436e-07   8.9786815155960385e-06   9.2406904443157887e-07   2.0758993996326350e-04   1.6826662808870175e-05   5.3040223178229566e-03   4.1759901490127487e-04   9.4133230931843226e-02   1.0856123467447675e-02   5.3431897906577008e-01   1.6762297160124470e-01   8.9935304463224452e-01   6.6586083512013927e-01   9.7764102596318669e-01   9.3239215235866080e-01   9.9200831274709766e-01   9.8356181314791002e-01   9.9516141726685847e-01   9.9339069003925140e-01   9.9504060800527139e-01   9.9548186567463293e-01   9.9140619634417460e-01   9.9477492975616266e-01   9.7493075744193936e-01   9.8981471630493456e-01   8.8590828812148326e-01   9.6685755911580484e-01   5.1434315050176205e-01   8.3884875311257423e-01   8.7851581675059284e-02   3.8843462390598382e-01   4.9556903040414643e-03   5.0329817835773366e-02   2.1192338437069552e-04   2.6763256966580548e-03   1.0695927053688829e-05   1.2063833677021063e-04   7.6169382204338586e-07   6.6594262205417961e-06   7.7486394439718635e-08   5.2051322492012007e-07   1.0903674768636412e-08   5.7950865171389315e-08   2.0498110986366677e-09   8.8942752237327268e-09   4.9917932750294857e-10   1.8180325763358015e-09   1.5338600759899168e-10   4.8015543393139169e-10   5.8185178897218767e-11   1.5973016428046576e-10   6.5556597187802890e-11   2.4126425678579671e-07   3.7928988708690893e-06   4.2583302192755756e-07   8.4418415861227890e-05   7.2326539004389641e-06   2.2760138219548409e-03   1.7448239887911856e-04   4.9385931786244237e-02   4.8827778626163096e-03   4.0322751221095154e-01   9.6084640310658331e-02   8.5366621209659921e-01   5.5225628353777256e-01   9.7051411990031267e-01   9.0374451082023244e-01   9.9081452704989337e-01   9.7905556461373011e-01   9.9516633649122033e-01   9.9266060674010703e-01   9.9570207204997785e-01   9.9563961553678970e-01   9.9356544713423711e-01   9.9563094116780337e-01   9.8381409411726961e-01   9.9265729894221111e-01   9.3392399905374335e-01   9.7941420506784194e-01   6.7960978259680349e-01   9.0865394789861387e-01   1.9008529139123800e-01   5.7431987982478772e-01   1.4756890647159756e-02   1.2086300307083601e-01   7.0782832525366989e-04   8.4705470404794168e-03   3.6279138910688693e-05   4.2270837416290773e-04   2.5283363515501067e-06   2.3695858291455932e-05   2.5264312531840072e-07   1.8249543586220300e-06   3.5387431318589810e-08   2.0132015687845955e-07   6.7159842594607049e-09   3.1045003197801207e-08   1.6738328963613240e-09   6.4687961283856550e-09   5.3351091137502758e-10   1.7662667532262574e-09   2.1285813852263887e-10   6.1607515385494125e-10   1.0459026237678402e-10   2.6911043763770225e-10   1.4514731083714602e-10   1.2100332042834050e-07   1.9202511682599648e-08   1.7795615259349113e-06   2.1592757787347605e-07   3.7759744397023842e-05   3.4380270304094459e-06   1.0370864228079020e-03   7.9311411005320991e-05   2.5707100604841892e-02   2.2882601957168376e-03   2.8676928222611692e-01   5.3063803476073729e-02   7.9020118808828232e-01   4.3224114071545411e-01   9.6016882036194573e-01   8.6226719319924494e-01   9.8909348016116061e-01   9.7245214705921956e-01   9.9500249029767152e-01   9.9154909051026408e-01   9.9614983611413754e-01   9.9563976850280789e-01   9.9503945734932286e-01   9.9622734485299569e-01   9.8934104836956482e-01   9.9456749843138792e-01   9.6239365504708096e-01   9.8705299910392086e-01   8.1451295688809888e-01   9.5020443428253965e-01   3.6285703330692204e-01   7.5025282290989070e-01   4.5716539870792210e-02   2.6571188602236245e-01   2.6858471209129293e-03   2.8779496720716082e-02   1.4743769710456886e-04   1.7236321150611768e-03   1.0352262632323812e-05   1.0316472576399341e-04   1.0359505741204999e-06   8.0635903401959969e-06   1.4710271098450361e-07   9.0011462739828927e-07   2.8722271126306149e-08   1.4227645351675802e-07   7.4724352909042861e-09   3.0844435672250390e-08   2.5229523562912241e-09   8.8937838667776033e-09   1.0834144970051089e-09   3.3276214746654412e-09   5.8368895827776167e-10   1.5872041273882577e-09   3.9172306139552897e-10   9.5506417589300981e-10   3.2725597232108343e-10   7.2254303466282996e-10   6.8961129399506669e-10   6.7007134100608815e-09   6.6095810010343355e-08   1.1229895828061373e-08   9.1165317710658276e-07   1.1875775079994714e-07   1.8239940751590976e-05   1.7702267193867957e-06   4.9346694296935800e-04   3.8402199867818946e-05   1.3209623055973927e-02   1.0965932997345684e-03   1.9026054449473365e-01   2.8118033059812100e-02   7.0325351535348690e-01   3.1295200508179200e-01   9.4429929370981691e-01   8.0144077834640748e-01   9.8651445645731350e-01   9.6224883556206608e-01   9.9463019883727655e-01   9.8984797692585891e-01   9.9643127984917379e-01   9.9546967653024598e-01   9.9607012277805551e-01   9.9663571861717903e-01   9.9287210299552831e-01   9.9588648563866866e-01   9.7891917496621095e-01   9.9179380048890053e-01   9.0547443065772937e-01   9.7370964629197931e-01   5.8637024923862291e-01   8.7693127806062288e-01   1.3951654817301998e-01   4.9890493227459948e-01   1.1714671052852238e-02   1.0007683257208294e-01   7.4585405368109625e-04   8.3171129896473829e-03   5.5454542036426107e-05   5.7474403281523900e-04   5.7258958583531862e-06   4.7927696553753049e-05   8.4465856023396878e-07   5.5859444691071730e-06   1.7366650333546424e-07   9.2858995152470955e-07   4.8275913155926295e-08   2.1458828487290016e-07   1.7698339247843967e-08   6.6967724550911141e-08   8.4134228195420524e-09   2.7611479417692201e-08   5.1414279500505733e-09   1.4848042869293946e-08   4.0358836272957912e-09   1.0372075087694559e-08   4.0962479241901686e-09   9.4518749586362370e-09   5.4478527615013207e-09   1.1368685169192248e-08   9.6845703216145577e-09   1.8388237645513200e-08   4.1029003861048365e-08   4.1725017145092636e-09   3.8737146305460156e-08   7.0163483449163084e-09   4.9915362176911092e-07   6.9627850087424446e-08   9.2816624946423560e-06   9.6457124197183840e-07   2.3917461020148145e-04   1.9309376751726805e-05   6.5873262201034816e-03   5.2477357141862257e-04   1.1579797972976476e-01   1.4119830266813606e-02   5.8979141381436251e-01   2.0477067534325016e-01   9.1898562262174011e-01   7.1435019607138428e-01   9.8254559413056342e-01   9.4591671146771039e-01   9.9398413006535546e-01   9.8722575275915625e-01   9.9657218387129565e-01   9.9509400680602889e-01   9.9680269284798917e-01   9.9689585136498604e-01   9.9517378898561160e-01   9.9681235968115245e-01   9.8834784094439876e-01   9.9476586285802515e-01   9.5648279548459969e-01   9.8646805491109735e-01   7.9396683437038240e-01   9.4714293122290516e-01   3.6006232904893376e-01   7.5214673539093546e-01   5.6719022550458430e-02   3.0410467759977700e-01   4.8388352175394002e-03   4.6207175034833778e-02   4.1550544401119038e-04   4.2564698726872616e-03   4.6611683910337750e-05   4.1288125079014265e-04   7.3849385849681777e-06   5.2908098300330518e-05   1.6427284429224964e-06   9.5613618286323961e-06   5.0072040662837101e-07   2.4200001035682814e-06   2.0511467449524376e-07   8.4002441729421283e-07   1.1181569343580542e-07   3.9424716151888672e-07   8.1116243000334318e-08   2.4924417722319947e-07   7.8987259372054237e-08   2.1358369074279506e-07   1.0491590503776873e-07   2.5175120749176843e-07   1.9449455272250551e-07   4.1725554160894828e-07   5.1815364830269216e-07   1.0007083905231682e-06   2.0543382732903436e-06   3.5942376009160778e-06   1.2574481146193646e-05   2.0038855185255954e-05   1.2088971241979353e-04   1.7625367726084592e-04   1.7218207465361155e-03   2.3013896715672623e-03   2.8859313025460461e-02   3.5188673988565927e-02   2.7034246918618621e-01   2.9674736179552935e-01   7.4440670561143285e-01   7.5683216058183977e-01   9.6091703156648534e-01   9.6208182679908916e-01   9.9203730901377962e-01   9.9216244463987102e-01   9.9659601293284805e-01   9.9665257581355149e-01   9.9676787791864940e-01   9.9687138819010268e-01   9.9309366388933007e-01   9.9350243611034117e-01   9.6711828958191759e-01   9.7017557629682649e-01   7.5186279271244216e-01   7.7882170435385722e-01   2.1476031466791390e-01   2.5248536608295796e-01   1.0582097208309988e-02   1.3561416929920658e-02   2.1557319867555432e-04   2.8139453769292699e-04   4.1701785759296079e-06   5.4048998744116206e-06   1.1435008362425952e-07   1.4571270072945755e-07   5.2720916243753643e-09   6.5794273640396045e-09   4.0327145326794316e-10   4.9155785923164339e-10   4.7689195185422311e-11   5.6704992553354363e-11   8.1217810254941063e-12   9.4215098685642374e-12   1.8741859915868044e-12   2.1232645271614583e-12   5.5701739517151836e-13   6.1724699425743310e-13   2.0451233299449247e-13   2.2203535306649285e-13   8.9659761097019976e-14   9.5516187551917651e-14   4.5657921887709588e-14   4.7795101210113014e-14   2.6414056127540194e-14   2.7181960386239263e-14   1.7069679003611791e-14   1.7263968032921194e-14   1.2147690261106928e-14   1.2082927251337125e-14   9.4368957093138353e-15   9.2241029629273480e-15   7.9288427675313300e-15   7.6050277186823255e-15   7.1886940844478918e-15   6.7538567331363724e-15   7.0036569136770318e-15   6.4577972599029960e-15   7.3367238210645788e-15   6.5873232794425981e-15   8.2711615334574210e-15   7.2164496600635207e-15   1.0047518372857671e-14   8.4839542798439082e-15   1.3174646558885199e-14   1.0722904046171309e-14   1.8818280267396413e-14   1.4664195783590617e-14   2.9531932455029177e-14   2.1899149160731225e-14   5.1412577898683314e-14   3.5961974139316550e-14   1.0085450992865698e-13   6.5863980935887437e-14   2.2691108251630503e-13   1.3664069875574119e-13   5.9828068425342004e-13   3.2734000695218900e-13   1.8971120970453143e-12   9.2672166237169579e-13   7.4612168295592141e-12   3.1873947925475944e-12   1.3762324613253447e-11   2.7560178583740943e-09   6.6210423255164141e-10   2.3978676803408201e-08   4.6278835115950086e-09   2.8607383958008842e-07   4.2810391111721336e-08   4.8591217319167911e-06   5.4486748023626274e-07   1.1543764701829613e-04   9.8684855071862249e-06   3.1385173689247882e-03   2.4649461566673514e-04   6.3920689385565679e-02   6.6762124550542616e-03   4.5623865844136025e-01   1.1955055741269677e-01   8.7809044442199402e-01   5.9878054456724128e-01   9.7626660660912046e-01   9.1928290526878187e-01   9.9293444001622189e-01   9.8307565524208274e-01   9.9656928581809334e-01   9.9442068574409859e-01   9.9731712189509492e-01   9.9701449564251765e-01   9.9668094945576846e-01   9.9745664974971260e-01   9.9360941847537920e-01   9.9662235490193418e-01   9.8125757069984709e-01   9.9313849473552107e-01   9.2210438255677496e-01   9.7920194116404446e-01   6.73084732