<?xml version="1.0"?>
<VTKFile type="UnstructuredGrid"  version="0.1"  >
<UnstructuredGrid>
<Piece  NumberOfPoints="2460" NumberOfCells="4720">
<Points>
<DataArray  type="Float64"  NumberOfComponents="3"  format="ascii">3.238260869565217 0 0  3.246521739130435 0 0  3.246521739130435 0.008333333333333333 0  3.238260869565217 0.008333333333333333 0  3.254782608695652 0 0  3.254782608695652 0.008333333333333333 0  3.26304347826087 0 0  3.26304347826087 0.008333333333333333 0  3.271304347826087 0 0  3.271304347826087 0.008333333333333333 0  3.279565217391304 0 0  3.279565217391304 0.008333333333333333 0  3.287826086956521 0 0  3.287826086956521 0.008333333333333333 0  3.296086956521739 0 0  3.296086956521739 0.008333333333333333 0  3.304347826086957 0 0  3.304347826086957 0.008333333333333333 0  3.312608695652174 0 0  3.312608695652174 0.008333333333333333 0  3.320869565217391 0 0  3.320869565217391 0.008333333333333333 0  3.329130434782608 0 0  3.329130434782608 0.008333333333333333 0  3.337391304347826 0 0  3.337391304347826 0.008333333333333333 0  3.345652173913043 0 0  3.345652173913043 0.008333333333333333 0  3.353913043478261 0 0  3.353913043478261 0.008333333333333333 0  3.362173913043478 0 0  3.362173913043478 0.008333333333333333 0  3.370434782608696 0 0  3.370434782608696 0.008333333333333333 0  3.378695652173913 0 0  3.378695652173913 0.008333333333333333 0  3.386956521739131 0 0  3.386956521739131 0.008333333333333333 0  3.395217391304348 0 0  3.395217391304348 0.008333333333333333 0  3.403478260869565 0 0  3.403478260869565 0.008333333333333333 0  3.411739130434782 0 0  3.411739130434782 0.008333333333333333 0  3.419999999999999 0 0  3.419999999999999 0.008333333333333333 0  3.428260869565217 0 0  3.428260869565217 0.008333333333333333 0  3.436521739130435 0 0  3.436521739130435 0.008333333333333333 0  3.444782608695652 0 0  3.444782608695652 0.008333333333333333 0  3.453043478260869 0 0  3.453043478260869 0.008333333333333333 0  3.461304347826087 0 0  3.461304347826087 0.008333333333333333 0  3.469565217391304 0 0  3.469565217391304 0.008333333333333333 0  3.477826086956522 0 0  3.477826086956522 0.008333333333333333 0  3.486086956521739 0 0  3.486086956521739 0.008333333333333333 0  3.494347826086956 0 0  3.494347826086956 0.008333333333333333 0  3.502608695652174 0 0  3.502608695652174 0.008333333333333333 0  3.510869565217391 0 0  3.510869565217391 0.008333333333333333 0  3.519130434782609 0 0  3.519130434782609 0.008333333333333333 0  3.527391304347826 0 0  3.527391304347826 0.008333333333333333 0  3.535652173913043 0 0  3.535652173913043 0.008333333333333333 0  3.54391304347826 0 0  3.54391304347826 0.008333333333333333 0  3.552173913043478 0 0  3.552173913043478 0.008333333333333333 0  3.560434782608696 0 0  3.560434782608696 0.008333333333333333 0  3.568695652173913 0 0  3.568695652173913 0.008333333333333333 0  3.57695652173913 0 0  3.57695652173913 0.008333333333333333 0  3.585217391304347 0 0  3.585217391304347 0.008333333333333333 0  3.593478260869565 0 0  3.593478260869565 0.008333333333333333 0  3.601739130434782 0 0  3.601739130434782 0.008333333333333333 0  3.61 0 0  3.61 0.008333333333333333 0  3.618260869565217 0 0  3.618260869565217 0.008333333333333333 0  3.626521739130435 0 0  3.626521739130435 0.008333333333333333 0  3.634782608695652 0 0  3.634782608695652 0.008333333333333333 0  3.64304347826087 0 0  3.64304347826087 0.008333333333333333 0  3.651304347826087 0 0  3.651304347826087 0.008333333333333333 0  3.659565217391304 0 0  3.659565217391304 0.008333333333333333 0  3.667826086956521 0 0  3.667826086956521 0.008333333333333333 0  3.676086956521739 0 0  3.676086956521739 0.008333333333333333 0  3.684347826086956 0 0  3.684347826086956 0.008333333333333333 0  3.692608695652174 0 0  3.692608695652174 0.008333333333333333 0  3.700869565217391 0 0  3.700869565217391 0.008333333333333333 0  3.709130434782608 0 0  3.709130434782608 0.008333333333333333 0  3.717391304347826 0 0  3.717391304347826 0.008333333333333333 0  3.725652173913043 0 0  3.725652173913043 0.008333333333333333 0  3.733913043478261 0 0  3.733913043478261 0.008333333333333333 0  3.742173913043478 0 0  3.742173913043478 0.008333333333333333 0  3.750434782608695 0 0  3.750434782608695 0.008333333333333333 0  3.758695652173913 0 0  3.758695652173913 0.008333333333333333 0  3.766956521739131 0 0  3.766956521739131 0.008333333333333333 0  3.775217391304348 0 0  3.775217391304348 0.008333333333333333 0  3.783478260869565 0 0  3.783478260869565 0.008333333333333333 0  3.791739130434782 0 0  3.791739130434782 0.008333333333333333 0  3.8 0 0  3.8 0.008333333333333333 0  3.246521739130435 0.01666666666666667 0  3.254782608695652 0.01666666666666667 0  3.26304347826087 0.01666666666666667 0  3.271304347826087 0.01666666666666667 0  3.279565217391304 0.01666666666666667 0  3.287826086956521 0.01666666666666667 0  3.296086956521739 0.01666666666666667 0  3.304347826086957 0.01666666666666667 0  3.312608695652174 0.01666666666666667 0  3.320869565217391 0.01666666666666667 0  3.329130434782608 0.01666666666666667 0  3.337391304347826 0.01666666666666667 0  3.345652173913043 0.01666666666666667 0  3.353913043478261 0.01666666666666667 0  3.362173913043478 0.01666666666666667 0  3.370434782608696 0.01666666666666667 0  3.378695652173913 0.01666666666666667 0  3.386956521739131 0.01666666666666667 0  3.395217391304348 0.01666666666666667 0  3.403478260869565 0.01666666666666667 0  3.411739130434782 0.01666666666666667 0  3.419999999999999 0.01666666666666667 0  3.428260869565217 0.01666666666666667 0  3.436521739130435 0.01666666666666667 0  3.444782608695652 0.01666666666666667 0  3.453043478260869 0.01666666666666667 0  3.461304347826087 0.01666666666666667 0  3.469565217391304 0.01666666666666667 0  3.477826086956522 0.01666666666666667 0  3.486086956521739 0.01666666666666667 0  3.494347826086956 0.01666666666666667 0  3.502608695652174 0.01666666666666667 0  3.510869565217391 0.01666666666666667 0  3.519130434782609 0.01666666666666667 0  3.527391304347826 0.01666666666666667 0  3.535652173913043 0.01666666666666667 0  3.54391304347826 0.01666666666666667 0  3.552173913043478 0.01666666666666667 0  3.560434782608696 0.01666666666666667 0  3.568695652173913 0.01666666666666667 0  3.57695652173913 0.01666666666666667 0  3.585217391304347 0.01666666666666667 0  3.593478260869565 0.01666666666666667 0  3.601739130434782 0.01666666666666667 0  3.61 0.01666666666666667 0  3.618260869565217 0.01666666666666667 0  3.626521739130435 0.01666666666666667 0  3.634782608695652 0.01666666666666667 0  3.64304347826087 0.01666666666666667 0  3.651304347826087 0.01666666666666667 0  3.659565217391304 0.01666666666666667 0  3.667826086956521 0.01666666666666667 0  3.676086956521739 0.01666666666666667 0  3.684347826086956 0.01666666666666667 0  3.692608695652174 0.01666666666666667 0  3.700869565217391 0.01666666666666667 0  3.709130434782608 0.01666666666666667 0  3.717391304347826 0.01666666666666667 0  3.725652173913043 0.01666666666666667 0  3.733913043478261 0.01666666666666667 0  3.742173913043478 0.01666666666666667 0  3.750434782608695 0.01666666666666667 0  3.758695652173913 0.01666666666666667 0  3.766956521739131 0.01666666666666667 0  3.775217391304348 0.01666666666666667 0  3.783478260869565 0.01666666666666667 0  3.791739130434782 0.01666666666666667 0  3.8 0.01666666666666667 0  3.254782608695652 0.025 0  3.26304347826087 0.025 0  3.271304347826087 0.025 0  3.279565217391304 0.025 0  3.287826086956521 0.025 0  3.296086956521739 0.025 0  3.304347826086957 0.025 0  3.312608695652174 0.025 0  3.320869565217391 0.025 0  3.329130434782608 0.025 0  3.337391304347826 0.025 0  3.345652173913043 0.025 0  3.353913043478261 0.025 0  3.362173913043478 0.025 0  3.370434782608696 0.025 0  3.378695652173913 0.025 0  3.386956521739131 0.025 0  3.395217391304348 0.025 0  3.403478260869565 0.025 0  3.411739130434782 0.025 0  3.419999999999999 0.025 0  3.428260869565217 0.025 0  3.436521739130435 0.025 0  3.444782608695652 0.025 0  3.453043478260869 0.025 0  3.461304347826087 0.025 0  3.469565217391304 0.025 0  3.477826086956522 0.025 0  3.486086956521739 0.025 0  3.494347826086956 0.025 0  3.502608695652174 0.025 0  3.510869565217391 0.025 0  3.519130434782609 0.025 0  3.527391304347826 0.025 0  3.535652173913043 0.025 0  3.54391304347826 0.025 0  3.552173913043478 0.025 0  3.560434782608696 0.025 0  3.568695652173913 0.025 0  3.57695652173913 0.025 0  3.585217391304347 0.025 0  3.593478260869565 0.025 0  3.601739130434782 0.025 0  3.61 0.025 0  3.618260869565217 0.025 0  3.626521739130435 0.025 0  3.634782608695652 0.025 0  3.64304347826087 0.025 0  3.651304347826087 0.025 0  3.659565217391304 0.025 0  3.667826086956521 0.025 0  3.676086956521739 0.025 0  3.684347826086956 0.025 0  3.692608695652174 0.025 0  3.700869565217391 0.025 0  3.709130434782608 0.025 0  3.717391304347826 0.025 0  3.725652173913043 0.025 0  3.733913043478261 0.025 0  3.742173913043478 0.025 0  3.750434782608695 0.025 0  3.758695652173913 0.025 0  3.766956521739131 0.025 0  3.775217391304348 0.025 0  3.783478260869565 0.025 0  3.791739130434782 0.025 0  3.8 0.025 0  3.26304347826087 0.03333333333333333 0  3.271304347826087 0.03333333333333333 0  3.279565217391304 0.03333333333333333 0  3.287826086956521 0.03333333333333333 0  3.296086956521739 0.03333333333333333 0  3.304347826086957 0.03333333333333333 0  3.312608695652174 0.03333333333333333 0  3.320869565217391 0.03333333333333333 0  3.329130434782608 0.03333333333333333 0  3.337391304347826 0.03333333333333333 0  3.345652173913043 0.03333333333333333 0  3.353913043478261 0.03333333333333333 0  3.362173913043478 0.03333333333333333 0  3.370434782608696 0.03333333333333333 0  3.378695652173913 0.03333333333333333 0  3.386956521739131 0.03333333333333333 0  3.395217391304348 0.03333333333333333 0  3.403478260869565 0.03333333333333333 0  3.411739130434782 0.03333333333333333 0  3.419999999999999 0.03333333333333333 0  3.4
[...]
<CellData  Scalars="rho_bar"> 
<DataArray  type="Float64"  Name="rho_bar"  format="ascii">1.3534854810942970e-01   1.3861244478421780e-01   1.2685824365630249e-01   1.2996861777600019e-01   1.1882577196830571e-01   1.2178675055952297e-01   1.1122476273332746e-01   1.1404062637341315e-01   1.0403184550324258e-01   1.0670665279666758e-01   9.7226363113071479e-02   9.9764236045503829e-02   9.0789371462593735e-02   9.3194709481285970e-02   8.4702900755304081e-02   8.6980389323039406e-02   7.8949717561887678e-02   8.1104234125232016e-02   7.3513241859909609e-02   7.5549760885523953e-02   6.8377868147221382e-02   7.0301220808657430e-02   6.3529186395383866e-02   6.5343972670855066e-02   5.8954152881921552e-02   6.0664638679058122e-02   5.4641155794421768e-02   5.6251267526881157e-02   5.0579868947281011e-02   5.2093236003001704e-02   4.6761001336820832e-02   4.8181054177105657e-02   4.3175985651353097e-02   4.4506033234018756e-02   3.9816686967235601e-02   4.1060008156416354e-02   3.6675111567913248e-02   3.7835029976664873e-02   3.3743174741482918e-02   3.4823102353530110e-02   3.1012541575003279e-02   3.2016012368564772e-02   2.8474537514477209e-02   2.9405203357771866e-02   2.6120194680558661e-02   2.6981787656259002e-02   2.3940293073747551e-02   2.4736599906464280e-02   2.1925414229907219e-02   2.2660248339770636e-02   2.0066068289468202e-02   2.0743214754371665e-02   1.8352773484047374e-02   1.8975969406031582e-02   1.6776140168692295e-02   1.7349037044472555e-02   1.5326965588454191e-02   1.5853103851475505e-02   1.3996291658981209e-02   1.4479079097193544e-02   1.2775502731996900e-02   1.3218185054310176e-02   1.1656386922789742e-02   1.2062030089316906e-02   1.0631158912237077e-02   1.1002654285238578e-02   9.6924980255098676e-03   1.0032541114909640e-02   8.8335515409631842e-03   9.1446611837304910e-03   8.0478889913325018e-03   8.3324201017488091e-03   7.3295446048220643e-03   7.5896685413588995e-03   6.6730056545945436e-03   6.9107234219156115e-03   6.0731826634274526e-03   6.2903396469190537e-03   5.5253804729803301e-03   5.7236800054292578e-03   5.0252751428691619e-03   5.2062802252750484e-03   4.5688915991143938e-03   4.7340442738582639e-03   4.1525682389984362e-03   4.3031923225265523e-03   3.7729567440107706e-03   3.9102648980742566e-03   3.4269843038978527e-03   3.5520886273706920e-03   3.1118411706414152e-03   3.2257613612999055e-03   2.8249589213815477e-03   2.9286256474192517e-03   2.5639985171628035e-03   2.6582619357542435e-03   2.3268257645400561e-03   2.4124621542336278e-03   2.1114980431626855e-03   2.1892156390335882e-03   1.9162454868857403e-03   1.9866905034454318e-03   1.7394582156705629e-03   1.8032197552121834e-03   1.5796768064772961e-03   1.6372898370848293e-03   1.4355807634744192e-03   1.4875304506429432e-03   1.3059746215306734e-03   1.3527020262358537e-03   1.1897777817979935e-03   1.2316828106335976e-03   1.0860205104098360e-03   1.1234631581734484e-03   9.9383618623297382e-04   1.0271395525306075e-03   9.1245209525455913e-04   9.4190641641807413e-04   8.4118303580914039e-04   8.6704708295869235e-04   7.7942934021284942e-04   8.0193162241248925e-04   7.2667146401189154e-04   7.4601193227545267e-04   6.8246741182444658e-04   6.9881863302773432e-04   6.4645063013610326e-04   6.5995792192676819e-04   6.1833159874439029e-04   6.2911053521172672e-04   5.9790720643614266e-04   6.0603526911906546e-04   5.8508777355740496e-04   5.9056881153969208e-04   5.7999205148364361e-04   5.8261478000480040e-04   1.3698914484198491e-01   1.2851767948955878e-01   1.3227364175600945e-01   1.2047904391743583e-01   1.2409883906319337e-01   1.1285170821986881e-01   1.1632833260336410e-01   1.0561712265060198e-01   1.0894547990710840e-01   9.8758876838615825e-02   1.0193612720277503e-01   9.2261297656170319e-02   9.5286784046911668e-02   8.6108925409392939e-02   8.8983717829710277e-02   8.0286379152553586e-02   8.3012839320872750e-02   7.4778526914910146e-02   7.7359924632390789e-02   6.9570777751411794e-02   7.2010901830124208e-02   6.4649579362301618e-02   6.6952412205522990e-02   6.0002608910301548e-02   6.2172189838376996e-02   5.5618891361839611e-02   5.7659222061446469e-02   5.1488689127684277e-02   5.3403758491054609e-02   4.7603252429212081e-02   4.9397097742763123e-02   4.3954463677693914e-02   4.5631258952180627e-02   4.0534552297899602e-02   4.2098639167252302e-02   3.7335788111649039e-02   3.8791715435771201e-02   3.4350241626041042e-02   3.5702778651219187e-02   3.1569618540802417e-02   3.2823728746745037e-02   2.8985240874951926e-02   3.0146027964169222e-02   2.6588042080520433e-02   2.7660701494744713e-02   2.4368658526164357e-02   2.5358404516017615e-02   2.2317511290156480e-02   2.3229531999435716e-02   2.0424901260502063e-02   2.1264297867990081e-02   1.8681146738330018e-02   1.9452879913187865e-02   1.7076650771230478e-02   1.7785523208460122e-02   1.5601985977152120e-02   1.6252603257068895e-02   1.4248004216142087e-02   1.4844746821568623e-02   1.3005895362046794e-02   1.3552906371362427e-02   1.1867262247232366e-02   1.2368428637242622e-02   1.0824165848612960e-02   1.1283117350567962e-02   9.8691286569201966e-03   1.0289247306784759e-02   8.9951546367020019e-03   9.3795703326116572e-03   8.1957175104941746e-03   8.5473353357210964e-03   7.4647229919365945e-03   7.7862350736548191e-03   6.7965639703032703e-03   7.0904348809950751e-03   6.1860634644992328e-03   6.4545661539905982e-03   5.6284476999597169e-03   5.8736710051852789e-03   5.1193262259796564e-03   5.3431915779675807e-03   4.6546597324121763e-03   4.8589344850138352e-03   4.2307346415252165e-03   4.4170476553520533e-03   3.8441423178050809e-03   4.0139865816750846e-03   3.4917690792937656e-03   3.6465134942528666e-03   3.1707583095064913e-03   3.3116608090588253e-03   2.8785058533172506e-03   3.0067176226677367e-03   2.6126325396174182e-03   2.7292091886978779e-03   2.3709734275370428e-03   2.4768799863180493e-03   2.1515527433444773e-03   2.2476738449974964e-03   1.9525729033732667e-03   2.0397173420056212e-03   1.7723974194858404e-03   1.8513054208546857e-03   1.6095440143861523e-03   1.6808899893071157e-03   1.4626682995035277e-03   1.5270688149321822e-03   1.3305552881904984e-03   1.3885718966910039e-03   1.2121064487661092e-03   1.2642515756304026e-03   1.1063357091735202e-03   1.1530740498547599e-03   1.0123598997035944e-03   1.0541135062590720e-03   9.2939284982028806e-04   9.6654307803573146e-04   8.5673758503101961e-04   8.8962915130184688e-04   7.9378290618416529e-04   8.2272494802706651e-04   7.3999941327352193e-04   7.6526823421348839e-04   6.9493524733317612e-04   7.1677568887085490e-04   6.5821358912464799e-04   6.7683982109896805e-04   6.2953096198997954e-04   6.4512684829061125e-04   6.0865426874858125e-04   6.2137114382660786e-04   5.9541265622946456e-04   6.0537016190364895e-04   5.8963980432291750e-04   5.9695674508118029e-04   1.3211693048665335e-01   1.2408457866442867e-01   1.2834769311707245e-01   1.1641484654620658e-01   1.2055211969739185e-01   1.0910081342864840e-01   1.1309424359490934e-01   1.0213595710728651e-01   1.0597286075375822e-01   9.5512327735773325e-02   9.9184724986520756e-02   8.9220362677215045e-02   9.2723869850438484e-02   8.3249225251011652e-02   8.6582256642881786e-02   7.7587098255899864e-02   8.0750161687668742e-02   7.2221958308928969e-02   7.5216909054886982e-02   6.7142252681461831e-02   6.9971763459488912e-02   6.2337396138438958e-02   6.5004660856249646e-02   5.7797941360362440e-02   6.0306525678642108e-02   5.3515561766693469e-02   5.5869372658878654e-02   4.9482773409426077e-02   5.1686105123534706e-02   4.5692588273836918e-02   4.7750182631304781e-02   4.2138105167141213e-02   4.4055180412396540e-02   3.8812228838925288e-02   4.0594455369088928e-02   3.5707391392245130e-02   3.7360844046995884e-02   3.2815484132084106e-02   3.4346548063520527e-02   3.0127770567515533e-02   3.1543064182657551e-02   2.7635025026681300e-02   2.8941264048670048e-02   2.5327584651949238e-02   2.6531511516466953e-02   2.3195494539951102e-02   2.4303774640722885e-02   2.1228636334268872e-02   2.2247792249725618e-02   1.9416861810351061e-02   2.0353206883182876e-02   1.7750099466556615e-02   1.8609694273295816e-02   1.6218474137370032e-02   1.7007090458646144e-02   1.4812372155152506e-02   1.5535477038996548e-02   1.3522572136248726e-02   1.4185291828942344e-02   1.2340281653470496e-02   1.2947411831433320e-02   1.1257191698114562e-02   1.1813188091034647e-02   1.0265495207623248e-02   1.0774487093780583e-02   9.3578941770005378e-03   9.8236997358558103e-03   8.5275801319308342e-03   8.9537227815421703e-03   7.7682437212448895e-03   8.1579705738637383e-03   7.0740432669667728e-03   7.4303397103456922e-03   6.4396108980424374e-03   6.7652168195778094e-03   5.8599971779728704e-03   6.1574341204566280e-03   5.3306564628282632e-03   5.6022385106069715e-03   4.8474120131013062e-03   5.0952684069114421e-03   4.4064231396194059e-03   4.6325125253652418e-03   4.0041703754163946e-03   4.2102937234064566e-03   3.6374248468614774e-03   3.8252372887007096e-03   3.3032425807068204e-03   3.4742620573225929e-03   2.9989247837726983e-03   3.1545471254505828e-03   2.7220173710527560e-03   2.8635211145355516e-03   2.4702743485249022e-03   2.5988350347825079e-03   2.2416543253154504e-03   2.3583482543270118e-03   2.0342929590582933e-03   2.1401088564824283e-03   1.8464981785534221e-03   1.9423413247285116e-03   1.6767302982756411e-03   1.7634305609334009e-03   1.5235985491411012e-03   1.6019141587937011e-03   1.3858400784108442e-03   1.4564663398913061e-03   1.2623171912662780e-03   1.3258892308044953e-03   1.1520044815043217e-03   1.2091026592296477e-03   1.0539860325698943e-03   1.1051388456824048e-03   9.6744309546350040e-04   1.0131326344562765e-03   8.9165191902668703e-04   9.3231583594167978e-04   8.2597616097451797e-04   8.6201177426760498e-04   7.6986428497123789e-04   8.0163038381132409e-04   7.2284386836981814e-04   7.5066386073435623e-04   6.8451858868129073e-04   7.0868241305426058e-04   6.5456421248590762e-04   6.7532993927875711e-04   6.3272348248908923e-04   6.5032088174404770e-04   6.1879365800867844e-04   6.3343031842554996e-04   6.1260529541536676e-04   6.2448491807304859e-04   1.2958816451441824e-01   1.2188387366234928e-01   1.2665916255867624e-01   1.1447095896058215e-01   1.1912541548472783e-01   1.0735997334559445e-01   1.1186650432392245e-01   1.0055568292914158e-01   1.0489566572022656e-01   9.4058501800882877e-02   9.8219342774612986e-02   8.7865321302922975e-02   9.1839282973493683e-02   8.1970129009502096e-02   8.5753290065195983e-02   7.6365117119689907e-02   7.9956125640070139e-02   7.1042225611357257e-02   7.4441313169695586e-02   6.5993807371938371e-02   6.9202394817811375e-02   6.1213056629597952e-02   6.4233475031461887e-02   5.6694061260587583e-02   5.9529451309203382e-02   5.2431583447711975e-02   5.5085930050664936e-02   4.8420550016738853e-02   5.0898752183573689e-02   4.4655611701194038e-02   4.6963470236053767e-02   4.1130742210861396e-02   4.3274871849371732e-02   3.7839062288266230e-02   3.9826759670307729e-02   3.4772719866164176e-02   3.6611792947176008e-02   3.1923014415716149e-02   3.3621609816306915e-02   2.9280425664565034e-02   3.0846882224096824e-02   2.6834869568624267e-02   2.8277543288344122e-02   2.4575802646947534e-02   2.5902969497745901e-02   2.2492446784107598e-02   2.3712176728199686e-02   2.0573931507047217e-02   2.1694016142322636e-02   1.8809453219408891e-02   1.9837346918101104e-02   1.7188393429863034e-02   1.8131163503973233e-02   1.5700461397674458e-02   1.6564763945628547e-02   1.4335752870170857e-02   1.5127820117381494e-02   1.3084872714006161e-02   1.3810496538967239e-02   1.1938932757642138e-02   1.2603489449009707e-02   1.0889612270076706e-02   1.1498063483694998e-02   9.9291324412015269e-03   1.0486054660934508e-02   9.0502727275342792e-03   9.5598780423174785e-03   8.2463375383942019e-03   8.7124979002232636e-03   7.5111586825683694e-03   7.9374302193314320e-03   6.8390561173147174e-03   7.2287018381401499e-03   6.2248171759308919e-03   6.5808333468876674e-03   5.6636468784449804e-03   5.9887885347048543e-03   5.1511479233139895e-03   5.4479441574187826e-03   4.6832840411062367e-03   4.9540627731579200e-03   4.2563554133343380e-03   4.5032560231623485e-03   3.8669730488634217e-03   4.0919674857314058e-03   3.5120330070249339e-03   3.7169312158982634e-03   3.1887067394673310e-03   3.3751728257096813e-03   2.8944056751340078e-03   3.0639686716380028e-03   2.6267708643674726e-03   2.7808375174467278e-03   2.3836471521218789e-03   2.5235088789405946e-03   2.1630734147598941e-03   2.2899176354814902e-03   1.9632626106755725e-03   2.0781787085646731e-03   1.7825935465201031e-03   1.8865824072900857e-03   1.6195938007244398e-03   1.7135729321034296e-03   1.4729319655166786e-03   1.5577438698869516e-03   1.3414032805353470e-03   1.4178198499213898e-03   1.2239250524122523e-03   1.2926537699778577e-03   1.1195252825699478e-03   1.1812134825083013e-03   1.0273380907769641e-03   1.0825781278627155e-03   9.4659489304357847e-04   9.9592783782485156e-04   8.7662152021311917e-04   9.2054097400292645e-04   8.1683116033940426e-04   8.5578695453680277e-04   7.6672094413906514e-04   8.0112243170292149e-04   7.2586727172725067e-04   7.5608610988331317e-04   6.9392211167961741e-04   7.2029592942785220e-04   6.7060690663822502e-04   6.9344272794835096e-04   6.5570923144656177e-04   6.7528874701185918e-04   6.4907299457753046e-04   6.6566098458915640e-04   1.2917653927725192e-01   1.2168017284482482e-01   1.2695934340942353e-01   1.1441037917452250e-01   1.1957257665508839e-01   1.0739156360890320e-01   1.1240239289464986e-01   1.0063924284300295e-01   1.0547380191757673e-01   9.4162550793528546e-02   9.8803683424545277e-02   8.7964178192114065e-02   9.2401195955273088e-02   8.2042928747340746e-02   8.6269256964946001e-02   7.6396013533172200e-02   8.0407792087004548e-02   7.1020383373591831e-02   7.4815843072518845e-02   6.5913242142244713e-02   6.9492274962505068e-02   6.1072498903563741e-02   6.4436398063958511e-02   5.6496425260938968e-02   5.9647979266324966e-02   5.2183018300138183e-02   5.5126601606109382e-02   4.8129330733033514e-02   5.0870844614702287e-02   4.4331062866552584e-02   4.6877767292048338e-02   4.0782367770737092e-02   4.3142600960170828e-02   3.7475945000281341e-02   3.9658852978711155e-02   3.4403107473659877e-02   3.6418381807276350e-02   3.1554073876987096e-02   3.3411705594304675e-02   2.8918150282471976e-02   3.0628220860033251e-02   2.6484037086067960e-02   2.8056538647850088e-02   2.4240038493269934e-02   2.5684726242865486e-02   2.2174309514773897e-02   2.3500596837207875e-02   2.0275022245000204e-02   2.1491896025909143e-02   1.8530568058745422e-02   1.9646529857593870e-02   1.6929674138835279e-02   1.7952705628697763e-02   1.5461538036872037e-02   1.6399087474912463e-02   1.4115898557542405e-02   1.4974871041044162e-02   1.2883106663638986e-02   1.3669890321428924e-02   1.1754110706671657e-02   1.2474595548072771e-02   1.0720503147291453e-02   1.1380106268459610e-02   9.7744729955063711e-03   1.0378174042942303e-02   8.9088200405495997e-03   9.4611878831232215e-03   8.1169086172188550e-03   8.6221360501639709e-03   7.3926496996626267e-03   7.8545828740545342e-03   6.7304524348238397e-03   7.1526209848228250e-03   6.1251925051700748e-03   6.5108381810102620e-03   5.5721631580705044e-03   5.9242678537249115e-03   5.0670581739175819e-03   5.3883604180923394e-03   4.6059307409422930e-03   4.8989523709249833e-03   4.1851663423715614e-03   4.4522273329616335e-03   3.8014549623215654e-03   4.0446941500462651e-03   3.4517706830368379e-03   3.6731532641024549e-03   3.1333530941435235e-03   3.3346878356761483e-03   2.8436783367820121e-03   3.0266298930402042e-03   2.5804413406561133e-03   2.7465432787047209e-03   2.3415409534808381e-03   2.4922022144816466e-03   2.1250641371598372e-03   2.2615815870016911e-03   1.9292713007583043e-03   2.0528364911818705e-03   1.7525832167900083e-03   1.8642924068530929e-03   1.5935682493312257e-03   1.6944282592846951e-03   1.4509325704792752e-03   1.5418689622580595e-03   1.3235102225193946e-03   1.4053724416495850e-03   1.2102555057009025e-03   1.2838235975818177e-03   1.1102343021595091e-03   1.1762236207472009e-03   1.0226186774744638e-03   1.0816853077111528e-03   9.4667997937525469e-04   9.9942499461147831e-04   8.8178457913879382e-04   9.2875845258269768e-04   8.2738807629282641e-04   8.6909477075813207e-04   7.8303182355534773e-04   8.1993267657707257e-04   7.4833803766698463e-04   7.8085549587182451e-04   7.2300747302835998e-04   7.5152939213891619e-04   7.0681478321459848e-04   7.3169813831674708e-04   6.9961090129587770e-04   7.2118565877412287e-04   1.3060723332856802e-01   1.2321002945192785e-01   1.2896936126244507e-01   1.1597809567877861e-01   1.2162695477565547e-01   1.0894863270466337e-01   1.1444510671129235e-01   1.0214867754334643e-01   1.0746168868264575e-01   9.5594015777346220e-02   1.0070261191102828e-01   8.9292782647288557e-02   9.4182406091475823e-02   8.3250157155958168e-02   8.7910355089408129e-02   7.7469756430221901e-02   8.1893504350040003e-02   7.1954671196316281e-02   7.6137612750589320e-02   6.6708416568969434e-02   7.0648323076903816e-02   6.1734679523752639e-02   6.5431676311259068e-02   5.7036097911004065e-02   6.0492918745092265e-02   5.2613381634978383e-02   5.5835228344834238e-02   4.8464811431639457e-02   5.1459002781745117e-02   4.4586224529314405e-02   4.7361763467596740e-02   4.0971156596804857e-02   4.3538290660355403e-02   3.7611195999108199e-02   3.9981037132646453e-02   3.4496251025289561e-02   3.6680430652453043e-02   3.1614985940510584e-02   3.3625344472686038e-02   2.8955141547620508e-02   3.0803479134881892e-02   2.6503899295461025e-02   2.8201777134285320e-02   2.4248159403439745e-02   2.5806742349091263e-02   2.2174816589953624e-02   2.3604765228182324e-02   2.0270960738915308e-02   2.1582350210852256e-02   1.8524084784771730e-02   1.9726358046470781e-02   1.6922201801505280e-02   1.8024150353685035e-02   1.5453965926842674e-02   1.6463732257499281e-02   1.4108718646932856e-02   1.5033808528207552e-02   1.2876521751340131e-02   1.3723849396935099e-02   1.1748126861283445e-02   1.2524046811219153e-02   1.0715006688894350e-02   1.1425346642659505e-02   9.7692931273555585e-03   1.0419401935032111e-02   8.9037684595708044e-03   9.4985494642221748e-03   8.1118099220894840e-03   8.6557604981777007e-03   7.3873517069476709e-03   7.8846005127737526e-03   6.7248332653073927e-03   7.1791718643584995e-03   6.1191656462700949e-03   6.5340795710861722e-03   5.5656855523363120e-03   5.9443808176149514e-03   5.0601281380110354e-03   5.4055543334861102e-03   4.5985854798424016e-03   4.9134604186751238e-03   4.1774802274706551e-03   4.4643068109227642e-03   3.7935396471012691e-03   4.0546241254310533e-03   3.4437722316420197e-03   3.6812385929590164e-03   3.1254441436810269e-03   3.3412492719878026e-03   2.8360562948843795e-03   3.0320035047773281e-03   2.5733272708289047e-03   2.7510776551046669e-03   2.3351786930305113e-03   2.4962616686839607e-03   2.1197190572800556e-03   2.2655426449379244e-03   1.9252289993982661e-03   2.0570895496241906e-03   1.7501485409091081e-03   1.8692394095167308e-03   1.5930664851431834e-03   1.7004855753828515e-03   1.4527104935612382e-03   1.5494678466318088e-03   1.3279374117537433e-03   1.4149619475920870e-03   1.2177264141874952e-03   1.2958721100695533e-03   1.1211710069819849e-03   1.1912229108576519e-03   1.0374734314609331e-03   1.1001530323252583e-03   9.6593857848183487e-04   1.0219088486781614e-03   9.0596948703251139e-04   9.5583980279847114e-04   8.5706267936498128e-04   9.0139324071589969e-04   8.1880455360235310e-04   8.5811138455151915e-04   7.9086782393937810e-04   8.2562607603356268e-04   7.7301210231447981e-04   8.0366046221770258e-04   7.6508221215605156e-04   7.9202593705996675e-04   1.3357997101924210e-01   1.2618622223785766e-01   1.3238372677643370e-01   1.1890196153092440e-01   1.2499758932364580e-01   1.11776211