<?xml version="1.0"?>
<VTKFile type="UnstructuredGrid"  version="0.1"  >
<UnstructuredGrid>
<Piece  NumberOfPoints="2374" NumberOfCells="4549">
<Points>
<DataArray  type="Float64"  NumberOfComponents="3"  format="ascii">2.288260869565217 0 0  2.296521739130434 0 0  2.296521739130434 0.008333333333333333 0  2.304782608695652 0 0  2.304782608695652 0.008333333333333333 0  2.31304347826087 0 0  2.31304347826087 0.008333333333333333 0  2.321304347826087 0 0  2.321304347826087 0.008333333333333333 0  2.329565217391304 0 0  2.329565217391304 0.008333333333333333 0  2.337826086956521 0 0  2.337826086956521 0.008333333333333333 0  2.346086956521739 0 0  2.346086956521739 0.008333333333333333 0  2.354347826086956 0 0  2.354347826086956 0.008333333333333333 0  2.362608695652174 0 0  2.362608695652174 0.008333333333333333 0  2.370869565217391 0 0  2.370869565217391 0.008333333333333333 0  2.379130434782609 0 0  2.379130434782609 0.008333333333333333 0  2.387391304347826 0 0  2.387391304347826 0.008333333333333333 0  2.395652173913044 0 0  2.395652173913044 0.008333333333333333 0  2.403913043478261 0 0  2.403913043478261 0.008333333333333333 0  2.412173913043478 0 0  2.412173913043478 0.008333333333333333 0  2.420434782608695 0 0  2.420434782608695 0.008333333333333333 0  2.428695652173913 0 0  2.428695652173913 0.008333333333333333 0  2.43695652173913 0 0  2.43695652173913 0.008333333333333333 0  2.445217391304348 0 0  2.445217391304348 0.008333333333333333 0  2.453478260869565 0 0  2.453478260869565 0.008333333333333333 0  2.461739130434782 0 0  2.461739130434782 0.008333333333333333 0  2.47 0 0  2.47 0.008333333333333333 0  2.478260869565217 0 0  2.478260869565217 0.008333333333333333 0  2.486521739130435 0 0  2.486521739130435 0.008333333333333333 0  2.494782608695652 0 0  2.494782608695652 0.008333333333333333 0  2.503043478260869 0 0  2.503043478260869 0.008333333333333333 0  2.511304347826087 0 0  2.511304347826087 0.008333333333333333 0  2.519565217391305 0 0  2.519565217391305 0.008333333333333333 0  2.527826086956522 0 0  2.527826086956522 0.008333333333333333 0  2.536086956521739 0 0  2.536086956521739 0.008333333333333333 0  2.544347826086956 0 0  2.544347826086956 0.008333333333333333 0  2.552608695652174 0 0  2.552608695652174 0.008333333333333333 0  2.560869565217391 0 0  2.560869565217391 0.008333333333333333 0  2.569130434782608 0 0  2.569130434782608 0.008333333333333333 0  2.577391304347826 0 0  2.577391304347826 0.008333333333333333 0  2.585652173913043 0 0  2.585652173913043 0.008333333333333333 0  2.593913043478261 0 0  2.593913043478261 0.008333333333333333 0  2.602173913043478 0 0  2.602173913043478 0.008333333333333333 0  2.610434782608696 0 0  2.610434782608696 0.008333333333333333 0  2.618695652173913 0 0  2.618695652173913 0.008333333333333333 0  2.62695652173913 0 0  2.62695652173913 0.008333333333333333 0  2.635217391304348 0 0  2.635217391304348 0.008333333333333333 0  2.643478260869565 0 0  2.643478260869565 0.008333333333333333 0  2.651739130434783 0 0  2.651739130434783 0.008333333333333333 0  2.66 0 0  2.66 0.008333333333333333 0  2.668260869565217 0 0  2.668260869565217 0.008333333333333333 0  2.304782608695652 0.01666666666666667 0  2.31304347826087 0.01666666666666667 0  2.321304347826087 0.01666666666666667 0  2.329565217391304 0.01666666666666667 0  2.337826086956521 0.01666666666666667 0  2.346086956521739 0.01666666666666667 0  2.354347826086956 0.01666666666666667 0  2.362608695652174 0.01666666666666667 0  2.370869565217391 0.01666666666666667 0  2.379130434782609 0.01666666666666667 0  2.387391304347826 0.01666666666666667 0  2.395652173913044 0.01666666666666667 0  2.403913043478261 0.01666666666666667 0  2.412173913043478 0.01666666666666667 0  2.420434782608695 0.01666666666666667 0  2.428695652173913 0.01666666666666667 0  2.43695652173913 0.01666666666666667 0  2.445217391304348 0.01666666666666667 0  2.453478260869565 0.01666666666666667 0  2.461739130434782 0.01666666666666667 0  2.47 0.01666666666666667 0  2.478260869565217 0.01666666666666667 0  2.486521739130435 0.01666666666666667 0  2.494782608695652 0.01666666666666667 0  2.503043478260869 0.01666666666666667 0  2.511304347826087 0.01666666666666667 0  2.519565217391305 0.01666666666666667 0  2.527826086956522 0.01666666666666667 0  2.536086956521739 0.01666666666666667 0  2.544347826086956 0.01666666666666667 0  2.552608695652174 0.01666666666666667 0  2.560869565217391 0.01666666666666667 0  2.569130434782608 0.01666666666666667 0  2.577391304347826 0.01666666666666667 0  2.585652173913043 0.01666666666666667 0  2.593913043478261 0.01666666666666667 0  2.602173913043478 0.01666666666666667 0  2.610434782608696 0.01666666666666667 0  2.618695652173913 0.01666666666666667 0  2.62695652173913 0.01666666666666667 0  2.635217391304348 0.01666666666666667 0  2.643478260869565 0.01666666666666667 0  2.651739130434783 0.01666666666666667 0  2.66 0.01666666666666667 0  2.668260869565217 0.01666666666666667 0  2.676521739130435 0.01666666666666667 0  2.31304347826087 0.025 0  2.321304347826087 0.025 0  2.329565217391304 0.025 0  2.337826086956521 0.025 0  2.346086956521739 0.025 0  2.354347826086956 0.025 0  2.362608695652174 0.025 0  2.370869565217391 0.025 0  2.379130434782609 0.025 0  2.387391304347826 0.025 0  2.395652173913044 0.025 0  2.403913043478261 0.025 0  2.412173913043478 0.025 0  2.420434782608695 0.025 0  2.428695652173913 0.025 0  2.43695652173913 0.025 0  2.445217391304348 0.025 0  2.453478260869565 0.025 0  2.461739130434782 0.025 0  2.47 0.025 0  2.478260869565217 0.025 0  2.486521739130435 0.025 0  2.494782608695652 0.025 0  2.503043478260869 0.025 0  2.511304347826087 0.025 0  2.519565217391305 0.025 0  2.527826086956522 0.025 0  2.536086956521739 0.025 0  2.544347826086956 0.025 0  2.552608695652174 0.025 0  2.560869565217391 0.025 0  2.569130434782608 0.025 0  2.577391304347826 0.025 0  2.585652173913043 0.025 0  2.593913043478261 0.025 0  2.602173913043478 0.025 0  2.610434782608696 0.025 0  2.618695652173913 0.025 0  2.62695652173913 0.025 0  2.635217391304348 0.025 0  2.643478260869565 0.025 0  2.651739130434783 0.025 0  2.66 0.025 0  2.668260869565217 0.025 0  2.676521739130435 0.025 0  2.684782608695652 0.025 0  2.321304347826087 0.03333333333333333 0  2.329565217391304 0.03333333333333333 0  2.337826086956521 0.03333333333333333 0  2.346086956521739 0.03333333333333333 0  2.354347826086956 0.03333333333333333 0  2.362608695652174 0.03333333333333333 0  2.370869565217391 0.03333333333333333 0  2.379130434782609 0.03333333333333333 0  2.387391304347826 0.03333333333333333 0  2.395652173913044 0.03333333333333333 0  2.403913043478261 0.03333333333333333 0  2.412173913043478 0.03333333333333333 0  2.420434782608695 0.03333333333333333 0  2.428695652173913 0.03333333333333333 0  2.43695652173913 0.03333333333333333 0  2.445217391304348 0.03333333333333333 0  2.453478260869565 0.03333333333333333 0  2.461739130434782 0.03333333333333333 0  2.47 0.03333333333333333 0  2.478260869565217 0.03333333333333333 0  2.486521739130435 0.03333333333333333 0  2.494782608695652 0.03333333333333333 0  2.503043478260869 0.03333333333333333 0  2.511304347826087 0.03333333333333333 0  2.519565217391305 0.03333333333333333 0  2.527826086956522 0.03333333333333333 0  2.536086956521739 0.03333333333333333 0  2.544347826086956 0.03333333333333333 0  2.552608695652174 0.03333333333333333 0  2.560869565217391 0.03333333333333333 0  2.569130434782608 0.03333333333333333 0  2.577391304347826 0.03333333333333333 0  2.585652173913043 0.03333333333333333 0  2.593913043478261 0.03333333333333333 0  2.602173913043478 0.03333333333333333 0  2.610434782608696 0.03333333333333333 0  2.618695652173913 0.03333333333333333 0  2.62695652173913 0.03333333333333333 0  2.635217391304348 0.03333333333333333 0  2.643478260869565 0.03333333333333333 0  2.651739130434783 0.03333333333333333 0  2.66 0.03333333333333333 0  2.668260869565217 0.03333333333333333 0  2.676521739130435 0.03333333333333333 0  2.684782608695652 0.03333333333333333 0  2.693043478260869 0.03333333333333333 0  2.329565217391304 0.04166666666666666 0  2.337826086956521 0.04166666666666666 0  2.346086956521739 0.04166666666666666 0  2.354347826086956 0.04166666666666666 0  2.362608695652174 0.04166666666666666 0  2.370869565217391 0.04166666666666666 0  2.379130434782609 0.04166666666666666 0  2.387391304347826 0.04166666666666666 0  2.395652173913044 0.04166666666666666 0  2.403913043478261 0.04166666666666666 0  2.412173913043478 0.04166666666666666 0  2.420434782608695 0.04166666666666666 0  2.428695652173913 0.04166666666666666 0  2.43695652173913 0.04166666666666666 0  2.445217391304348 0.04166666666666666 0  2.453478260869565 0.04166666666666666 0  2.461739130434782 0.04166666666666666 0  2.47 0.04166666666666666 0  2.478260869565217 0.04166666666666666 0  2.486521739130435 0.04166666666666666 0  2.494782608695652 0.04166666666666666 0  2.503043478260869 0.04166666666666666 0  2.511304347826087 0.04166666666666666 0  2.519565217391305 0.04166666666666666 0  2.527826086956522 0.04166666666666666 0  2.536086956521739 0.04166666666666666 0  2.544347826086956 0.04166666666666666 0  2.552608695652174 0.04166666666666666 0  2.560869565217391 0.04166666666666666 0  2.569130434782608 0.04166666666666666 0  2.577391304347826 0.04166666666666666 0  2.585652173913043 0.04166666666666666 0  2.593913043478261 0.04166666666666666 0  2.602173913043478 0.04166666666666666 0  2.610434782608696 0.04166666666666666 0  2.618695652173913 0.04166666666666666 0  2.62695652173913 0.04166666666666666 0  2.635217391304348 0.04166666666666666 0  2.643478260869565 0.04166666666666666 0  2.651739130434783 0.04166666666666666 0  2.66 0.04166666666666666 0  2.668260869565217 0.04166666666666666 0  2.676521739130435 0.04166666666666666 0  2.684782608695652 0.04166666666666666 0  2.693043478260869 0.04166666666666666 0  2.701304347826087 0.04166666666666666 0  2.337826086956521 0.05 0  2.34608695652
[...]
<CellData  Scalars="sigma_m"> 
<DataArray  type="Float64"  Name="sigma_m"  format="ascii">5.3625432537268875e+06   5.5572130459156437e+06   5.2533176099586692e+06   5.7286484901043018e+06   5.2908126656241864e+06   5.8545803806551369e+06   5.3126814526168797e+06   5.9524994828029415e+06   5.3262111796277361e+06   6.0451370924128611e+06   5.3383236262655798e+06   6.1491904767951807e+06   5.3574201780350637e+06   6.2618424532370567e+06   5.3843310555526493e+06   6.3702105573668443e+06   5.4147034431434283e+06   6.4643252687224066e+06   5.4454404322817959e+06   6.5303942090460323e+06   5.4679683400732912e+06   6.5583251502669500e+06   5.4740151809548922e+06   6.5475648742107796e+06   5.4613895647497587e+06   6.4963622541627791e+06   5.4267687923736712e+06   6.4016581825281885e+06   5.3656073247637069e+06   6.2568756894117063e+06   5.2711386627538558e+06   6.0543453075416312e+06   5.1352777338312101e+06   5.7924221188088227e+06   4.9534422327179173e+06   5.4854120469828323e+06   4.7317676589508737e+06   5.1645190585051645e+06   4.4893061985429386e+06   4.8705898486580886e+06   4.2541442685687365e+06   4.6442800115000671e+06   4.0568087901581810e+06   4.5164725221443214e+06   3.9226051660029022e+06   4.4998355967748864e+06   3.8641182835004171e+06   4.5826519114633529e+06   3.8758183651830442e+06   4.7283709936438035e+06   3.9337285341059831e+06   4.8946648262047106e+06   4.0105226117210183e+06   5.0488893842546949e+06   4.0862819400555836e+06   5.1726399116937080e+06   4.1510319819960250e+06   5.2531380615101587e+06   4.1973717158534909e+06   5.2909739644473940e+06   4.2247069642718639e+06   5.2878923435770236e+06   4.2326355235552294e+06   5.2534608304715352e+06   4.2286439655327350e+06   5.1898165608856613e+06   4.2201219896336440e+06   5.0883158490483314e+06   4.2048579559560455e+06   4.9399225614397405e+06   4.1836487873725644e+06   4.7633669492165586e+06   4.1557928492507837e+06   4.6106584117908468e+06   4.1296435183719429e+06   4.5021961098436806e+06   4.1107035337915113e+06   4.4266448354023183e+06   4.0945780476945201e+06   4.3683224185446706e+06   4.0779066246743067e+06   4.3175324578179475e+06   4.0602854253682755e+06   4.2696979198545869e+06   4.0420868209270751e+06   4.2229391878675791e+06   4.0236261784110833e+06   4.1765526657470027e+06   4.0050686720766365e+06   4.1302985272500506e+06   3.9864851984238042e+06   5.2531687135421168e+06   5.2829821100910408e+06   4.8536778398428718e+06   5.2906456921733301e+06   4.7607844029750833e+06   5.2952232228859421e+06   4.6766521374211879e+06   5.3024598472298300e+06   4.5981977055678200e+06   5.3214337295612218e+06   4.5259221888665827e+06   5.3472792054492515e+06   4.4657411802074788e+06   5.3736703481597546e+06   4.4202154195101475e+06   5.3991881523467591e+06   4.3951396719785752e+06   5.4125155288918484e+06   4.3820485147488080e+06   5.4075845133220972e+06   4.3698062273958586e+06   5.3863780936687579e+06   4.3603956396643706e+06   5.3443682077404773e+06   4.3518195812973948e+06   5.2777434793884382e+06   4.3376872778656427e+06   5.1789057481142953e+06   4.3081105958025595e+06   5.0394800237090653e+06   4.2468132099209866e+06   4.8551391797027411e+06   4.1373220164421936e+06   4.6333382418441409e+06   3.9730478552919384e+06   4.3929086007624492e+06   3.7636782701500105e+06   4.1613857897953470e+06   3.5330645210302519e+06   3.9709371657550037e+06   3.3154958487153989e+06   3.8503883357002791e+06   3.1483242331225993e+06   3.8135042476596092e+06   3.0580275143942065e+06   3.8491731584008420e+06   3.0432278128916407e+06   3.9224135155126057e+06   3.0676075826950180e+06   4.0016126581274681e+06   3.0954232748070601e+06   4.0692169438489359e+06   3.1124569416604904e+06   4.1209216227851552e+06   3.1215723102689111e+06   4.1506578123237784e+06   3.1263215677296445e+06   4.1642355766784865e+06   3.1345930809359616e+06   4.1599996515258793e+06   3.1414487017512466e+06   4.1509738200069116e+06   3.1520712990201893e+06   4.1408233431664696e+06   3.1867044707006840e+06   4.1230858733794405e+06   3.2463516135545955e+06   4.1024527454298548e+06   3.3124152777723297e+06   4.0820660116068027e+06   3.4565811885488038e+06   4.0755593728823499e+06   3.6059340027400940e+06   4.0724292275974005e+06   3.6900348338938267e+06   4.0650760939034801e+06   3.7376458587904656e+06   4.0532409058054825e+06   3.7647995174041768e+06   4.0387740008881805e+06   3.7820998397195237e+06   4.0230897707598819e+06   3.7953124558311515e+06   4.0069190932076313e+06   3.8070192608571653e+06   3.9905793347963132e+06   3.8182395985046327e+06   3.9741941309584687e+06   3.8293336395318578e+06   3.8404145349071436e+06   4.8296491320207501e+06   4.7214701702294275e+06   4.1616035905351327e+06   4.6331265717911776e+06   4.0175764650451131e+06   4.5498228363681110e+06   3.8848265992639163e+06   4.4783590225435067e+06   3.7183194361043940e+06   4.4185564630187629e+06   3.5343171407084386e+06   4.3715432666083639e+06   3.3972794528434216e+06   4.3464154920930760e+06   3.3219395377515387e+06   4.3243783524383074e+06   3.2873732097572456e+06   4.2987022683671033e+06   3.2691903836621167e+06   4.2801711127635818e+06   3.2759761027341415e+06   4.2613529107710291e+06   3.3089944726860262e+06   4.2389446382780327e+06   3.3591141285885880e+06   4.2002328629859742e+06   3.4142983853439419e+06   4.1275400861259247e+06   3.4452693752502189e+06   4.0046021866850243e+06   3.4174902133916370e+06   3.8308958287381809e+06   3.3055479101370373e+06   3.6193686664987579e+06   3.1093649971727920e+06   3.3945539930790220e+06   2.8504528287848644e+06   3.1921991943917009e+06   2.5706246293753916e+06   3.0520712860150482e+06   2.3296321650640424e+06   2.9992812234823951e+06   2.1867995961425160e+06   3.0222025333995949e+06   2.1563895324196503e+06   3.0680713069359334e+06   2.1713513437967324e+06   3.0993155768826478e+06   2.1701351491966732e+06   3.1064682590320236e+06   2.1411644362450517e+06   3.1005779273563903e+06   2.1000520202553663e+06   3.0848475056831008e+06   2.0490860164566026e+06   3.0776604838981037e+06   2.0401678925630488e+06   3.0648565764667769e+06   2.0502641133509404e+06   3.0698738679137304e+06   2.0568173761412522e+06   3.1059345998361860e+06   2.0851746929058945e+06   3.1618834236612292e+06   2.1839172295654439e+06   3.2224269582022550e+06   2.3318120741711408e+06   3.4169380312173185e+06   2.4839737908261088e+06   3.5730731542865480e+06   3.3616120634463015e+06   3.6650854088486498e+06   3.4086086343206353e+06   3.7151369635067787e+06   3.4310517541456865e+06   3.7435239254529937e+06   3.4677384725385588e+06   3.7623542244006586e+06   3.5077365034041321e+06   3.7774597038692967e+06   3.5483417999910861e+06   3.7912636032074159e+06   3.5890284310833123e+06   3.8046721009314437e+06   3.6297874605338979e+06   3.8179903110485366e+06   3.6706290830202992e+06   3.8313097383875283e+06   3.7115304201742834e+06   3.7524861531755086e+06   4.1003909431789001e+06   3.9527286458538412e+06   3.4734205762316231e+06   3.8261947674658080e+06   3.1485572673733947e+06   3.6470361058277222e+06   3.1555734387704902e+06   3.4560746525066369e+06   2.5883369431985291e+06   3.3180199319045702e+06   2.2977392053243420e+06   3.2539920543300235e+06   2.1752784626684580e+06   3.2119353082267004e+06   2.1400888238891703e+06   3.1791953346232856e+06   2.1266172011872018e+06   3.1832587296300842e+06   2.1629928174702255e+06   3.2050391468364117e+06   2.2570121532479138e+06   3.2469819131780029e+06   2.3901677434019889e+06   3.2875594908614382e+06   2.5594035526140411e+06   3.2939279004804320e+06   2.7173502451869869e+06   3.2324017693117186e+06   2.8068811494755112e+06   3.0977497658079537e+06   2.7726566233403585e+06   2.8996588444197867e+06   2.6052600714100543e+06   2.6590139844186283e+06   2.3222803154840074e+06   2.4138536000029393e+06   1.9629604645574091e+06   2.2204604573788480e+06   1.5987930120332835e+06   2.1320812176727843e+06   1.3403463664555857e+06   2.1487898966159807e+06   1.2682910485403019e+06   2.1817984893575949e+06   1.2723920710346964e+06   2.1746113627153845e+06   1.2433749252267780e+06   2.1264227793883565e+06   1.1720116617515867e+06   2.0653081847908874e+06   1.0938924959279397e+06   1.9832277392386601e+06   1.0070928858920236e+06   1.9874013805185920e+06   8.5481582801567100e+05   1.9613417108681821e+06   1.0030371138330447e+06   1.9764866354808470e+06   9.5108549621518282e+05   2.0146543083565235e+06   9.8915135777626641e+05   2.1501636952672857e+06   9.4100218563849572e+05   2.3218252448872435e+06   1.1974689690782130e+06   2.4467163841243535e+06   1.8970795123380185e+06   3.0884530551554090e+06   2.0741877271364483e+06   3.0979376042395225e+06   2.1895770666282452e+06   3.1116137471035914e+06   2.2169313405177840e+06   3.1420338171295431e+06   2.2552175420293217e+06   3.1779619917636006e+06   2.3031757801874606e+06   3.2156216161445198e+06   2.3532621365829646e+06   3.2538056405134937e+06   2.4033386819841159e+06   3.2921684118995159e+06   2.4531852395557659e+06   3.3306021297528464e+06   2.5029348482242031e+06   3.3690653605191424e+06   2.5526535904418444e+06   3.4075535173952263e+06   2.6023063563630022e+06   2.6516777199357273e+06   2.2088951128368573e+06   2.7203700843711654e+06   1.5127875666222337e+03   2.7954368157784981e+06   1.4249029138857026e+06   2.4050284131632056e+06   1.4766464260962170e+06   2.1463618390731211e+06   1.3784360891040044e+06   2.0637167688960899e+06   9.5322349554590078e+05   2.0151066833105127e+06   1.0335869552663175e+06   1.9961824817659571e+06   9.4874067726661731e+05   2.0607208759463772e+06   9.9600233498557948e+05   2.1448374183099759e+06   1.1720171511740594e+06   2.2807578249131842e+06   1.3932719329336954e+06   2.4303766812785966e+06   1.7155061001285650e+06   2.5388433775486294e+06   2.0553398454614202e+06   2.5509446155347964e+06   2.3308984076691498e+06   2.4730713142312495e+06   2.4272017849912620e+06   2.3150222977582891e+06   2.3394349510248979e+06   2.0853083118078280e+06   2.0933148855653016e+06   1.8032464532799083e+06   1.7186811474542776e+06   1.5163119279999766e+06   1.2612288256729718e+06   1.3145872442529218e+06   8.0969339929391374e+05   1.2770483169122767e+06   5.3216657058485469e+05   1.2837803819269929e+06   4.3442659263709566e+05   1.2209894714351443e+06   4.6391625263600174e+05   1.0959699098304885e+06   5.6206047944100644e+05   9.8098974285998417e+05   6.0476313329153112e+05   8.0004192209953081e+05   8.1972203691182344e+05   7.3528054281104892e+05   6.0777145055860712e+05   7.9944144644591596e+05   1.0041335527503720e+06   7.5245942941696872e+05   7.4372335001258634e+05   7.1503607823456288e+05   1.2307728383123437e+05   1.3217154426782625e+05   1.4788142182733679e+00   6.5582718565698013e+00   3.0885946519017427e-05   2.5593339673038841e-03   6.6426737981086703e-09   8.8670747542325909e-06   0.0000000000000000e+00   1.9521199192935614e-07   0.0000000000000000e+00   1.8018249950814355e-08   0.0000000000000000e+00   5.9486964162234247e-09   0.0000000000000000e+00   4.2357034219091652e-09   0.0000000000000000e+00   5.1995176793528766e-09   0.0000000000000000e+00   7.1732724004764791e-09   0.0000000000000000e+00   8.6188337593998804e-09   0.0000000000000000e+00   7.5605923470797850e-09   0.0000000000000000e+00   5.0372913809316945e-09   0.0000000000000000e+00   2.7841440084550294e-09   0.0000000000000000e+00   1.2788776197589761e-09   0.0000000000000000e+00   0.0000000000000000e+00   0.0000000000000000e+00   0.0000000000000000e+00   0.0000000000000000e+00   1.1340334361338999e-05   0.0000000000000000e+00   6.8342321927753815e+01   1.8818617445699980e-08   5.9010374489849515e+05   3.2721782064718302e-01   8.8324902291014674e+05   5.1996121722452465e+05   8.2308686093163269e+05   4.3323810117995681e+05   9.9698709606333659e+05   3.1278376166724286e+05   1.1335478786960659e+06   3.8478188548475783e+05   1.3966302343300667e+06   4.3211313896592311e+05   1.6836536483636145e+06   8.9507652181639150e+05   1.9065988255946983e+06   1.4660437901867493e+06   1.9868932082149982e+06   2.0239312616262424e+06   2.0016676645714259e+06   2.2940476871649907e+06   1.9602429121935377e+06   2.3287968347621849e+06   1.8515377201847006e+06   2.2007357056149496e+06   1.6535117547425469e+06   1.9441003232968561e+06   1.3364110225200604e+06   1.5842470276695953e+06   8.9177593739984301e+05   1.1549943960786217e+06   5.0188015504539292e+05   7.1916418271997129e+05   4.0497247920583939e+05   5.6041170585811860e+05   3.5373761550538981e+05   8.7277862977544859e+05   4.8742334504936734e+05   1.1829282445338990e+06   7.1071069345884980e+05   1.3569208620085474e+06   5.0732039913577650e+05   1.8062003804247249e+06   4.6398086435638616e+04   5.5312955602844329e+02   1.7337603691108362e-02   4.3063305834973780e-06   1.3154820550878369e-09   0.0000000000000000e+00   0.0000000000000000e+00   0.0000000000000000e+00   0.0000000000000000e+00   0.0000000000000000e+00   0.0000000000000000e+00   0.0000000000000000e+00   0.0000000000000000e+00   0.0000000000000000e+00   0.0000000000000000e+00   0.0000000000000000e+00   0.0000000000000000e+00   0.0000000000000000e+00   0.0000000000000000e+00   0.0000000000000000e+00   0.0000000000000000e+00   0.0000000000000000e+00   0.0000000000000000e+00   0.0000000000000000e+00   0.0000000000000000e+00   0.0000000000000000e+00   0.0000000000000000e+00   0.0000000000000000e+00   0.0000000000000000e+00   0.0000000000000000e+00   0.0000000000000000e+00   0.0000000000000000e+00   0.0000000000000000e+00   0.0000000000000000e+00   0.0000000000000000e+00   0.0000000000000000e+00   0.0000000000000000e+00   0.0000000000000000e+00   0.0000000000000000e+00   0.0000000000000000e+00   0.0000000000000000e+00   0.0000000000000000e+00   0.0000000000000000e+00   0.0000000000000000e+00   0.0000000000000000e+00   0.0000000000000000e+00   0.0000000000000000e+00   0.0000000000000000e+00   0.0000000000000000e+00   2.3893625672862184e-07   0.0000000000000000e+00   5.4921091004464313e+02   6.4234926723462489e-08   9.9476508326622983e+05   2.1861641596710487e+02   9.4401580166559655e+05   9.3912658166259364e+05   1.0507769630464164e+06   9.8734320366501494e+05   1.3773467235271991e+06   8.0928484223228076e+05   1.5935192636005469e+06   1.0943774083900256e+06   1.5878608648720400e+06   1.9499662388192257e+06   1.6979951987423783e+06   2.3378847315273597e+06   1.8476277249885430e+06   2.4531602204234842e+06   1.9782961110546126e+06   2.4527263309657718e+06   2.0392968341082018e+06   2.3741113125533573e+06   1.8864206734344778e+06   2.1898065866112253e+06   1.3478402249893751e+06   1.8337754878384497e+06   5.3736083298588172e+05   1.3063395164380257e+06   7.8170696749475005e+05   1.2472329874871313e+06   1.2003291821276303e+06   1.6998285216324588e+06   1.1076319397189647e+06   1.9389552868192326e+06   3.9476198344937757e+02   3.2306779410651800e+00   8.7156432204461255e-08   6.9306627295283326e-10   0.0000000000000000e+00   0.0000000000000000e+00   0.0000000000000000e+00   0.0000000000000000e+00   0.0000000000000000e+00   0.0000000000000000e+00   0.0000000000000000e+00   0.0000000000000000e+00   0.0000000000000000e+00   0.0000000000000000e+00   0.0000000000000000e+00   0.0000000000000000e+00   0.0000000000000000e+00   0.0000000000000000e+00   0.0000000000000000e+00   0.0000000000000000e+00   0.0000000000000000e+00   0.0000000000000000e+00   0.0000000000000000e+00   0.0000000000000000e+00   0.0000000000000000e+00   0.0000000000000000e+00   0.0000000000000000e+00   0.0000000000000000e+00   0.0000000000000000e+00   0.0000000000000000e+00   0.0000000000000000e+00   0.0000000000000000e+00   0.0000000000000000e+00   0.0000000000000000e+00   0.0000000000000000e+00   0.0000000000000000e+00   0.0000000000000000e+00   0.0000000000000000e+00   0.0000000000000000e+00   0.0000000000000000e+00   0.0000000000000000e+00   0.0000000000000000e+00   0.0000000000000000e+00   0.0000000000000000e+00   0.0000000000000000e+00   0.0000000000000000e+00   0.0000000000000000e+00   0.0000000000000000e+00   0.0000000000000000e+00   0.0000000000000000e+00   0.0000000000000000e+00   0.0000000000000000e+00   0.0000000000000000e+00   0.0000000000000000e+00   0.0000000000000000e+00   0.0000000000000000e+00   0.0000000000000000e+00   0.0000000000000000e+00   1.9245331583264241e-08   0.0000000000000000e+00   6.3459454401979158e+01   1.8131847695578694e-07   1.7341019779056751e+06   5.3216729582115681e+02   2.1933607932799365e+06   1.9780883097398684e+06   2.0658319110490568e+06   1.5832428272800669e+06   1.4426432876391967e+06   2.2434562606124273e+06   1.5014919038584288e+06   2.4809837297333432e+06   1.8088722604467699e+06   2.5166680600894783e+06   2.1599072421561228e+06   2.5657881074553002e+06   2.5191256427255180e+06   2.6461787106809258e+06   2.7531210655596191e+06   2.6644401368171829e+06   2.1472135529382573e+06   2.4411485401695659e+06   1.1317439024251075e+06   1.7698770462304964e+06   1.3687319532126002e+06   1.7226640067907567e+06   5.7165818278628094e+03   1.0064718751138701e+03   1.4746601611832973e-06   2.9971446118305564e-07   0.0000000000000000e+00   0.0000000000000000e+00   0.0000000000000000e+00   0.0000000000000000e+00   0.0000000000000000e+00   0.0000000000000000e+00   0.0000000000000000e+00   0.0000000000000000e+00   0.0000000000000000e+00   0.0000000000000000e+00   0.0000000000000000e+00   0.0000000000000000e+00   0.0000000000000000e+00   0.0000000000000000e+00   0.0000000000000000e+00   0.0000000000000000e+00   0.0000000000000000e+00   0.0000000000000000e+00   0.0000000000000000e+00   0.0000000000000000e+00   0.0000000000000000e+00   0.0000000000000000e+00   0.0000000000000000e+00   0.0000000000000000e+00   0.0000000000000000e+00   0.0000000000000000e+00   0.0000000000000000e+00   0.0000000000000000e+00   0.0000000000000000e+00   0.0000000000000000e+00   0.0000000000000000e+00   0.0000000000000000e+00   0.0000000000000000e+00   0.0000000000000000e+00   0.0000000000000000e+00   0.0000000000000000e+00   0.0000000000000000e+00   0.0000000000000000e+00   0.0000000000000000e+00   0.0000000000000000e+00   0.0000000000000000e+00   0.0000000000000000e+00   0.0000000000000000e+00   0.0000000000000000e+00   0.0000000000000000e+00   0.0000000000000000e+00   0.0000000000000000e+00   0.0000000000000000e+00   0.0000000000000000e+00   0.0000000000000000e+00   0.0000000000000000e+00   0.0000000000000000e+00   0.0000000000000000e+00   0.0000000000000000e+00   0.0000000000000000e+00   0.0000000000000000e+00   0.0000000000000000e+00   0.0000000000000000e+00   0.0000000000000000e+00   0.0000000000000000e+00   0.0000000000000000e+00   0.0000000000000000e+00   7.8231665278300725e-03   4.8388301236714052e-09   2.2582077792603178e+06   1.1097353628327236e+01   3.6770726598152597e+06   4.7271946098261764e+06   1.6381997414508238e+06   3.2092392460061954e+06   1.2994912546951261e+06   2.6580581903288788e+06   1.5833047517461446e+06   2.3416864497413039e+06   1.9959208095572139e+06   2.3117548233487797e+06   2.4925382705151075e+06   2.4899790557969580e+06   3.1599484225684288e+06   2.7954056430490077e+06   3.9524540478542880e+06   3.0714604474255713e+06   1.4606690845640721e+06   3.2516602226157635e+06   1.3448530139002120e+01   6.4338958882808114e+01   8.3197086660135268e-09   7.5861147928577376e-08   0.0000000000000000e+00   0.0000000000000000e+00   0.0000000000000000e+00   0.0000000000000000e+00   0.0000000000000000e+00   0.0000000000000000e+00   0.0000000000000000e+00   0.0000000000000000e+00   0.0000000000000000e+00   0.0000000000000000e+00   0.0000000000000000e+00   0.0000000000000000e+00   0.0000000000000000e+00   0.0000000000000000e+00   0.0000000000000000e+00   0.0000000000000000e+00   0.0000000000000000e+00   0.0000000000000000e+00   0.0000000000000000e+00   0.0000000000000000e+00   0.0000000000000000e+00   0.0000000000000000e+00   0.0000000000000000e+00   0.0000000000000000e+00   0.0000000000000000e+00   0.0000000000000000e+00   0.0000000000000000e+00   0.0000000000000000e+00   0.0000000000000000e+00   0.0000000000000000e+00   0.0000000000000000e+00   0.0000000000000000e+00   0.0000000000000000e+00   0.00000000