<?xml version="1.0"?>
<VTKFile type="UnstructuredGrid"  version="0.1"  >
<UnstructuredGrid>
<Piece  NumberOfPoints="2411" NumberOfCells="4614">
<Points>
<DataArray  type="Float64"  NumberOfComponents="3"  format="ascii">1.36304347826087 0 0  1.371304347826087 0 0  1.371304347826087 0.008333333333333333 0  1.379565217391304 0 0  1.379565217391304 0.008333333333333333 0  1.387826086956522 0 0  1.387826086956522 0.008333333333333333 0  1.396086956521739 0 0  1.396086956521739 0.008333333333333333 0  1.404347826086957 0 0  1.404347826086957 0.008333333333333333 0  1.412608695652174 0 0  1.412608695652174 0.008333333333333333 0  1.420869565217391 0 0  1.420869565217391 0.008333333333333333 0  1.429130434782609 0 0  1.429130434782609 0.008333333333333333 0  1.437391304347826 0 0  1.437391304347826 0.008333333333333333 0  1.445652173913043 0 0  1.445652173913043 0.008333333333333333 0  1.453913043478261 0 0  1.453913043478261 0.008333333333333333 0  1.462173913043478 0 0  1.462173913043478 0.008333333333333333 0  1.470434782608696 0 0  1.470434782608696 0.008333333333333333 0  1.478695652173913 0 0  1.478695652173913 0.008333333333333333 0  1.486956521739131 0 0  1.486956521739131 0.008333333333333333 0  1.495217391304348 0 0  1.495217391304348 0.008333333333333333 0  1.503478260869565 0 0  1.503478260869565 0.008333333333333333 0  1.511739130434782 0 0  1.511739130434782 0.008333333333333333 0  1.52 0 0  1.52 0.008333333333333333 0  1.528260869565217 0 0  1.528260869565217 0.008333333333333333 0  1.536521739130435 0 0  1.536521739130435 0.008333333333333333 0  1.544782608695652 0 0  1.544782608695652 0.008333333333333333 0  1.55304347826087 0 0  1.55304347826087 0.008333333333333333 0  1.561304347826087 0 0  1.561304347826087 0.008333333333333333 0  1.569565217391304 0 0  1.569565217391304 0.008333333333333333 0  1.577826086956522 0 0  1.577826086956522 0.008333333333333333 0  1.586086956521739 0 0  1.586086956521739 0.008333333333333333 0  1.594347826086957 0 0  1.594347826086957 0.008333333333333333 0  1.602608695652174 0 0  1.602608695652174 0.008333333333333333 0  1.610869565217391 0 0  1.610869565217391 0.008333333333333333 0  1.619130434782609 0 0  1.619130434782609 0.008333333333333333 0  1.627391304347826 0 0  1.627391304347826 0.008333333333333333 0  1.635652173913043 0 0  1.635652173913043 0.008333333333333333 0  1.643913043478261 0 0  1.643913043478261 0.008333333333333333 0  1.652173913043478 0 0  1.652173913043478 0.008333333333333333 0  1.660434782608696 0 0  1.660434782608696 0.008333333333333333 0  1.668695652173913 0 0  1.668695652173913 0.008333333333333333 0  1.67695652173913 0 0  1.67695652173913 0.008333333333333333 0  1.685217391304348 0 0  1.685217391304348 0.008333333333333333 0  1.693478260869565 0 0  1.693478260869565 0.008333333333333333 0  1.701739130434782 0 0  1.701739130434782 0.008333333333333333 0  1.71 0 0  1.71 0.008333333333333333 0  1.718260869565217 0 0  1.718260869565217 0.008333333333333333 0  1.726521739130435 0 0  1.726521739130435 0.008333333333333333 0  1.734782608695652 0 0  1.734782608695652 0.008333333333333333 0  1.743043478260869 0.008333333333333333 0  1.379565217391304 0.01666666666666667 0  1.387826086956522 0.01666666666666667 0  1.396086956521739 0.01666666666666667 0  1.404347826086957 0.01666666666666667 0  1.412608695652174 0.01666666666666667 0  1.420869565217391 0.01666666666666667 0  1.429130434782609 0.01666666666666667 0  1.437391304347826 0.01666666666666667 0  1.445652173913043 0.01666666666666667 0  1.453913043478261 0.01666666666666667 0  1.462173913043478 0.01666666666666667 0  1.470434782608696 0.01666666666666667 0  1.478695652173913 0.01666666666666667 0  1.486956521739131 0.01666666666666667 0  1.495217391304348 0.01666666666666667 0  1.503478260869565 0.01666666666666667 0  1.511739130434782 0.01666666666666667 0  1.52 0.01666666666666667 0  1.528260869565217 0.01666666666666667 0  1.536521739130435 0.01666666666666667 0  1.544782608695652 0.01666666666666667 0  1.55304347826087 0.01666666666666667 0  1.561304347826087 0.01666666666666667 0  1.569565217391304 0.01666666666666667 0  1.577826086956522 0.01666666666666667 0  1.586086956521739 0.01666666666666667 0  1.594347826086957 0.01666666666666667 0  1.602608695652174 0.01666666666666667 0  1.610869565217391 0.01666666666666667 0  1.619130434782609 0.01666666666666667 0  1.627391304347826 0.01666666666666667 0  1.635652173913043 0.01666666666666667 0  1.643913043478261 0.01666666666666667 0  1.652173913043478 0.01666666666666667 0  1.660434782608696 0.01666666666666667 0  1.668695652173913 0.01666666666666667 0  1.67695652173913 0.01666666666666667 0  1.685217391304348 0.01666666666666667 0  1.693478260869565 0.01666666666666667 0  1.701739130434782 0.01666666666666667 0  1.71 0.01666666666666667 0  1.718260869565217 0.01666666666666667 0  1.726521739130435 0.01666666666666667 0  1.734782608695652 0.01666666666666667 0  1.743043478260869 0.01666666666666667 0  1.751304347826087 0.01666666666666667 0  1.387826086956522 0.025 0  1.396086956521739 0.025 0  1.404347826086957 0.025 0  1.412608695652174 0.025 0  1.420869565217391 0.025 0  1.429130434782609 0.025 0  1.437391304347826 0.025 0  1.445652173913043 0.025 0  1.453913043478261 0.025 0  1.462173913043478 0.025 0  1.470434782608696 0.025 0  1.478695652173913 0.025 0  1.486956521739131 0.025 0  1.495217391304348 0.025 0  1.503478260869565 0.025 0  1.511739130434782 0.025 0  1.52 0.025 0  1.528260869565217 0.025 0  1.536521739130435 0.025 0  1.544782608695652 0.025 0  1.55304347826087 0.025 0  1.561304347826087 0.025 0  1.569565217391304 0.025 0  1.577826086956522 0.025 0  1.586086956521739 0.025 0  1.594347826086957 0.025 0  1.602608695652174 0.025 0  1.610869565217391 0.025 0  1.619130434782609 0.025 0  1.627391304347826 0.025 0  1.635652173913043 0.025 0  1.643913043478261 0.025 0  1.652173913043478 0.025 0  1.660434782608696 0.025 0  1.668695652173913 0.025 0  1.67695652173913 0.025 0  1.685217391304348 0.025 0  1.693478260869565 0.025 0  1.701739130434782 0.025 0  1.71 0.025 0  1.718260869565217 0.025 0  1.726521739130435 0.025 0  1.734782608695652 0.025 0  1.743043478260869 0.025 0  1.751304347826087 0.025 0  1.759565217391304 0.025 0  1.396086956521739 0.03333333333333333 0  1.404347826086957 0.03333333333333333 0  1.412608695652174 0.03333333333333333 0  1.420869565217391 0.03333333333333333 0  1.429130434782609 0.03333333333333333 0  1.437391304347826 0.03333333333333333 0  1.445652173913043 0.03333333333333333 0  1.453913043478261 0.03333333333333333 0  1.462173913043478 0.03333333333333333 0  1.470434782608696 0.03333333333333333 0  1.478695652173913 0.03333333333333333 0  1.486956521739131 0.03333333333333333 0  1.495217391304348 0.03333333333333333 0  1.503478260869565 0.03333333333333333 0  1.511739130434782 0.03333333333333333 0  1.52 0.03333333333333333 0  1.528260869565217 0.03333333333333333 0  1.536521739130435 0.03333333333333333 0  1.544782608695652 0.03333333333333333 0  1.55304347826087 0.03333333333333333 0  1.561304347826087 0.03333333333333333 0  1.569565217391304 0.03333333333333333 0  1.577826086956522 0.03333333333333333 0  1.586086956521739 0.03333333333333333 0  1.594347826086957 0.03333333333333333 0  1.602608695652174 0.03333333333333333 0  1.610869565217391 0.03333333333333333 0  1.619130434782609 0.03333333333333333 0  1.627391304347826 0.03333333333333333 0  1.635652173913043 0.03333333333333333 0  1.643913043478261 0.03333333333333333 0  1.652173913043478 0.03333333333333333 0  1.660434782608696 0.03333333333333333 0  1.668695652173913 0.03333333333333333 0  1.67695652173913 0.03333333333333333 0  1.685217391304348 0.03333333333333333 0  1.693478260869565 0.03333333333333333 0  1.701739130434782 0.03333333333333333 0  1.71 0.03333333333333333 0  1.718260869565217 0.03333333333333333 0  1.726521739130435 0.03333333333333333 0  1.734782608695652 0.03333333333333333 0  1.743043478260869 0.03333333333333333 0  1.751304347826087 0.03333333333333333 0  1.759565217391304 0.03333333333333333 0  1.767826086956522 0.03333333333333333 0  1.404347826086957 0.04166666666666666 0  1.412608695652174 0.04166666666666666 0  1.420869565217391 0.04166666666666666 0  1.429130434782609 0.04166666666666666 0  1.437391304347826 0.04166666666666666 0  1.445652173913043 0.04166666666666666 0  1.453913043478261 0.04166666666666666 0  1.462173913043478 0.04166666666666666 0  1.470434782608696 0.04166666666666666 0  1.478695652173913 0.04166666666666666 0  1.486956521739131 0.04166666666666666 0  1.495217391304348 0.04166666666666666 0  1.503478260869565 0.04166666666666666 0  1.511739130434782 0.04166666666666666 0  1.52 0.04166666666666666 0  1.528260869565217 0.04166666666666666 0  1.536521739130435 0.04166666666666666 0  1.544782608695652 0.04166666666666666 0  1.55304347826087 0.04166666666666666 0  1.561304347826087 0.04166666666666666 0  1.569565217391304 0.04166666666666666 0  1.577826086956522 0.04166666666666666 0  1.586086956521739 0.04166666666666666 0  1.594347826086957 0.04166666666666666 0  1.602608695652174 0.04166666666666666 0  1.610869565217391 0.04166666666666666 0  1.619130434782609 0.04166666666666666 0  1.627391304347826 0.04166666666666666 0  1.635652173913043 0.04166666666666666 0  1.643913043478261 0.04166666666666666 0  1.652173913043478 0.04166666666666666 0  1.660434782608696 0.04166666666666666 0  1.668695652173913 0.04166666666666666 0  1.67695652173913 0.04166666666666666 0  1.685217391304348 0.04166666666666666 0  1.693478260869565 0.04166666666666666 0  1.701739130434782 0.04166666666666666 0  1.71 0.04166666666666666 0  1.718260869565217 0.04166666666666666 0  1.726521739130435 0.04166666666666666 0  1.734782608695652 0.04166666666666666 0  1.743043478260869 0.04166666666666666 0  1.751304347826087 0.04166666666666666 0  1.759565217391304 0.04166666666666666 0  1.767826086956522 0.04166666666666666 0  1.776086956521739 0.04166666666666666 0  1.412608695652174 0.05 0  1.420869565217391 0.05 0  1.42913
[...]
<CellData  Scalars="sigma_m"> 
<DataArray  type="Float64"  Name="sigma_m"  format="ascii">6.9965113623609040e+06   6.7966006900644293e+06   7.1433865301581081e+06   6.6536966728329686e+06   7.0895555065640565e+06   6.5821778417836279e+06   7.0641032769241370e+06   6.5858064067417551e+06   7.0582379785922347e+06   6.6929451919123260e+06   7.0887627565501835e+06   6.9353652537880298e+06   7.1790835162219927e+06   7.2953662526181517e+06   7.3194356068671625e+06   7.7134330402242150e+06   7.4818857256351514e+06   8.1320049517510682e+06   7.6484009302924378e+06   8.5121145769003164e+06   7.8094089095406355e+06   8.8246238640800752e+06   7.9516378832213115e+06   9.0486207180380635e+06   8.0592654761318080e+06   9.1879192402522489e+06   8.1296827511305651e+06   9.2720917834361810e+06   8.1760962835100647e+06   9.3450611194809359e+06   8.2218968039740799e+06   9.4500996953145936e+06   8.2915992506977050e+06   9.6200098187648878e+06   8.4040046224313341e+06   9.8737446479089092e+06   8.5694304968838375e+06   1.0216668308304081e+07   8.7895331046351865e+06   1.0641881919716317e+07   9.0580579246283136e+06   1.1131432972584382e+07   9.3616907868106607e+06   1.1657293274726005e+07   9.6809404920684844e+06   1.2182428618498985e+07   9.9913088511452992e+06   1.2662732154698985e+07   1.0265155955349674e+07   1.3051477586097758e+07   1.0474920909104366e+07   1.3305733558935808e+07   1.0597075952274567e+07   1.3387709365501389e+07   1.0612791742191732e+07   1.3254697470983876e+07   1.0500393939934995e+07   1.2900169122302834e+07   1.0261380968092784e+07   1.2324345360215299e+07   9.9044894293895941e+06   1.1504283351247713e+07   9.4172859803841356e+06   1.0468184322978985e+07   8.8033851611099429e+06   9.2751439787796065e+06   8.0862456656660484e+06   7.9960540936543914e+06   7.2888524281073976e+06   6.7298296240104726e+06   6.4565883368336353e+06   5.5711688088950235e+06   5.6563913529566154e+06   4.5642308647579569e+06   4.9266734071538700e+06   3.7233185593518876e+06   4.2802959793300172e+06   3.0693345413261354e+06   3.7465868264573873e+06   2.6149571203627549e+06   3.3480106421296238e+06   2.3456935945073301e+06   3.0748473419139818e+06   2.2311812148411376e+06   2.9058814492968824e+06   2.2397343596416046e+06   2.8226661270653093e+06   2.3412974060346750e+06   2.8083289023316815e+06   2.8511063206652291e+06   7.1560907993124044e+06   7.1069869633472804e+06   7.4795966291726865e+06   7.0793512350100037e+06   7.5036604713884778e+06   7.0646086621711059e+06   7.4778017585420301e+06   7.0900409038473871e+06   7.4177775790017936e+06   7.1876910930423820e+06   7.3702566293358011e+06   7.3407121166737927e+06   7.3305177173975818e+06   7.5104824684259109e+06   7.2727499171195030e+06   7.6758412886194922e+06   7.2061882105990862e+06   7.8280441044815658e+06   7.1572943231037557e+06   7.9531152747110203e+06   7.1282834556494774e+06   8.0361776043854160e+06   7.0965201197043927e+06   8.0831364617735138e+06   7.0526134454985010e+06   8.1144359667966496e+06   7.0053877239577612e+06   8.1567584232799783e+06   6.9730269698380204e+06   8.2339992587346379e+06   6.9728710656372141e+06   8.3626136689492967e+06   7.0149440301736649e+06   8.5498738867044952e+06   7.1011745247639688e+06   8.7937302996902429e+06   7.2267148052982846e+06   9.0834916352326982e+06   7.3814044189116796e+06   9.4009388779107966e+06   7.5509204804341430e+06   9.7218722534033246e+06   7.7179186137094470e+06   1.0018181856038043e+07   7.8635869095148323e+06   1.0260705175301204e+07   7.9704904897933742e+06   1.0423632204101749e+07   8.0279521214588089e+06   1.0489009890216649e+07   8.0361907631889703e+06   1.0444832738685209e+07   8.0005503751031309e+06   1.0270841898479315e+07   7.9100943682448696e+06   9.9932352572505269e+06   7.7860183429121422e+06   9.6251038319173865e+06   7.6676071756042968e+06   9.1453405719170962e+06   7.5327609852681486e+06   8.5838270878851209e+06   7.3351358153007701e+06   7.9588911439095326e+06   7.0901000821897844e+06   7.2746352008795254e+06   6.7621382873016028e+06   6.5588494599756924e+06   6.3228072688030722e+06   5.8537931031657178e+06   5.8439288692116188e+06   5.1779785302198203e+06   5.3697864630586077e+06   4.5371540689683408e+06   4.8711215440762406e+06   3.9639167610562262e+06   4.3821597319973083e+06   3.4994903206256060e+06   3.9728165648711142e+06   3.1597274597795624e+06   3.6538998003668101e+06   2.9404600847388450e+06   3.4137710817386280e+06   2.8293535104329078e+06   3.2458716617390248e+06   2.8067451793899448e+06   3.1381569743755790e+06   2.8547816411485863e+06   3.0810220885456908e+06   3.0704746410692316e+06   7.4994092433382059e+06   7.5213711668669200e+06   8.0041381459213980e+06   7.4785129700849811e+06   7.9797790794284046e+06   7.4035246132903462e+06   7.8382557090379940e+06   7.3531644786101403e+06   7.6300617203151006e+06   7.3154679684689576e+06   7.3521046937687797e+06   7.2592066830214579e+06   7.0197865015827473e+06   7.1961947212167336e+06   6.6842114225489702e+06   7.1525305409165667e+06   6.4194772676342251e+06   7.1191283691773508e+06   6.2422949966746736e+06   7.0655701465335116e+06   6.0936332962950058e+06   6.9967270662199315e+06   5.9422210512544150e+06   6.9349979851808427e+06   5.7942433920280626e+06   6.9056175237165168e+06   5.6721983271995950e+06   6.9245021089300392e+06   5.5953351817784095e+06   6.9969456897651497e+06   5.5691782026824970e+06   7.1195311908596782e+06   5.5882880230873600e+06   7.2819051821746267e+06   5.6408659838993968e+06   7.4680602002817299e+06   5.7116620953689152e+06   7.6575492763164714e+06   5.7834005599919548e+06   7.8272165458065253e+06   5.8378965987728052e+06   7.9536847728581661e+06   5.8576663024378549e+06   8.0173930045429021e+06   5.8301678602445303e+06   8.0096224822679609e+06   5.7601248659902299e+06   7.9371445590643249e+06   5.6791960405161930e+06   7.8113686106049409e+06   5.6220405334539227e+06   7.6074805680464208e+06   5.5753448807571586e+06   7.4082982731162608e+06   5.5334704119323995e+06   7.2478020927755637e+06   5.6110460449761609e+06   7.0554134620493734e+06   5.7987514427105272e+06   6.8744438514105314e+06   5.8838752213984784e+06   6.7120213022993254e+06   6.0090508429182330e+06   6.5094294004454417e+06   6.1336020760231698e+06   6.2419815326650804e+06   6.0857927608044986e+06   5.9353424129144112e+06   5.9433353423797777e+06   5.5802356642752914e+06   5.7841839632265996e+06   5.1382208963722857e+06   5.4739584628787106e+06   4.6486147600422706e+06   5.0196510365124643e+06   4.1905255196494721e+06   4.5727399847918004e+06   3.7990244579813234e+06   4.1724599710404393e+06   3.4868657553530592e+06   3.8226514065168998e+06   3.2641136092575286e+06   3.5413647018611599e+06   3.1242063818399450e+06   3.3247531602455843e+06   3.0566570289383586e+06   3.1640368656411776e+06   3.0539497916516983e+06   3.0584142603619271e+06   3.0046014844571385e+06   8.0439025076264683e+06   7.9998421613908149e+06   8.6988001367068999e+06   7.8438989246711023e+06   8.5882126402486078e+06   7.6265742671411028e+06   8.2584616542101158e+06   7.3305188173938552e+06   7.5469889535621153e+06   6.9774900082465410e+06   6.7183519963732604e+06   6.6250052328755828e+06   6.0406466330308113e+06   6.3678641934045749e+06   5.4569282477097083e+06   6.1979712273385571e+06   5.1550016353607625e+06   6.0274757304249369e+06   4.9495901644737339e+06   5.8506904926138427e+06   4.7374809243267849e+06   5.6957157642412633e+06   4.5165871999002267e+06   5.5938640220029429e+06   4.3230744523955742e+06   5.5563403011063728e+06   4.1880678212605906e+06   5.5780395103510004e+06   4.1136883391059921e+06   5.6451913788353335e+06   4.0857543723971467e+06   5.7398512929793065e+06   4.0850231636816561e+06   5.8416310290167155e+06   4.0917415176724568e+06   5.9283023012881223e+06   4.0865450022099609e+06   5.9767475521493247e+06   4.0508838629061794e+06   5.9646591937657557e+06   3.9682096803730438e+06   5.8753268459367855e+06   3.8308088332494553e+06   5.7143612703744667e+06   3.6610143949140981e+06   5.5223539757575858e+06   3.5316491538540288e+06   5.3327698882276742e+06   3.5348705728510721e+06   5.0549462840439035e+06   3.7093981261371933e+06   4.8765228655774277e+06   3.6538196083609383e+06   4.8739442471484458e+06   3.7189896549776560e+06   4.8559532982060434e+06   4.1960232002340090e+06   4.9255643596106144e+06   4.1833015722395629e+06   5.1566985689609805e+06   4.3609293612988349e+06   5.4518318783915322e+06   5.0106844233837547e+06   5.7105720966729848e+06   5.6785307166934237e+06   5.8791851606280217e+06   6.0899319625584958e+06   5.9038742385119023e+06   6.2454157335836822e+06   5.7279404482501019e+06   6.2907208810908636e+06   5.3433253701369995e+06   5.8656512304495797e+06   4.8804696737025594e+06   5.2988747267167345e+06   4.4130796559672952e+06   4.7439795617789943e+06   3.9765205596517776e+06   4.2153168109597210e+06   3.6146253807647028e+06   3.7692644335592226e+06   3.3370250420455518e+06   3.4116563690899052e+06   3.1397141045540599e+06   3.1269275178809594e+06   3.0224754501090804e+06   2.9182024057396273e+06   2.9781153762851739e+06   2.7818796634274414e+06   2.7056581223236322e+06   8.7214098949745540e+06   8.6845679365028162e+06   7.5047472947153775e+06   8.5128374307573978e+06   8.6138236449415404e+06   7.7633184403526448e+06   7.6501394539939202e+06   6.7580681471362831e+06   5.3346943483567694e+06   6.0118948171998076e+06   5.8946584916943274e+06   5.3622987348069511e+06   4.0781762833311344e+06   5.0608155872471090e+06   3.6985784298936282e+06   4.8212373594437353e+06   3.5742201312842476e+06   4.5818794653748348e+06   3.4123040591863277e+06   4.3715351380279530e+06   3.1831099399739588e+06   4.2320208311399752e+06   2.9560388671967280e+06   4.1675313456287654e+06   2.7991137371718395e+06   4.1598989285580246e+06   2.7088012908852277e+06   4.1852730371103645e+06   2.6574478304905519e+06   4.2208100447530411e+06   2.6181386380648511e+06   4.2454128806611896e+06   2.5697115401642635e+06   4.2385633289724588e+06   2.4955628236205606e+06   4.1792980518158060e+06   2.3848524966726196e+06   4.0444999757323852e+06   2.2392460070096883e+06   3.8109479575962937e+06   2.1035284838041230e+06   3.4853184258449473e+06   2.1014319752748902e+06   3.1634493895704397e+06   2.2806714473897261e+06   2.9527428693869449e+06   2.6232425054936288e+06   2.5506663428967870e+06   3.6999849568644478e+06   2.2475124304504711e+06   3.5573213238341697e+06   2.2209796943184063e+06   3.2556445994705469e+06   2.1831300662767258e+06   3.9199339319006680e+06   2.3892200367457932e+06   2.6723456541450596e+06   3.0547722281744215e+06   1.9074395157891852e+06   4.0775938964075670e+06   2.7312674393263594e+06   5.2603017088022800e+06   5.3120510116542177e+06   6.2064234985576561e+06   7.2166726713517355e+06   6.3025419545948356e+06   6.0201392949933698e+06   6.5598429152930332e+06   7.6810373482064679e+06   6.3853219161628298e+06   7.5576665620807139e+06   5.8030894296922423e+06   6.3063086146270102e+06   5.1660273613357684e+06   5.4702010434635002e+06   4.5199428736202028e+06   4.6613325537180752e+06   3.9555860758248339e+06   3.9780005961527661e+06   3.5017041840507123e+06   3.4470894008116201e+06   3.1470490353046404e+06   3.0143023617009674e+06   2.8973982775536305e+06   2.6870144170124163e+06   2.7471196367617175e+06   2.4617557758093956e+06   2.6781361492363089e+06   2.3179186975243073e+06   2.2354108853592947e+06   7.6891079854421104e-04   2.1942143258994080e-02   1.1735551181567196e-08   1.0317144121198451e+01   1.8242757013421648e-06   1.3342351422030429e+05   6.1753188880145655e-03   4.7915791602877388e+06   9.1206749251706344e+02   3.8624496061411747e+06   2.9684883333674851e+06   3.4949599973804150e+06   2.0786637690053161e+06   3.3127281917461348e+06   1.9618430653526192e+06   3.1380123129398087e+06   2.0288713642369434e+06   2.9677836218922110e+06   1.8892282784854746e+06   2.8653718548036818e+06   1.6611424159418282e+06   2.8254765264872131e+06   1.5248060152459345e+06   2.8162157976726731e+06   1.4539834171613369e+06   2.8083268403602079e+06   1.3956477959677973e+06   2.7808478104426707e+06   1.3170236560350540e+06   2.7191524255844238e+06   1.2032373540578901e+06   2.6130323181632254e+06   1.0563768055419293e+06   2.4571287237663651e+06   9.2751155425859301e+05   2.2444858509848332e+06   1.0139770918394887e+06   1.9601321688525684e+06   1.5924963797069490e+06   1.6573778750305844e+06   2.5851836979178181e+06   1.5344371283573038e+06   3.5615158694477938e+06   1.7260849616483196e+06   4.3379811678599790e+06   2.1364241577600897e+06   6.4795988981245318e+06   2.6789519728214387e+06   5.0736458411091929e+06   3.1358647910979674e+06   4.8838783426753432e+06   2.1174541336402171e+06   6.6596138696112139e+06   4.2647686707396456e+05   2.0591525496206859e+06   2.7387169542428065e+05   5.1961343217890761e+00   3.0035429282066982e+01   2.4454176588449057e-04   6.9614853685125155e-01   1.7092665383973066e-06   1.2914052415589056e+01   2.4770300569282083e-06   1.1994804545445861e+05   7.3986976757261407e-04   6.9486481449041767e+06   4.9425338201335293e+01   8.1641201022548815e+06   7.2738708309221463e+06   7.2278458489159970e+06   7.3885095649915366e+06   6.2189527428282890e+06   6.4360695215415927e+06   5.2257650385509366e+06   5.2770684814824304e+06   4.3447872339503150e+06   4.2163085177740762e+06   3.6699626264799940e+06   3.4990184243576517e+06   3.1305994800009392e+06   2.9026768866797769e+06   2.7293521154786926e+06   2.4410212982105534e+06   2.4592152400498069e+06   2.1151141817727764e+06   2.2938365609000693e+06   1.8905893435468497e+06   2.2080851430658600e+06   1.7394383429530461e+06   0.0000000000000000e+00   0.0000000000000000e+00   0.0000000000000000e+00   0.0000000000000000e+00   0.0000000000000000e+00   4.0098524373589948e-10   0.0000000000000000e+00   3.0890712653214435e-02   0.0000000000000000e+00   1.2592279982618606e+06   1.2629716689818768e-01   1.4048139284312148e+06   7.6097523992510454e+04   1.5539181034143895e+06   7.7053494393924566e+05   1.5876229674030568e+06   8.6279894668659614e+05   1.6318172901746959e+06   6.4675183768777177e+05   1.6659439129448729e+06   5.9934474328994309e+05   1.6631636359731767e+06   5.8504544201029127e+05   1.6059967535158070e+06   5.1774492499327433e+05   1.4852651197848930e+06   3.7396000140489364e+05   1.3012423257070750e+06   1.4595436093520239e+05   1.0847766206480926e+06   2.3076236889835339e+05   9.7223805334962148e+05   7.4839372628174454e+05   1.2099353826439644e+06   1.5729205114895750e+06   1.8042061020980268e+06   2.9010707452199971e+06   2.6969835949832923e+06   4.6070175159657411e+06   3.8552218414457724e+06   5.8419716631065132e+06   5.5307130720737446e+06   6.2220676451662770e+06   6.2852481162761152e+06   1.0100514611133043e+07   4.5071052779639252e+06   7.0228287883239854e+06   1.2843484332255048e+02   4.4138680323456220e-02   5.9364890683017888e-08   0.0000000000000000e+00   0.0000000000000000e+00   0.0000000000000000e+00   0.0000000000000000e+00   0.0000000000000000e+00   0.0000000000000000e+00   0.0000000000000000e+00   0.0000000000000000e+00   0.0000000000000000e+00   0.0000000000000000e+00   0.0000000000000000e+00   0.0000000000000000e+00   0.0000000000000000e+00   0.0000000000000000e+00   0.0000000000000000e+00   5.4092593686326447e-06   0.0000000000000000e+00   7.5425502990016044e+04   4.7418425405985871e-07   6.5823019497649474e+06   4.0191175543241050e+04   6.3234325576598784e+06   6.1903411622482929e+06   4.7801902834350662e+06   4.5363702386709563e+06   3.8556814857179499e+06   3.6653194273440177e+06   3.1323952468144917e+06   2.9051196029357011e+06   2.5809234512710413e+06   2.3005527104900694e+06   2.1905544795353883e+06   1.8696287318198818e+06   1.9167873558859320e+06   1.5497056290107134e+06   1.7262272087809616e+06   1.3004428190139695e+06   1.1080187426114427e+06   0.0000000000000000e+00   0.0000000000000000e+00   0.0000000000000000e+00   0.0000000000000000e+00   0.0000000000000000e+00   0.0000000000000000e+00   0.0000000000000000e+00   4.3614716002168357e-08   0.0000000000000000e+00   4.3981734008406660e+04   1.6643411777577330e-05   1.1584996506304280e+06   7.5553000412861130e+05   7.9739498969324550e+05   3.8761064793916256e+05   9.1982131833722629e+05   4.8614677577618259e+05   9.5571605462975206e+05   6.2069129946284904e+05   8.9719215667258610e+05   6.5663179042548279e+05   7.4314053614170232e+05   6.6713094645943108e+05   4.8344731387596863e+05   7.1658157396957872e+05   1.3411081963658036e+05   8.7197080719033431e+05   5.2001376550396113e+05   1.1920342144558111e+06   1.3360001295720779e+06   1.7423194364309462e+06   2.4489135184079693e+06   2.7602854738424290e+06   3.8208292572870865e+06   4.6671274814190576e+06   5.4708911257897196e+06   7.0167255763660269e+06   6.9033784191715652e+06   7.7703642555291224e+06   5.5335149990927204e+06   7.1929645569328284e+06   5.8274653716573210e-01   1.9238684908705448e-03   0.0000000000000000e+00   0.0000000000000000e+00   0.0000000000000000e+00   0.0000000000000000e+00   0.0000000000000000e+00   0.0000000000000000e+00   0.0000000000000000e+00   0.0000000000000000e+00   0.0000000000000000e+00   0.0000000000000000e+00   0.0000000000000000e+00   0.0000000000000000e+00   0.0000000000000000e+00   0.0000000000000000e+00   0.0000000000000000e+00   0.0000000000000000e+00   0.0000000000000000e+00   0.0000000000000000e+00   0.0000000000000000e+00   0.0000000000000000e+00   0.0000000000000000e+00   0.0000000000000000e+00   0.0000000000000000e+00   0.0000000000000000e+00   4.2124577283814752e-07   0.0000000000000000e+00   4.3298515774963349e+06   7.7321996691827158e-06   4.6793465490676481e+06   3.7979545518999519e+06   3.9094134633810166e+06   3.8947506589675774e+06   3.1461679184130887e+06   3.0671802961159227e+06   2.5004694507205021e+06   2.3493589641606282e+06   2.0319532808201874e+06   1.8437262321207910e+06   1.6721575108734844e+06   1.4532199034631308e+06   1.3734471326995646e+06   1.1205274492080028e+06   1.1155670691964601e+06   8.1807670787759707e+05   5.4909215727042034e+05   0.0000000000000000e+00   0.0000000000000000e+00   0.0000000000000000e+00   0.0000000000000000e+00   0.0000000000000000e+00   0.0000000000000000e+00   0.0000000000000000e+00   2.0927890016607149e-07   0.0000000000000000e+00   1.2750172020572135e+06   1.2997734735291098e+00   8.9221114544788934e+05   3.3309610145576927e+05   9.1149897362047131e+05   7.2864304126312560e+05   8.2857778796593996e+05   8.4615156428719591e+05   7.2644093085465743e+05   9.1607422093801619e+05   6.6508334667369945e+05   1.0310093598875975e+06   7.6250755631375511e+05   1.2131111535319402e+06   1.1311947415328540e+06   1.4825672667664457e+06   1.8180237210360493e+06   1.8798638404729441e+06   2.9188830975385914e+06   2.4909036970582763e+06   4.5753988344160141e+06   3.7863805973922717e+06   6.7374249790337645e+06   6.6144243882954344e+06   7.8139221444330905e+06   9.1983189335880671e+06   4.6611104719051902e+04   3.2841665910601264e+03   0.0000000000000000e+00   0.0000000000000000e+00   0.0000000000000000e+00   0.0000000000000000e+00   0.0000000000000000e+00   0.0000000000000000e+00   0.0000000000000000e+00   0.0000000000000000e+00   0.0000000000000000e+00   0.0000000000000000e+00   0.0000000000000000e+00   0.0000000000000000e+00   0.0000000000000000e+00   0.0000000000000000e+00   0.0000000000000000e+00   0.0000000000000000e+00   0.0000000000000000e+00   0.0000000000000000e+00   0.0000000000000000e+00   0.0000000000000000e+00   0.0000000000000000e+00   0.0000000000000000e+00   0.0000000000000000e+00   0.0000000000000000e+00   0.0000000000000000e+00   0.0000000000000000e+00   0.0000000000000000e+00   0.0000000000000000e+00   0.0000000000000000e+00   0.0000000000000000e+00   0.0000000000000000e+00   0.0000000000000000e+00   6.8874221952553546e+02   0.0000000000000000e+00   3.9849512233950826e+06   2.7315383424458411e+06   3.2728072415514225e+06   3.3516177747757710e+06   2.5320986078895791e+06   2.5463867613511244e+06   2.0381214677457979e+06   2.0058457191207940e+06   1.6581146146764655e+06   1.6033727066742384e+06   1.33052467