<?xml version="1.0"?>
<VTKFile type="UnstructuredGrid"  version="0.1"  >
<UnstructuredGrid>
<Piece  NumberOfPoints="2411" NumberOfCells="4614">
<Points>
<DataArray  type="Float64"  NumberOfComponents="3"  format="ascii">1.36304347826087 0 0  1.371304347826087 0 0  1.371304347826087 0.008333333333333333 0  1.379565217391304 0 0  1.379565217391304 0.008333333333333333 0  1.387826086956522 0 0  1.387826086956522 0.008333333333333333 0  1.396086956521739 0 0  1.396086956521739 0.008333333333333333 0  1.404347826086957 0 0  1.404347826086957 0.008333333333333333 0  1.412608695652174 0 0  1.412608695652174 0.008333333333333333 0  1.420869565217391 0 0  1.420869565217391 0.008333333333333333 0  1.429130434782609 0 0  1.429130434782609 0.008333333333333333 0  1.437391304347826 0 0  1.437391304347826 0.008333333333333333 0  1.445652173913043 0 0  1.445652173913043 0.008333333333333333 0  1.453913043478261 0 0  1.453913043478261 0.008333333333333333 0  1.462173913043478 0 0  1.462173913043478 0.008333333333333333 0  1.470434782608696 0 0  1.470434782608696 0.008333333333333333 0  1.478695652173913 0 0  1.478695652173913 0.008333333333333333 0  1.486956521739131 0 0  1.486956521739131 0.008333333333333333 0  1.495217391304348 0 0  1.495217391304348 0.008333333333333333 0  1.503478260869565 0 0  1.503478260869565 0.008333333333333333 0  1.511739130434782 0 0  1.511739130434782 0.008333333333333333 0  1.52 0 0  1.52 0.008333333333333333 0  1.528260869565217 0 0  1.528260869565217 0.008333333333333333 0  1.536521739130435 0 0  1.536521739130435 0.008333333333333333 0  1.544782608695652 0 0  1.544782608695652 0.008333333333333333 0  1.55304347826087 0 0  1.55304347826087 0.008333333333333333 0  1.561304347826087 0 0  1.561304347826087 0.008333333333333333 0  1.569565217391304 0 0  1.569565217391304 0.008333333333333333 0  1.577826086956522 0 0  1.577826086956522 0.008333333333333333 0  1.586086956521739 0 0  1.586086956521739 0.008333333333333333 0  1.594347826086957 0 0  1.594347826086957 0.008333333333333333 0  1.602608695652174 0 0  1.602608695652174 0.008333333333333333 0  1.610869565217391 0 0  1.610869565217391 0.008333333333333333 0  1.619130434782609 0 0  1.619130434782609 0.008333333333333333 0  1.627391304347826 0 0  1.627391304347826 0.008333333333333333 0  1.635652173913043 0 0  1.635652173913043 0.008333333333333333 0  1.643913043478261 0 0  1.643913043478261 0.008333333333333333 0  1.652173913043478 0 0  1.652173913043478 0.008333333333333333 0  1.660434782608696 0 0  1.660434782608696 0.008333333333333333 0  1.668695652173913 0 0  1.668695652173913 0.008333333333333333 0  1.67695652173913 0 0  1.67695652173913 0.008333333333333333 0  1.685217391304348 0 0  1.685217391304348 0.008333333333333333 0  1.693478260869565 0 0  1.693478260869565 0.008333333333333333 0  1.701739130434782 0 0  1.701739130434782 0.008333333333333333 0  1.71 0 0  1.71 0.008333333333333333 0  1.718260869565217 0 0  1.718260869565217 0.008333333333333333 0  1.726521739130435 0 0  1.726521739130435 0.008333333333333333 0  1.734782608695652 0 0  1.734782608695652 0.008333333333333333 0  1.743043478260869 0.008333333333333333 0  1.379565217391304 0.01666666666666667 0  1.387826086956522 0.01666666666666667 0  1.396086956521739 0.01666666666666667 0  1.404347826086957 0.01666666666666667 0  1.412608695652174 0.01666666666666667 0  1.420869565217391 0.01666666666666667 0  1.429130434782609 0.01666666666666667 0  1.437391304347826 0.01666666666666667 0  1.445652173913043 0.01666666666666667 0  1.453913043478261 0.01666666666666667 0  1.462173913043478 0.01666666666666667 0  1.470434782608696 0.01666666666666667 0  1.478695652173913 0.01666666666666667 0  1.486956521739131 0.01666666666666667 0  1.495217391304348 0.01666666666666667 0  1.503478260869565 0.01666666666666667 0  1.511739130434782 0.01666666666666667 0  1.52 0.01666666666666667 0  1.528260869565217 0.01666666666666667 0  1.536521739130435 0.01666666666666667 0  1.544782608695652 0.01666666666666667 0  1.55304347826087 0.01666666666666667 0  1.561304347826087 0.01666666666666667 0  1.569565217391304 0.01666666666666667 0  1.577826086956522 0.01666666666666667 0  1.586086956521739 0.01666666666666667 0  1.594347826086957 0.01666666666666667 0  1.602608695652174 0.01666666666666667 0  1.610869565217391 0.01666666666666667 0  1.619130434782609 0.01666666666666667 0  1.627391304347826 0.01666666666666667 0  1.635652173913043 0.01666666666666667 0  1.643913043478261 0.01666666666666667 0  1.652173913043478 0.01666666666666667 0  1.660434782608696 0.01666666666666667 0  1.668695652173913 0.01666666666666667 0  1.67695652173913 0.01666666666666667 0  1.685217391304348 0.01666666666666667 0  1.693478260869565 0.01666666666666667 0  1.701739130434782 0.01666666666666667 0  1.71 0.01666666666666667 0  1.718260869565217 0.01666666666666667 0  1.726521739130435 0.01666666666666667 0  1.734782608695652 0.01666666666666667 0  1.743043478260869 0.01666666666666667 0  1.751304347826087 0.01666666666666667 0  1.387826086956522 0.025 0  1.396086956521739 0.025 0  1.404347826086957 0.025 0  1.412608695652174 0.025 0  1.420869565217391 0.025 0  1.429130434782609 0.025 0  1.437391304347826 0.025 0  1.445652173913043 0.025 0  1.453913043478261 0.025 0  1.462173913043478 0.025 0  1.470434782608696 0.025 0  1.478695652173913 0.025 0  1.486956521739131 0.025 0  1.495217391304348 0.025 0  1.503478260869565 0.025 0  1.511739130434782 0.025 0  1.52 0.025 0  1.528260869565217 0.025 0  1.536521739130435 0.025 0  1.544782608695652 0.025 0  1.55304347826087 0.025 0  1.561304347826087 0.025 0  1.569565217391304 0.025 0  1.577826086956522 0.025 0  1.586086956521739 0.025 0  1.594347826086957 0.025 0  1.602608695652174 0.025 0  1.610869565217391 0.025 0  1.619130434782609 0.025 0  1.627391304347826 0.025 0  1.635652173913043 0.025 0  1.643913043478261 0.025 0  1.652173913043478 0.025 0  1.660434782608696 0.025 0  1.668695652173913 0.025 0  1.67695652173913 0.025 0  1.685217391304348 0.025 0  1.693478260869565 0.025 0  1.701739130434782 0.025 0  1.71 0.025 0  1.718260869565217 0.025 0  1.726521739130435 0.025 0  1.734782608695652 0.025 0  1.743043478260869 0.025 0  1.751304347826087 0.025 0  1.759565217391304 0.025 0  1.396086956521739 0.03333333333333333 0  1.404347826086957 0.03333333333333333 0  1.412608695652174 0.03333333333333333 0  1.420869565217391 0.03333333333333333 0  1.429130434782609 0.03333333333333333 0  1.437391304347826 0.03333333333333333 0  1.445652173913043 0.03333333333333333 0  1.453913043478261 0.03333333333333333 0  1.462173913043478 0.03333333333333333 0  1.470434782608696 0.03333333333333333 0  1.478695652173913 0.03333333333333333 0  1.486956521739131 0.03333333333333333 0  1.495217391304348 0.03333333333333333 0  1.503478260869565 0.03333333333333333 0  1.511739130434782 0.03333333333333333 0  1.52 0.03333333333333333 0  1.528260869565217 0.03333333333333333 0  1.536521739130435 0.03333333333333333 0  1.544782608695652 0.03333333333333333 0  1.55304347826087 0.03333333333333333 0  1.561304347826087 0.03333333333333333 0  1.569565217391304 0.03333333333333333 0  1.577826086956522 0.03333333333333333 0  1.586086956521739 0.03333333333333333 0  1.594347826086957 0.03333333333333333 0  1.602608695652174 0.03333333333333333 0  1.610869565217391 0.03333333333333333 0  1.619130434782609 0.03333333333333333 0  1.627391304347826 0.03333333333333333 0  1.635652173913043 0.03333333333333333 0  1.643913043478261 0.03333333333333333 0  1.652173913043478 0.03333333333333333 0  1.660434782608696 0.03333333333333333 0  1.668695652173913 0.03333333333333333 0  1.67695652173913 0.03333333333333333 0  1.685217391304348 0.03333333333333333 0  1.693478260869565 0.03333333333333333 0  1.701739130434782 0.03333333333333333 0  1.71 0.03333333333333333 0  1.718260869565217 0.03333333333333333 0  1.726521739130435 0.03333333333333333 0  1.734782608695652 0.03333333333333333 0  1.743043478260869 0.03333333333333333 0  1.751304347826087 0.03333333333333333 0  1.759565217391304 0.03333333333333333 0  1.767826086956522 0.03333333333333333 0  1.404347826086957 0.04166666666666666 0  1.412608695652174 0.04166666666666666 0  1.420869565217391 0.04166666666666666 0  1.429130434782609 0.04166666666666666 0  1.437391304347826 0.04166666666666666 0  1.445652173913043 0.04166666666666666 0  1.453913043478261 0.04166666666666666 0  1.462173913043478 0.04166666666666666 0  1.470434782608696 0.04166666666666666 0  1.478695652173913 0.04166666666666666 0  1.486956521739131 0.04166666666666666 0  1.495217391304348 0.04166666666666666 0  1.503478260869565 0.04166666666666666 0  1.511739130434782 0.04166666666666666 0  1.52 0.04166666666666666 0  1.528260869565217 0.04166666666666666 0  1.536521739130435 0.04166666666666666 0  1.544782608695652 0.04166666666666666 0  1.55304347826087 0.04166666666666666 0  1.561304347826087 0.04166666666666666 0  1.569565217391304 0.04166666666666666 0  1.577826086956522 0.04166666666666666 0  1.586086956521739 0.04166666666666666 0  1.594347826086957 0.04166666666666666 0  1.602608695652174 0.04166666666666666 0  1.610869565217391 0.04166666666666666 0  1.619130434782609 0.04166666666666666 0  1.627391304347826 0.04166666666666666 0  1.635652173913043 0.04166666666666666 0  1.643913043478261 0.04166666666666666 0  1.652173913043478 0.04166666666666666 0  1.660434782608696 0.04166666666666666 0  1.668695652173913 0.04166666666666666 0  1.67695652173913 0.04166666666666666 0  1.685217391304348 0.04166666666666666 0  1.693478260869565 0.04166666666666666 0  1.701739130434782 0.04166666666666666 0  1.71 0.04166666666666666 0  1.718260869565217 0.04166666666666666 0  1.726521739130435 0.04166666666666666 0  1.734782608695652 0.04166666666666666 0  1.743043478260869 0.04166666666666666 0  1.751304347826087 0.04166666666666666 0  1.759565217391304 0.04166666666666666 0  1.767826086956522 0.04166666666666666 0  1.776086956521739 0.04166666666666666 0  1.412608695652174 0.05 0  1.420869565217391 0.05 0  1.42913
[...]
<CellData  Scalars="sigma_m"> 
<DataArray  type="Float64"  Name="sigma_m"  format="ascii">1.0097155619484140e+07   1.0061020213213662e+07   1.0453204469172347e+07   1.0041630390682289e+07   1.0462026367434535e+07   1.0039636648562081e+07   1.0470256661933031e+07   1.0056458264428975e+07   1.0473464240895370e+07   1.0092172297169898e+07   1.0467935868769946e+07   1.0178058099035718e+07   1.0458656498427656e+07   1.0367573704972358e+07   1.0388785904066462e+07   1.0804290397874827e+07   1.0352932598161684e+07   1.1424941273445554e+07   1.0397267961482104e+07   1.2042765571167234e+07   1.0496121231356334e+07   1.2497648668388028e+07   1.0589427412362095e+07   1.2723982794272183e+07   1.0636062483387666e+07   1.2723308666929984e+07   1.0606977984146854e+07   1.2567450548976000e+07   1.0511741207481518e+07   1.2370791981107542e+07   1.0398159365232790e+07   1.2261415448353786e+07   1.0337506458661249e+07   1.2342984684387276e+07   1.0395170760791628e+07   1.2669374329586968e+07   1.0604454792193856e+07   1.3243320870181508e+07   1.0962523190773560e+07   1.4029810106168704e+07   1.1440823761785703e+07   1.4971958524953900e+07   1.1996967624066694e+07   1.6003282531171085e+07   1.2583087449415524e+07   1.7056048379750215e+07   1.3151785147804070e+07   1.8068731695334159e+07   1.3662011331811486e+07   1.9005272575226620e+07   1.4094289610512681e+07   1.9801988792832468e+07   1.4412352794309663e+07   2.0401977854976255e+07   1.4590010181210730e+07   2.0757149010292388e+07   1.4623456514775891e+07   2.0847378272564609e+07   1.4535460151383841e+07   2.0459842848512460e+07   1.4234567092008777e+07   1.9667023138963439e+07   1.3761034412965897e+07   1.8499618943172384e+07   1.3247443054414336e+07   1.6677254687363904e+07   1.2565297724945512e+07   1.4416329225825379e+07   1.1562205678755568e+07   1.2018022916895712e+07   1.0341874596729018e+07   9.7716652017900757e+06   9.0009086911785956e+06   7.9183827005337486e+06   7.7688213656806173e+06   6.4703860875092018e+06   6.7417175915527148e+06   5.3613815330521902e+06   5.8759810849771053e+06   4.5516175363385230e+06   5.1810772284972658e+06   3.9912748024593657e+06   4.6451422346753711e+06   3.6268824413104891e+06   4.2448038690617923e+06   3.4139743566468344e+06   3.9576512605533847e+06   3.3360828440751261e+06   3.7792123573665624e+06   3.7212610927053145e+06   1.0476589393372297e+07   1.0487796617180521e+07   1.0901502679505540e+07   1.0494397788379060e+07   1.0927456115908375e+07   1.0492847142593212e+07   1.0910986980488302e+07   1.0476932326324901e+07   1.0837850943015886e+07   1.0455115302147465e+07   1.0762440709869072e+07   1.0348367951952279e+07   1.0534945013341140e+07   1.0323203081794353e+07   9.9172183815543167e+06   1.0400168545132333e+07   9.2810747025974505e+06   1.0504129538487131e+07   8.9230505799856000e+06   1.0556671089879695e+07   8.6961015490990635e+06   1.0542007258922908e+07   8.5522046798688881e+06   1.0451346104818981e+07   8.4303055082445685e+06   1.0319757382094648e+07   8.2858610459814575e+06   1.0203070964341680e+07   8.1292873524717949e+06   1.0175206213398675e+07   8.0173214874842586e+06   1.0295966608754143e+07   8.0178029300490515e+06   1.0587089360876674e+07   8.1544843792606993e+06   1.1030322132420877e+07   8.4001441195086464e+06   1.1580897118425410e+07   8.7011896811995730e+06   1.2183196767958719e+07   9.0001433369072340e+06   1.2781627200481344e+07   9.2457975275614094e+06   1.3327218229168925e+07   9.3977874113228507e+06   1.3783028461363591e+07   9.4343552524639461e+06   1.4143095671543272e+07   9.3902099103517160e+06   1.4354044344559362e+07   9.2493017040762510e+06   1.4402501605125317e+07   9.0104624975890741e+06   1.4294874353098953e+07   8.7299170975173693e+06   1.4076263078465329e+07   8.5539200826113429e+06   1.3539413649172835e+07   8.4753149615272507e+06   1.2960972938464563e+07   8.2020825227812622e+06   1.2437485359423755e+07   8.2858825156615805e+06   1.1667169262410710e+07   8.9015220294348635e+06   1.0867031226836177e+07   8.8950477494944092e+06   9.9855619963324908e+06   8.8971677254244182e+06   8.9704572452813461e+06   8.4209348919956479e+06   7.9529372990729474e+06   7.6830525643857196e+06   7.0092076338575752e+06   7.0767851957335416e+06   6.1421367775492426e+06   6.3845172519544158e+06   5.3982194987166142e+06   5.7241999866111912e+06   4.7962629436522871e+06   5.1548916846894687e+06   4.3318752855747165e+06   4.6760802294648299e+06   3.9893209376509921e+06   4.2754653890514998e+06   3.7705841606628299e+06   3.9516996828231956e+06   3.7013888549684100e+06   3.7349005955635593e+06   3.6580259452563822e+06   1.0933958371642854e+07   1.0957717656522671e+07   1.1461667004730379e+07   1.0935533187689429e+07   1.1447674253516279e+07   1.0848722277619654e+07   1.1311545310876342e+07   1.0790050199965740e+07   1.1191177439017452e+07   1.0534077751555143e+07   1.1159122518285226e+07   9.8445762211630009e+06   1.0818180751267878e+07   9.1909206076109968e+06   7.5379472853228962e+06   8.8523066975421179e+06   6.8508524057308286e+06   8.6072339878123607e+06   6.4644433732571406e+06   8.4178173834099211e+06   6.2492358026486402e+06   8.2206462561333496e+06   6.1529634260228388e+06   8.0325272961707888e+06   5.9985424917772794e+06   7.8904936591308815e+06   5.7794944884402724e+06   7.8605821594720967e+06   5.5801476034617834e+06   7.9859731650284752e+06   5.5209545192146758e+06   8.2573800035933247e+06   5.6264832470429745e+06   8.6222690679783784e+06   5.8276560793634895e+06   9.0109783129239287e+06   6.0283425193479909e+06   9.3559875262874328e+06   6.1466859466080368e+06   9.6005259671493229e+06   6.1213065110190688e+06   9.7042283502692115e+06   5.9112883913972275e+06   9.6522149926329143e+06   5.5147634935521167e+06   9.5034436283042692e+06   5.0665071214493364e+06   9.1832798781797886e+06   4.6263638496423867e+06   8.7170034453608375e+06   4.2699362788171060e+06   8.1773285524155954e+06   4.1176832725266381e+06   7.7935220871260362e+06   4.0979036851551235e+06   7.0622108034313088e+06   5.5446683861944461e+06   6.5246819612202374e+06   5.4198848595740842e+06   6.6006154985000081e+06   4.8217017246114872e+06   6.6076478342575505e+06   6.2554206748009399e+06   6.9743522725837547e+06   5.5388872483534012e+06   7.6116209092881801e+06   6.3574529710633243e+06   7.9804615189647423e+06   8.5131474292457681e+06   7.6802103155391170e+06   7.4600860286289304e+06   7.3309268780791406e+06   7.6204618927932158e+06   6.7232123366597481e+06   7.0130950433398271e+06   6.0494867410606639e+06   6.3008416356878458e+06   5.4113518132443158e+06   5.6317528332245452e+06   4.8444463512829784e+06   5.0169755138556687e+06   4.3532386462616865e+06   4.4623814659153242e+06   3.9525349706568695e+06   3.9460526183155761e+06   3.6956467178001306e+06   3.5205007745804731e+06   3.6379725762149077e+06   3.2597623740879120e+06   3.2108070988001656e+06   1.0327221569876369e+07   1.0313489156857606e+07   4.7821185226043907e+05   1.0262265602990991e+07   7.3947356556522439e+05   1.0277942694227751e+07   4.2597630311152488e+06   1.0188895625367289e+07   6.9380653868513294e+06   1.0084190640970791e+07   8.6956875366560109e+06   7.5239838890256565e+06   7.0461808337921957e+06   6.6837658061978584e+06   3.9094889346816028e+06   6.2121320642375676e+06   4.0411466424932024e+06   5.9938288633965198e+06   3.3866340805410608e+06   5.8178234801527802e+06   3.6698806678454257e+06   5.6400863246185398e+06   3.6813401226258520e+06   5.5008522999743093e+06   3.4652873264505398e+06   5.4914536751290020e+06   3.1806897270450164e+06   5.6471218686388517e+06   3.1066341901324182e+06   5.9225924029976996e+06   3.2612484809916602e+06   6.2280406494747503e+06   3.4793778131317622e+06   6.4726779901011772e+06   3.6096588161522010e+06   6.5816099560897294e+06   3.5621500136103602e+06   6.4929875774166975e+06   3.2883793654909227e+06   6.1631374780159052e+06   2.7822917406880762e+06   5.5933664811791498e+06   2.2106730153434100e+06   4.9743037256078403e+06   1.9838427191474875e+06   4.1485555957826478e+06   2.9251940731006539e+06   3.2044229562443788e+06   4.3674448300792389e+06   2.2693592582895607e+06   6.0241411931433035e+06   1.8245309085916425e+06   6.5649139700679425e+06   1.8821282068522293e+06   1.0099204608420189e+07   2.6013080298944497e+06   8.3628951083458457e+06   3.9179450911282236e+06   7.0256013180702142e+06   2.0489027158760505e+06   1.1162852795180317e+07   2.3482491026541954e+06   4.4753177237487081e+06   4.4009820724694533e+06   2.0901214540784485e+06   6.9343256162782172e+06   4.3100716403515376e+06   7.6505158096777247e+06   8.4925290161283035e+06   8.0303559759735912e+06   7.8509523018686818e+06   7.5194771471919809e+06   8.0509433283522269e+06   6.7884773337457050e+06   7.0447378033922100e+06   6.0468843801724724e+06   6.2300155920625450e+06   5.3161813225381775e+06   5.3603330861986037e+06   4.6459657341605434e+06   4.6416655328015145e+06   4.0284680127587072e+06   3.9184136641326258e+06   3.5329044254982285e+06   3.2416399085651566e+06   3.2543255248297197e+06   2.7353124586195857e+06   3.2462735995735754e+06   2.5303131520434399e+06   2.6028914156509596e+06   0.0000000000000000e+00   0.0000000000000000e+00   0.0000000000000000e+00   0.0000000000000000e+00   0.0000000000000000e+00   0.0000000000000000e+00   0.0000000000000000e+00   3.0939963733371520e-06   0.0000000000000000e+00   2.0108451523354605e+00   4.3211081531721041e-10   1.7341712188052132e+06   5.4301939581389829e-03   3.1594584993289239e+06   6.9354584018329368e+05   2.9792357900681240e+06   5.6195610782532953e+05   3.1936298057097024e+06   1.3256522937475287e+06   3.2093237761864364e+06   1.5787436573655659e+06   3.2110343713522302e+06   1.5016181276036364e+06   3.3403849009449440e+06   1.1182847239989138e+06   3.5837196900582016e+06   1.2026558628475207e+06   3.8586533703050567e+06   1.5535801403860725e+06   4.0628862928059436e+06   1.7716483062075719e+06   4.1131528335352810e+06   1.7407964798272052e+06   3.9490010993220783e+06   1.4382828808467046e+06   3.5169407119500930e+06   9.8138776918297366e+05   2.7502194690426174e+06   1.3286875825583383e+06   1.6825088794511587e+06   2.9585918042647052e+06   1.1829790531944849e+06   4.2034733604756314e+06   1.9857823357905152e+06   6.8291972299481565e+06   3.5974258514775452e+06   9.1210744972209558e+06   5.9733185729661984e+06   1.0793551100052344e+07   8.1394644432269149e+06   1.0545334386458581e+07   7.6781390790870348e+06   1.7533268453121662e+07   3.7473379153300710e+06   6.2074340082893788e+05   1.1284570696241890e+03   7.2252232876595691e-03   1.5677923016704869e-03   4.1962660454709897e-09   1.2315297331910367e-07   0.0000000000000000e+00   2.1891373513140853e-09   0.0000000000000000e+00   5.1380946024588246e-08   0.0000000000000000e+00   7.6416961317474609e-04   0.0000000000000000e+00   3.5777612782763513e+03   9.1299890005371620e-08   6.7305698120575622e+06   5.4874891371511216e+00   7.7111958323981166e+06   6.8427285001212424e+06   7.0184003034089096e+06   7.1844160675822832e+06   5.8533941408386333e+06   5.6695174252654472e+06   4.9771606122279158e+06   4.8962956039489089e+06   4.1631601266284352e+06   4.0588607406977341e+06   3.4222547295311429e+06   3.1577996188502028e+06   2.8642664414158254e+06   2.3598672266656277e+06   2.6066693680492458e+06   1.9003966014023237e+06   2.6433488548744908e+06   1.8695585944960539e+06   2.0199519882879832e+06   0.0000000000000000e+00   0.0000000000000000e+00   0.0000000000000000e+00   0.0000000000000000e+00   0.0000000000000000e+00   0.0000000000000000e+00   0.0000000000000000e+00   0.0000000000000000e+00   0.0000000000000000e+00   0.0000000000000000e+00   0.0000000000000000e+00   1.1749760568328472e-07   0.0000000000000000e+00   9.1759934404057288e+05   4.6113193226801353e-07   2.5883987190557271e+06   1.1111539619140492e+06   1.7353459983140936e+06   9.4546444090972270e+05   1.7138108614617332e+06   8.5117202954160399e+05   2.1033338661271245e+06   1.0331703542818053e+06   2.3597119392166263e+06   1.4857471223952344e+06   2.4582768912134967e+06   1.6697638574797215e+06   2.3739579613116868e+06   1.5400968507990923e+06   2.0737075529397626e+06   1.1726957668159232e+06   1.5574988932668508e+06   8.9640566271897964e+05   1.0537669571502577e+06   1.6683282048664107e+06   1.5526398725518424e+06   3.5126837800000026e+06   3.2024769131159647e+06   6.3046795670362683e+06   5.1199470613239808e+06   7.3102309933499424e+06   8.1321148515858483e+06   1.1296984967337329e+07   1.0620651570624234e+07   1.3412740914960403e+07   9.4932970673560780e+06   1.4455393051628737e+07   1.9219557808402602e+04   2.5544669782442058e+00   1.1529780718984473e-07   0.0000000000000000e+00   0.0000000000000000e+00   0.0000000000000000e+00   0.0000000000000000e+00   0.0000000000000000e+00   0.0000000000000000e+00   0.0000000000000000e+00   0.0000000000000000e+00   0.0000000000000000e+00   0.0000000000000000e+00   0.0000000000000000e+00   0.0000000000000000e+00   0.0000000000000000e+00   0.0000000000000000e+00   0.0000000000000000e+00   0.0000000000000000e+00   0.0000000000000000e+00   0.0000000000000000e+00   0.0000000000000000e+00   1.8176638857545628e-05   0.0000000000000000e+00   3.8892375306948144e+06   3.5633920381596049e-06   5.7514437377299070e+06   3.0942397086161920e+06   5.1904431270142151e+06   5.2658180140122455e+06   4.4653518352351915e+06   4.5226924426720068e+06   3.6086260076326267e+06   3.5205042803784912e+06   2.8034820602417379e+06   2.5319746303033954e+06   2.1763294417959601e+06   1.7756889010317861e+06   1.8710940358752112e+06   1.4589940704219311e+06   1.8119593309051669e+06   1.4214576355975636e+06   0.0000000000000000e+00   0.0000000000000000e+00   0.0000000000000000e+00   0.0000000000000000e+00   0.0000000000000000e+00   0.0000000000000000e+00   0.0000000000000000e+00   0.0000000000000000e+00   0.0000000000000000e+00   0.0000000000000000e+00   0.0000000000000000e+00   0.0000000000000000e+00   0.0000000000000000e+00   3.3220229648569433e-01   0.0000000000000000e+00   3.0664218434548178e+06   1.5649377888689148e+03   1.9696993161313427e+06   8.3797257180862897e+05   2.3522742009032588e+06   1.8003767159237722e+06   2.3400375723423529e+06   2.4761505144313774e+06   2.0102886690911751e+06   2.4162933737307289e+06   1.4508565485473783e+06   1.9963550145006415e+06   8.1159691919183393e+05   1.6115698798282063e+06   1.1661976485436857e+06   1.9520788913732779e+06   2.6534083047128357e+06   3.4365020441401927e+06   4.6380947927264413e+06   6.2191792868212629e+06   7.0047172230570810e+06   1.0371672128785364e+07   9.5102502862525191e+06   8.8781354090577085e+06   9.0613654699009061e+06   1.4195055398457147e+07   1.3114090805535900e+03   1.2777598315838290e+00   0.0000000000000000e+00   0.0000000000000000e+00   0.0000000000000000e+00   0.0000000000000000e+00   0.0000000000000000e+00   0.0000000000000000e+00   0.0000000000000000e+00   0.0000000000000000e+00   0.0000000000000000e+00   0.0000000000000000e+00   0.0000000000000000e+00   0.0000000000000000e+00   0.0000000000000000e+00   0.0000000000000000e+00   0.0000000000000000e+00   0.0000000000000000e+00   0.0000000000000000e+00   0.0000000000000000e+00   0.0000000000000000e+00   0.0000000000000000e+00   0.0000000000000000e+00   0.0000000000000000e+00   0.0000000000000000e+00   0.0000000000000000e+00   0.0000000000000000e+00   0.0000000000000000e+00   0.0000000000000000e+00   0.0000000000000000e+00   5.0149210800185511e-05   0.0000000000000000e+00   4.5613603432446048e+06   1.6066210416398152e-03   5.3036313192752022e+06   4.7911258966622120e+06   4.3042318201691750e+06   4.4004121023851559e+06   3.3625564093697462e+06   3.3466390462622298e+06   2.3676221375369085e+06   2.3912962697252058e+06   1.5527000168582704e+06   1.7396178183716042e+06   9.3760165088775882e+05   1.2657518912903164e+06   8.5386488545810687e+05   0.0000000000000000e+00   0.0000000000000000e+00   0.0000000000000000e+00   0.0000000000000000e+00   0.0000000000000000e+00   0.0000000000000000e+00   0.0000000000000000e+00   0.0000000000000000e+00   0.0000000000000000e+00   0.0000000000000000e+00   0.0000000000000000e+00   0.0000000000000000e+00   0.0000000000000000e+00   5.0089005762279082e-01   0.0000000000000000e+00   1.7928374801105133e+06   3.0871598284721421e+05   2.6568537155897808e+06   1.7131288555128991e+06   2.4922018521468453e+06   2.9010880758143100e+06   1.8973966342352326e+06   2.5994166996080112e+06   1.3350267901248925e+06   1.9367839323019015e+06   1.7986934341350577e+06   1.7339760398676067e+06   3.4724308855456943e+06   2.7424446360835372e+06   6.0345526632290846e+06   4.9481781679338021e+06   9.4515488941050433e+06   9.0229927903625164e+06   1.3733638126047576e+07   1.2167542934776310e+07   2.3143686997146080e+06   4.0165346452770918e+06   9.7678525205596183e-09   0.0000000000000000e+00   0.0000000000000000e+00   0.0000000000000000e+00   0.0000000000000000e+00   0.0000000000000000e+00   0.0000000000000000e+00   0.0000000000000000e+00   0.0000000000000000e+00   0.0000000000000000e+00   0.0000000000000000e+00   0.0000000000000000e+00   0.0000000000000000e+00   0.0000000000000000e+00   0.0000000000000000e+00   0.0000000000000000e+00   0.0000000000000000e+00   0.0000000000000000e+00   0.0000000000000000e+00   0.0000000000000000e+00   0.0000000000000000e+00   0.0000000000000000e+00   0.0000000000000000e+00   0.0000000000000000e+00   0.0000000000000000e+00   0.0000000000000000e+00   0.0000000000000000e+00   0.0000000000000000e+00   0.0000000000000000e+00   0.0000000000000000e+00   0.0000000000000000e+00   0.0000000000000000e+00   0.0000000000000000e+00   0.0000000000000000e+00   0.0000000000000000e+00   0.0000000000000000e+00   1.4098635792516702e+05   0.0000000000000000e+00   5.1259994601645023e+06   4.4656284065538514e+06   4.4263685274742767e+06   4.4337626886748141e+06   3.1451176236684844e+06   3.3607329809173248e+06   2.0215140494544241e+06   2.4505311480652648e+06   9.7553694593718974e+05   1.6003401579070752e+06   8.5552997595218779e+05   6.7755540753034607e+05   5.9091231798308424e+05   0.0000000000000000e+00   0.0000000000000000e+00   0.0000000000000000e+00   0.0000000000000000e+00   0.0000000000000000e+00   0.0000000000000000e+00   0.0000000000000000e+00   0.0000000000000000e+00   0.0000000000000000e+00   0.0000000000000000e+00   0.0000000000000000e+00   0.0000000000000000e+00   0.0000000000000000e+00   1.3062032057794128e+06   5.2829854625133392e-02   2.7705198177320827e+06   2.7003929989798116e+06   2.1582864149158588e+06   3.0450859718098636e+06   1.5377418655270145e+06   2.1793459982530847e+06   1.7901409476641712e+06   1.3056616972465392e+06   3.3381897507776814e+06   1.7871006159040283e+06   5.7797957140921876e+06   3.5388608472754252e+06   9.0644905821845308e+06   6.5258992358245486e+06   1.1307956373637617e+07   1.1586605167613737e+07   2.8238396008201594e+03   2.1075965075013419e+03   0.0000000000000000e+00   0.0000000000000000e+00   0.0000000000000000e+00   0.0000000000000000e+00   0.0000000000000000e+00   0.0000000000000000e+00   0.0000000000000000e+00   0.0000000000000000e+00   0.0000000000000000e+00   0.0000000000000000e+00   0.0000000000000000e+00   0.0000000000000000e+00   0.0000000000000000e+00   0.0000000000000000e+00   0.0000000000000000e+00   0.0000000000000000e+00   0.0000000000000000e+00   0.0000000000000000e+00   0.0000000000000000e+00   0.0000000000000000e+00   0.0000000000000000e+00   0.0000000000000000e+00   0.0000000000000000e+00   0.0000000000000000e+00   0.0000000000000000e+00   0.0000000000000000e+00   0.0000000000000000e+00   0.0000000000000000e+00   0.0000000000000000e+00   0.0000000000000000e+00   0.0000000000000000e+00   0.0000000000000000e+00   0.0000000000000000e+00   0.0000000000000000e+00   0.0000000000000000e+00   0.0000000000000000e+00   0.0000000000000000e+00   0.0000000000000000e+00   0.0000000000000000e+00   0.0000000000000000e+00   1.7919146144567789e+06   1.2949247433128918e-07   6.2709516799425324e+06   6.1409068623158922e+06   4.2530173286907524e+06   4.6111244072347730e+06   2.9083978809437049e+06   3.3034580425498127e+06   1.83904977