<?xml version="1.0"?>
<VTKFile type="UnstructuredGrid"  version="0.1"  >
<UnstructuredGrid>
<Piece  NumberOfPoints="2411" NumberOfCells="4614">
<Points>
<DataArray  type="Float64"  NumberOfComponents="3"  format="ascii">1.36304347826087 0 0  1.371304347826087 0 0  1.371304347826087 0.008333333333333333 0  1.379565217391304 0 0  1.379565217391304 0.008333333333333333 0  1.387826086956522 0 0  1.387826086956522 0.008333333333333333 0  1.396086956521739 0 0  1.396086956521739 0.008333333333333333 0  1.404347826086957 0 0  1.404347826086957 0.008333333333333333 0  1.412608695652174 0 0  1.412608695652174 0.008333333333333333 0  1.420869565217391 0 0  1.420869565217391 0.008333333333333333 0  1.429130434782609 0 0  1.429130434782609 0.008333333333333333 0  1.437391304347826 0 0  1.437391304347826 0.008333333333333333 0  1.445652173913043 0 0  1.445652173913043 0.008333333333333333 0  1.453913043478261 0 0  1.453913043478261 0.008333333333333333 0  1.462173913043478 0 0  1.462173913043478 0.008333333333333333 0  1.470434782608696 0 0  1.470434782608696 0.008333333333333333 0  1.478695652173913 0 0  1.478695652173913 0.008333333333333333 0  1.486956521739131 0 0  1.486956521739131 0.008333333333333333 0  1.495217391304348 0 0  1.495217391304348 0.008333333333333333 0  1.503478260869565 0 0  1.503478260869565 0.008333333333333333 0  1.511739130434782 0 0  1.511739130434782 0.008333333333333333 0  1.52 0 0  1.52 0.008333333333333333 0  1.528260869565217 0 0  1.528260869565217 0.008333333333333333 0  1.536521739130435 0 0  1.536521739130435 0.008333333333333333 0  1.544782608695652 0 0  1.544782608695652 0.008333333333333333 0  1.55304347826087 0 0  1.55304347826087 0.008333333333333333 0  1.561304347826087 0 0  1.561304347826087 0.008333333333333333 0  1.569565217391304 0 0  1.569565217391304 0.008333333333333333 0  1.577826086956522 0 0  1.577826086956522 0.008333333333333333 0  1.586086956521739 0 0  1.586086956521739 0.008333333333333333 0  1.594347826086957 0 0  1.594347826086957 0.008333333333333333 0  1.602608695652174 0 0  1.602608695652174 0.008333333333333333 0  1.610869565217391 0 0  1.610869565217391 0.008333333333333333 0  1.619130434782609 0 0  1.619130434782609 0.008333333333333333 0  1.627391304347826 0 0  1.627391304347826 0.008333333333333333 0  1.635652173913043 0 0  1.635652173913043 0.008333333333333333 0  1.643913043478261 0 0  1.643913043478261 0.008333333333333333 0  1.652173913043478 0 0  1.652173913043478 0.008333333333333333 0  1.660434782608696 0 0  1.660434782608696 0.008333333333333333 0  1.668695652173913 0 0  1.668695652173913 0.008333333333333333 0  1.67695652173913 0 0  1.67695652173913 0.008333333333333333 0  1.685217391304348 0 0  1.685217391304348 0.008333333333333333 0  1.693478260869565 0 0  1.693478260869565 0.008333333333333333 0  1.701739130434782 0 0  1.701739130434782 0.008333333333333333 0  1.71 0 0  1.71 0.008333333333333333 0  1.718260869565217 0 0  1.718260869565217 0.008333333333333333 0  1.726521739130435 0 0  1.726521739130435 0.008333333333333333 0  1.734782608695652 0 0  1.734782608695652 0.008333333333333333 0  1.743043478260869 0.008333333333333333 0  1.379565217391304 0.01666666666666667 0  1.387826086956522 0.01666666666666667 0  1.396086956521739 0.01666666666666667 0  1.404347826086957 0.01666666666666667 0  1.412608695652174 0.01666666666666667 0  1.420869565217391 0.01666666666666667 0  1.429130434782609 0.01666666666666667 0  1.437391304347826 0.01666666666666667 0  1.445652173913043 0.01666666666666667 0  1.453913043478261 0.01666666666666667 0  1.462173913043478 0.01666666666666667 0  1.470434782608696 0.01666666666666667 0  1.478695652173913 0.01666666666666667 0  1.486956521739131 0.01666666666666667 0  1.495217391304348 0.01666666666666667 0  1.503478260869565 0.01666666666666667 0  1.511739130434782 0.01666666666666667 0  1.52 0.01666666666666667 0  1.528260869565217 0.01666666666666667 0  1.536521739130435 0.01666666666666667 0  1.544782608695652 0.01666666666666667 0  1.55304347826087 0.01666666666666667 0  1.561304347826087 0.01666666666666667 0  1.569565217391304 0.01666666666666667 0  1.577826086956522 0.01666666666666667 0  1.586086956521739 0.01666666666666667 0  1.594347826086957 0.01666666666666667 0  1.602608695652174 0.01666666666666667 0  1.610869565217391 0.01666666666666667 0  1.619130434782609 0.01666666666666667 0  1.627391304347826 0.01666666666666667 0  1.635652173913043 0.01666666666666667 0  1.643913043478261 0.01666666666666667 0  1.652173913043478 0.01666666666666667 0  1.660434782608696 0.01666666666666667 0  1.668695652173913 0.01666666666666667 0  1.67695652173913 0.01666666666666667 0  1.685217391304348 0.01666666666666667 0  1.693478260869565 0.01666666666666667 0  1.701739130434782 0.01666666666666667 0  1.71 0.01666666666666667 0  1.718260869565217 0.01666666666666667 0  1.726521739130435 0.01666666666666667 0  1.734782608695652 0.01666666666666667 0  1.743043478260869 0.01666666666666667 0  1.751304347826087 0.01666666666666667 0  1.387826086956522 0.025 0  1.396086956521739 0.025 0  1.404347826086957 0.025 0  1.412608695652174 0.025 0  1.420869565217391 0.025 0  1.429130434782609 0.025 0  1.437391304347826 0.025 0  1.445652173913043 0.025 0  1.453913043478261 0.025 0  1.462173913043478 0.025 0  1.470434782608696 0.025 0  1.478695652173913 0.025 0  1.486956521739131 0.025 0  1.495217391304348 0.025 0  1.503478260869565 0.025 0  1.511739130434782 0.025 0  1.52 0.025 0  1.528260869565217 0.025 0  1.536521739130435 0.025 0  1.544782608695652 0.025 0  1.55304347826087 0.025 0  1.561304347826087 0.025 0  1.569565217391304 0.025 0  1.577826086956522 0.025 0  1.586086956521739 0.025 0  1.594347826086957 0.025 0  1.602608695652174 0.025 0  1.610869565217391 0.025 0  1.619130434782609 0.025 0  1.627391304347826 0.025 0  1.635652173913043 0.025 0  1.643913043478261 0.025 0  1.652173913043478 0.025 0  1.660434782608696 0.025 0  1.668695652173913 0.025 0  1.67695652173913 0.025 0  1.685217391304348 0.025 0  1.693478260869565 0.025 0  1.701739130434782 0.025 0  1.71 0.025 0  1.718260869565217 0.025 0  1.726521739130435 0.025 0  1.734782608695652 0.025 0  1.743043478260869 0.025 0  1.751304347826087 0.025 0  1.759565217391304 0.025 0  1.396086956521739 0.03333333333333333 0  1.404347826086957 0.03333333333333333 0  1.412608695652174 0.03333333333333333 0  1.420869565217391 0.03333333333333333 0  1.429130434782609 0.03333333333333333 0  1.437391304347826 0.03333333333333333 0  1.445652173913043 0.03333333333333333 0  1.453913043478261 0.03333333333333333 0  1.462173913043478 0.03333333333333333 0  1.470434782608696 0.03333333333333333 0  1.478695652173913 0.03333333333333333 0  1.486956521739131 0.03333333333333333 0  1.495217391304348 0.03333333333333333 0  1.503478260869565 0.03333333333333333 0  1.511739130434782 0.03333333333333333 0  1.52 0.03333333333333333 0  1.528260869565217 0.03333333333333333 0  1.536521739130435 0.03333333333333333 0  1.544782608695652 0.03333333333333333 0  1.55304347826087 0.03333333333333333 0  1.561304347826087 0.03333333333333333 0  1.569565217391304 0.03333333333333333 0  1.577826086956522 0.03333333333333333 0  1.586086956521739 0.03333333333333333 0  1.594347826086957 0.03333333333333333 0  1.602608695652174 0.03333333333333333 0  1.610869565217391 0.03333333333333333 0  1.619130434782609 0.03333333333333333 0  1.627391304347826 0.03333333333333333 0  1.635652173913043 0.03333333333333333 0  1.643913043478261 0.03333333333333333 0  1.652173913043478 0.03333333333333333 0  1.660434782608696 0.03333333333333333 0  1.668695652173913 0.03333333333333333 0  1.67695652173913 0.03333333333333333 0  1.685217391304348 0.03333333333333333 0  1.693478260869565 0.03333333333333333 0  1.701739130434782 0.03333333333333333 0  1.71 0.03333333333333333 0  1.718260869565217 0.03333333333333333 0  1.726521739130435 0.03333333333333333 0  1.734782608695652 0.03333333333333333 0  1.743043478260869 0.03333333333333333 0  1.751304347826087 0.03333333333333333 0  1.759565217391304 0.03333333333333333 0  1.767826086956522 0.03333333333333333 0  1.404347826086957 0.04166666666666666 0  1.412608695652174 0.04166666666666666 0  1.420869565217391 0.04166666666666666 0  1.429130434782609 0.04166666666666666 0  1.437391304347826 0.04166666666666666 0  1.445652173913043 0.04166666666666666 0  1.453913043478261 0.04166666666666666 0  1.462173913043478 0.04166666666666666 0  1.470434782608696 0.04166666666666666 0  1.478695652173913 0.04166666666666666 0  1.486956521739131 0.04166666666666666 0  1.495217391304348 0.04166666666666666 0  1.503478260869565 0.04166666666666666 0  1.511739130434782 0.04166666666666666 0  1.52 0.04166666666666666 0  1.528260869565217 0.04166666666666666 0  1.536521739130435 0.04166666666666666 0  1.544782608695652 0.04166666666666666 0  1.55304347826087 0.04166666666666666 0  1.561304347826087 0.04166666666666666 0  1.569565217391304 0.04166666666666666 0  1.577826086956522 0.04166666666666666 0  1.586086956521739 0.04166666666666666 0  1.594347826086957 0.04166666666666666 0  1.602608695652174 0.04166666666666666 0  1.610869565217391 0.04166666666666666 0  1.619130434782609 0.04166666666666666 0  1.627391304347826 0.04166666666666666 0  1.635652173913043 0.04166666666666666 0  1.643913043478261 0.04166666666666666 0  1.652173913043478 0.04166666666666666 0  1.660434782608696 0.04166666666666666 0  1.668695652173913 0.04166666666666666 0  1.67695652173913 0.04166666666666666 0  1.685217391304348 0.04166666666666666 0  1.693478260869565 0.04166666666666666 0  1.701739130434782 0.04166666666666666 0  1.71 0.04166666666666666 0  1.718260869565217 0.04166666666666666 0  1.726521739130435 0.04166666666666666 0  1.734782608695652 0.04166666666666666 0  1.743043478260869 0.04166666666666666 0  1.751304347826087 0.04166666666666666 0  1.759565217391304 0.04166666666666666 0  1.767826086956522 0.04166666666666666 0  1.776086956521739 0.04166666666666666 0  1.412608695652174 0.05 0  1.420869565217391 0.05 0  1.42913
[...]
<PointData  Vectors="Displacement"> 
<DataArray  type="Float64"  Name="Displacement"  NumberOfComponents="3" format="ascii">1.7996476423919654e-04 1.1314007304801263e-03 0.0000000000000000e+00  1.8093952596056142e-04 1.1351867690871610e-03 0.0000000000000000e+00  1.7713558440643295e-04 1.1348599675153007e-03 0.0000000000000000e+00  1.8191071268586028e-04 1.1389521620633447e-03 0.0000000000000000e+00  1.7812591941178914e-04 1.1386258951114796e-03 0.0000000000000000e+00  1.8288047647430441e-04 1.1426946337057796e-03 0.0000000000000000e+00  1.7911687422232864e-04 1.1423684595816147e-03 0.0000000000000000e+00  1.8385035804714583e-04 1.1464134605543295e-03 0.0000000000000000e+00  1.8010868538028541e-04 1.1460873354869471e-03 0.0000000000000000e+00  1.8482157242984124e-04 1.1501081217382058e-03 0.0000000000000000e+00  1.8110122794333947e-04 1.1497823852188610e-03 0.0000000000000000e+00  1.8579626341157300e-04 1.1537778560402529e-03 0.0000000000000000e+00  1.8209408891145095e-04 1.1534526851933380e-03 0.0000000000000000e+00  1.8677946546232944e-04 1.1574230378313993e-03 0.0000000000000000e+00  1.8308763545697265e-04 1.1570975739104558e-03 0.0000000000000000e+00  1.8778033835295351e-04 1.1610495889087203e-03 0.0000000000000000e+00  1.8408372474821081e-04 1.1607213593077430e-03 0.0000000000000000e+00  1.8881056662007416e-04 1.1646758513223499e-03 0.0000000000000000e+00  1.8508475757114307e-04 1.1643414396516046e-03 0.0000000000000000e+00  1.8988335027484465e-04 1.1683307051916854e-03 0.0000000000000000e+00  1.8609641550517778e-04 1.1679849890697581e-03 0.0000000000000000e+00  1.9100705577732282e-04 1.1720583900287167e-03 0.0000000000000000e+00  1.8712382923722471e-04 1.1716986352409164e-03 0.0000000000000000e+00  1.9217966314913945e-04 1.1759076116075039e-03 0.0000000000000000e+00  1.8816771144535422e-04 1.1755351399534895e-03 0.0000000000000000e+00  1.9338857021924672e-04 1.1799186046324002e-03 0.0000000000000000e+00  1.8922308010771286e-04 1.1795383790732940e-03 0.0000000000000000e+00  1.9461756306163555e-04 1.1841111733852166e-03 0.0000000000000000e+00  1.9028360690802473e-04 1.1837281729514058e-03 0.0000000000000000e+00  1.9585432953101752e-04 1.1884873856065406e-03 0.0000000000000000e+00  1.9134530450766921e-04 1.1881045613749272e-03 0.0000000000000000e+00  1.9709477478355167e-04 1.1930391971716977e-03 0.0000000000000000e+00  1.9240856026617444e-04 1.1926566402665761e-03 0.0000000000000000e+00  1.9834373305184876e-04 1.1977571041671749e-03 0.0000000000000000e+00  1.9347831165957778e-04 1.1973723187270399e-03 0.0000000000000000e+00  1.9961291800037258e-04 1.2026370758652395e-03 0.0000000000000000e+00  1.9456272033725668e-04 1.2022459633501076e-03 0.0000000000000000e+00  2.0091778120496682e-04 1.2076841070414737e-03 0.0000000000000000e+00  1.9567139006420589e-04 1.2072819755149669e-03 0.0000000000000000e+00  2.0227453659493139e-04 1.2129131724978588e-03 0.0000000000000000e+00  1.9681373780890257e-04 1.2124955167328699e-03 0.0000000000000000e+00  2.0369777995370085e-04 1.2183487807595908e-03 0.0000000000000000e+00  1.9799765722574818e-04 1.2179118516199990e-03 0.0000000000000000e+00  2.0519865482625948e-04 1.2240238424943311e-03 0.0000000000000000e+00  1.9922842672177499e-04 1.2235650876047455e-03 0.0000000000000000e+00  2.0678342091636542e-04 1.2299780878034345e-03 0.0000000000000000e+00  2.0050781388000354e-04 1.2294965130594270e-03 0.0000000000000000e+00  2.0845238056804458e-04 1.2362560132767051e-03 0.0000000000000000e+00  2.0183340625332937e-04 1.2357524613422937e-03 0.0000000000000000e+00  2.1019947412383871e-04 1.2429040303764223e-03 0.0000000000000000e+00  2.0319851581001935e-04 1.2423811401258444e-03 0.0000000000000000e+00  2.1201241951009661e-04 1.2499677478944977e-03 0.0000000000000000e+00  2.0459250283665247e-04 1.2494298099796847e-03 0.0000000000000000e+00  2.1387474818046294e-04 1.2574870764597865e-03 0.0000000000000000e+00  2.0600326968912486e-04 1.2569385794212438e-03 0.0000000000000000e+00  2.1576437474608626e-04 1.2654996944154939e-03 0.0000000000000000e+00  2.0741561542168992e-04 1.2649471240476543e-03 0.0000000000000000e+00  2.1765610362895304e-04 1.2740301504411099e-03 0.0000000000000000e+00  2.0881514287249907e-04 1.2734790501592501e-03 0.0000000000000000e+00  2.1951515582177211e-04 1.2831018423999536e-03 0.0000000000000000e+00  2.1018089272602556e-04 1.2825630417475124e-03 0.0000000000000000e+00  2.2130489216155434e-04 1.2927046921031857e-03 0.0000000000000000e+00  2.1149639138210767e-04 1.2921862320157363e-03 0.0000000000000000e+00  2.2298891973899699e-04 1.3028093824587641e-03 0.0000000000000000e+00  2.1274729122921121e-04 1.3023197350874925e-03 0.0000000000000000e+00  2.2452459281685572e-04 1.3133713097089627e-03 0.0000000000000000e+00  2.1391267848061188e-04 1.3129246118718119e-03 0.0000000000000000e+00  2.2587894457507858e-04 1.3242952538075653e-03 0.0000000000000000e+00  2.1498068340380133e-04 1.3238986336023906e-03 0.0000000000000000e+00  2.2703403696503315e-04 1.3354708783126358e-03 0.0000000000000000e+00  2.1594505936582594e-04 1.3351283822318676e-03 0.0000000000000000e+00  2.2798589848077147e-04 1.3467824142156680e-03 0.0000000000000000e+00  2.1680340390713645e-04 1.3464952933351791e-03 0.0000000000000000e+00  2.2874341312954766e-04 1.3581194364697545e-03 0.0000000000000000e+00  2.1755571765120140e-04 1.3578863093636480e-03 0.0000000000000000e+00  2.2932971348881915e-04 1.3693841573115602e-03 0.0000000000000000e+00  2.1820694178926187e-04 1.3691987109812516e-03 0.0000000000000000e+00  2.2978208482831163e-04 1.3805036495586501e-03 0.0000000000000000e+00  2.1877056755570856e-04 1.3803540637614938e-03 0.0000000000000000e+00  2.3014391390704868e-04 1.3914432307348401e-03 0.0000000000000000e+00  2.1926575431710025e-04 1.3913163658546837e-03 0.0000000000000000e+00  2.3045142009464088e-04 1.4022065508551588e-03 0.0000000000000000e+00  2.1970891191900715e-04 1.4020936969448834e-03 0.0000000000000000e+00  2.3073026250029866e-04 1.4128116233838414e-03 0.0000000000000000e+00  2.2011366120751371e-04 1.4127068858226103e-03 0.0000000000000000e+00  2.3099797903009941e-04 1.4232806730260282e-03 0.0000000000000000e+00  2.2049153793928601e-04 1.4231799387247510e-03 0.0000000000000000e+00  2.3126757786414296e-04 1.4336350592352633e-03 0.0000000000000000e+00  2.2085309441422470e-04 1.4335348576641161e-03 0.0000000000000000e+00  2.3155014487966904e-04 1.4438949254191309e-03 0.0000000000000000e+00  2.2120842494949787e-04 1.4437919745789742e-03 0.0000000000000000e+00  2.2156727398434789e-04 1.4539710935761244e-03 0.0000000000000000e+00  1.7433931086111717e-04 1.1382944260329411e-03 0.0000000000000000e+00  1.7535037210683073e-04 1.1420363884773993e-03 0.0000000000000000e+00  1.7636264933233050e-04 1.1457554697433452e-03 0.0000000000000000e+00  1.7737459326034387e-04 1.1494526093689017e-03 0.0000000000000000e+00  1.7838332335424006e-04 1.1531278371686503e-03 0.0000000000000000e+00  1.7938356436321653e-04 1.1567786606246308e-03 0.0000000000000000e+00  1.8037122781596260e-04 1.1604072505404207e-03 0.0000000000000000e+00  1.8133871051424354e-04 1.1640309619774991e-03 0.0000000000000000e+00  1.8228435492718289e-04 1.1676686708026866e-03 0.0000000000000000e+00  1.8321400529827051e-04 1.1713709144970589e-03 0.0000000000000000e+00  1.8413380595324669e-04 1.1751980585156213e-03 0.0000000000000000e+00  1.8504292694710253e-04 1.1792010922584773e-03 0.0000000000000000e+00  1.8593936984810845e-04 1.1833976355982634e-03 0.0000000000000000e+00  1.8682347520785847e-04 1.1877835149427551e-03 0.0000000000000000e+00  1.8769905339579779e-04 1.1923434787037238e-03 0.0000000000000000e+00  1.8857282582252988e-04 1.1970624461458653e-03 0.0000000000000000e+00  1.8945254872524106e-04 1.2019338652365361e-03 0.0000000000000000e+00  1.9034540050048856e-04 1.2069624983129894e-03 0.0000000000000000e+00  1.9125708605276974e-04 1.2121643823289369e-03 0.0000000000000000e+00  1.9219135053037152e-04 1.2175658510340239e-03 0.0000000000000000e+00  1.9314957661500636e-04 1.2232022739746835e-03 0.0000000000000000e+00  1.9413029337012953e-04 1.2291165110958307e-03 0.0000000000000000e+00  1.9512860804998239e-04 1.2353568840789701e-03 0.0000000000000000e+00  1.9613634568750390e-04 1.2419733661240501e-03 0.0000000000000000e+00  1.9714225225983363e-04 1.2490148986915610e-03 0.0000000000000000e+00  1.9813756472349334e-04 1.2565181036961735e-03 0.0000000000000000e+00  1.9911184397563848e-04 1.2645266509275213e-03 0.0000000000000000e+00  2.0006287968651114e-04 1.2730566077675835e-03 0.0000000000000000e+00  2.0097615921785335e-04 1.2821530197533863e-03 0.0000000000000000e+00  2.0185300565975204e-04 1.2917869988460402e-03 0.0000000000000000e+00  2.0270402422952019e-04 1.3019312377690829e-03 0.0000000000000000e+00  2.0352189001417447e-04 1.3125686234492938e-03 0.0000000000000000e+00  2.0431455982500879e-04 1.3235742927646950e-03 0.0000000000000000e+00  2.0508988159789206e-04 1.3348365145007138e-03 0.0000000000000000e+00  2.0584859490699540e-04 1.3462374808675675e-03 0.0000000000000000e+00  2.0658254730461783e-04 1.3576674058545922e-03 0.0000000000000000e+00  2.0727646687392919e-04 1.3690182508672261e-03 0.0000000000000000e+00  2.0791992075872023e-04 1.3801996297124531e-03 0.0000000000000000e+00  2.0851451586430654e-04 1.3911730377704256e-03 0.0000000000000000e+00  2.0906139514279866e-04 1.4019587357675786e-03 0.0000000000000000e+00  2.0956322991573531e-04 1.4125795672805344e-03 0.0000000000000000e+00  2.1002495007863429e-04 1.4230599446957938e-03 0.0000000000000000e+00  2.1045383290006856e-04 1.4334205706881945e-03 0.0000000000000000e+00  2.1085860128884816e-04 1.4436808407281160e-03 0.0000000000000000e+00  2.1124835706237341e-04 1.4538601278802396e-03 0.0000000000000000e+00  2.1163226509244182e-04 1.4639779900955927e-03 0.0000000000000000e+00  1.7158082496410439e-04 1.1416979679830846e-03 0.0000000000000000e+00  1.7261518105176458e-04 1.1454170033575626e-03 0.0000000000000000e+00  1.7364863837824958e-04 1.1491163792673701e-03 0.0000000000000000e+00  1.7467947982690172e-04 1.1527985886701133e-03 0.0000000000000000e+00  1.7570177465307620e-04 1.1564633259090733e-03 0.0000000000000000e+00  1.7669467182011278e-04 1.1601018864357715e-03 0.0000000000000000e+00  1.7764946758732443e-04 1.1637461234669611e-03 0.0000000000000000e+00  1.7853799604367686e-04 1.1673897228187948e-03 0.0000000000000000e+00  1.7935665498153402e-04 1.1710807113608813e-03 0.0000000000000000e+00  1.8013542198131390e-04 1.1748967324776720e-03 0.0000000000000000e+00  1.8088325788181915e-04 1.1789060505501257e-03 0.0000000000000000e+00  1.8160332553611699e-04 1.1831208046903688e-03 0.0000000000000000e+00  1.8229896328727697e-04 1.1875291828756769e-03 0.0000000000000000e+00  1.8297630188486615e-04 1.1921082055951666e-03 0.0000000000000000e+00  1.8364393340324382e-04 1.1968379948554772e-03 0.0000000000000000e+00  1.8431001784979464e-04 1.2017114493179173e-03 0.0000000000000000e+00  1.8498039442712777e-04 1.2067347952988677e-03 0.0000000000000000e+00  1.8565820069570168e-04 1.2119258866388227e-03 0.0000000000000000e+00  1.8634408817920733e-04 1.2173126914689577e-03 0.0000000000000000e+00  1.8703637879017324e-04 1.2229321882383205e-03 0.0000000000000000e+00  1.8773082482607744e-04 1.2288293089962878e-03 0.0000000000000000e+00  1.8841966914458135e-04 1.2350554007291448e-03 0.0000000000000000e+00  1.8909189507986375e-04 1.2416630053159097e-03 0.0000000000000000e+00  1.8973274620476575e-04 1.2487045923885102e-03 0.0000000000000000e+00  1.9033504946276231e-04 1.2562063822440387e-03 0.0000000000000000e+00  1.9088693881362222e-04 1.2642211953757493e-03 0.0000000000000000e+00  1.9140319334489081e-04 1.2727428998898140e-03 0.0000000000000000e+00  1.9186506671147293e-04 1.2818633677985710e-03 0.0000000000000000e+00  1.9228915635697273e-04 1.2915019361858858e-03 0.0000000000000000e+00  1.9271983702534538e-04 1.3016343078631528e-03 0.0000000000000000e+00  1.9316337507352659e-04 1.3123025335402994e-03 0.0000000000000000e+00  1.9366123840492289e-04 1.3233199026039548e-03 0.0000000000000000e+00  1.9424259792128924e-04 1.3345903227214692e-03 0.0000000000000000e+00  1.9491317463596989e-04 1.3460013201240194e-03 0.0000000000000000e+00  1.9565277425479349e-04 1.3574529473464980e-03 0.0000000000000000e+00  1.9643217645409043e-04 1.3688429956329664e-03 0.0000000000000000e+00  1.9718965532514686e-04 1.3800529615167123e-03 0.0000000000000000e+00  1.9789264195694447e-04 1.3910283443650049e-03 0.0000000000000000e+00  1.9853496378840116e-04 1.4018184976268687e-03 0.0000000000000000e+00  1.9911637259917338e-04 1.4124466877774994e-03 0.0000000000000000e+00  1.9964033800071835e-04 1.4229376809827251e-03 0.0000000000000000e+00  2.0011385430981140e-04 1.4333087337405714e-03 0.0000000000000000e+00  2.0054598936269721e-04 1.4435772482372159e-03 0.0000000000000000e+00  2.0094613122414819e-04 1.4537617635370734e-03 0.0000000000000000e+00  2.0132399291007338e-04 1.4638805287200051e-03 0.0000000000000000e+00  2.0168874842030950e-04 1.4739550041455746e-03 0.0000000000000000e+00  1.6887035861069978e-04 1.1450697540083404e-03 0.0000000000000000e+00  1.6992790407101968e-04 1.1487692593492036e-03 0.0000000000000000e+00  1.7098714658323526e-04 1.1524519544693725e-03 0.0000000000000000e+00  1.7205692132004008e-04 1.1561241437931268e-03 0.0000000000000000e+00  1.7312546739053821e-04 1.1598010896233821e-03 0.0000000000000000e+00  1.7405564331823915e-04 1.1634437336909133e-03 0.0000000000000000e+00  1.7500983356964688e-04 1.1671725557535510e-03 0.0000000000000000e+00  1.7565325258526415e-04 1.1708517055809050e-03 0.0000000000000000e+00  1.7623348158041374e-04 1.1746462533416748e-03 0.0000000000000000e+00  1.7677429923572023e-04 1.1786642124293643e-03 0.0000000000000000e+00  1.7728823627174647e-04 1.1829062809123208e-03 0.0000000000000000e+00  1.7777769779065688e-04 1.1873496371770098e-03 0.0000000000000000e+00  1.7824710271399606e-04 1.1919584364764619e-03 0.0000000000000000e+00  1.7870482251415451e-04 1.1967050567415441e-03 0.0000000000000000e+00  1.7915819846612359e-04 1.2015825888239181e-03 0.0000000000000000e+00  1.7961094724825032e-04 1.2066001545049038e-03 0.0000000000000000e+00  1.8006328701653974e-04 1.2117784275847043e-03 0.0000000000000000e+00  1.8051272549725602e-04 1.2171475407443347e-03 0.0000000000000000e+00  1.8095450849017964e-04 1.2227463950187131e-03 0.0000000000000000e+00  1.8138141812182334e-04 1.2286226139944316e-03 0.0000000000000000e+00  1.8178216015049865e-04 1.2348328174927410e-03 0.0000000000000000e+00  1.8214087315729092e-04 1.2414337806731220e-03 0.0000000000000000e+00  1.8243425834339755e-04 1.2484861206336296e-03 0.0000000000000000e+00  1.8266009443394907e-04 1.2559939260954210e-03 0.0000000000000000e+00  1.8278763210961629e-04 1.2640357033843405e-03 0.0000000000000000e+00  1.8285343876383694e-04 1.2725338120613918e-03 0.0000000000000000e+00  1.8282962542725219e-04 1.2817177241417259e-03 0.0000000000000000e+00  1.8274920484513514e-04 1.2913713114124262e-03 0.0000000000000000e+00  1.8267032610149445e-04 1.3014552291829272e-03 0.0000000000000000e+00  1.8263822556661643e-04 1.3121615566664923e-03 0.0000000000000000e+00  1.8278255461414992e-04 1.3231496957938867e-03 0.0000000000000000e+00  1.8315054906251736e-04 1.3343801794598971e-03 0.0000000000000000e+00  1.8376473752930163e-04 1.3457567635016222e-03 0.0000000000000000e+00  1.8457621054524418e-04 1.3572017032808450e-03 0.0000000000000000e+00  1.8552222291387809e-04 1.3685959005725146e-03 0.0000000000000000e+00  1.8659142795639252e-04 1.3798987579311107e-03 0.0000000000000000e+00  1.8744127539589266e-04 1.3908790037326642e-03 0.0000000000000000e+00  1.8817732011532486e-04 1.4016809376388290e-03 0.0000000000000000e+00  1.8881991410879667e-04 1.4123208985639621e-03 0.0000000000000000e+00  1.8938260775330985e-04 1.4228285987264906e-03 0.0000000000000000e+00  1.8987648234550152e-04 1.4332153690099173e-03 0.0000000000000000e+00  1.9031312690946962e-04 1.4434965241924027e-03 0.0000000000000000e+00  1.9070309603353122e-04 1.4536902087910791e-03 0.0000000000000000e+00  1.9105746796834871e-04 1.4638122245439987e-03 0.0000000000000000e+00  1.9138635571665550e-04 1.4738838644547819e-03 0.0000000000000000e+00  1.9169814399135917e-04 1.4839303388519624e-03 0.0000000000000000e+00  1.6625106426316116e-04 1.1480372072523257e-03 0.0000000000000000e+00  1.6730780326116890e-04 1.1518240533799774e-03 0.0000000000000000e+00  1.6835367470267447e-04 1.1557659118472557e-03 0.0000000000000000e+00  1.6941628437021781e-04 1.1594453551176912e-03 0.0000000000000000e+00  1.7064464298285171e-04 1.1631502514818613e-03 0.0000000000000000e+00  1.7154043623637238e-04 1.1669133058546744e-03 0.0000000000000000e+00  1.7220104779740075e-04 1.1707427155336666e-03 0.0000000000000000e+00  1.7248141977610387e-04 1.1744899323320964e-03 0.0000000000000000e+00  1.7271298996126753e-04 1.1784992424490723e-03 0.0000000000000000e+00  1.7297699806548717e-04 1.1827666328622852e-03 0.0000000000000000e+00  1.7324477803673025e-04 1.1872530847946868e-03 0.0000000000000000e+00  1.7350477656886002e-04 1.1918993955108766e-03 0.0000000000000000e+00  1.7375986091139263e-04 1.1966648013649989e-03 0.0000000000000000e+00  1.7401377427679450e-04 1.2015445246916767e-03 0.0000000000000000e+00  1.7426621024236219e-04 1.2065525295158865e-03 0.0000000000000000e+00  1.7451341576503278e-04 1.2117131443258313e-03 0.0000000000000000e+00  1.7474936299612372e-04 1.2170588914892247e-03 0.0000000000000000e+00  1.7496601715960325e-04 1.2226307477141184e-03 0.0000000000000000e+00  1.7515240226366341e-04 1.2284794705129545e-03 0.0000000000000000e+00  1.7529176292433560e-04 1.2346697244060613e-03 0.0000000000000000e+00  1.7536406507028316e-04 1.2412671586728300e-03 0.0000000000000000e+00  1.7532556196004769e-04 1.2483503407293688e-03 0.0000000000000000e+00  1.7518941387419698e-04 1.2558627748285823e-03 0.0000000000000000e+00  1.7490831323570887e-04 1.2639927434133617e-03 0.0000000000000000e+00  1.7450973592482690e-04 1.2724314591592652e-03 0.0000000000000000e+00  1.7392113366506226e-04 1.2817050694380397e-03 0.0000000000000000e+00  1.7345255343247483e-04 1.2913401615199549e-03 0.0000000000000000e+00  1.7300612252798140e-04 1.3013773914044016e-03 0.0000000000000000e+00  1.7205592352462261e-04 1.3121516829540485e-03 0.0000000000000000e+00  1.7179684414017087e-04 1.3230830236715550e-03 0.0000000000000000e+00  1.7182164585090870e-04 1.3342577085412538e-03 0.0000000000000000e+00  1.7228858722375897e-04 1.3455523857027441e-03 0.0000000000000000e+00  1.7303102806035184e-04 1.3569315860248619e-03 0.0000000000000000e+00  1.7454530276931975e-04 1.3682737375621469e-03 0.0000000000000000e+00  1.7616560063978047e-04 1.3796226166172055e-03 0.0000000000000000e+00  1.7729420651549008e-04 1.3907254299829787e-03 0.0000000000000000e+00  1.7807723941635554e-04 1.4015638474694377e-03 0.0000000000000000e+00  1.7872970481253955e-04 1.4122183049381993e-03 0.0000000000000000e+00  1.7929648283668170e-04 1.4227506510542029e-03 0.0000000000000000e+00  1.7978171347216606e-04 1.4331581123839272e-03 0.0000000000000000e+00  1.8019769087434422e-04 1.4434547543101333e-03 0.0000000000000000e+00  1.8055591516591410e-04 1.4536601263185679e-03 0.0000000000000000e+00  1.8086965690316644e-04 1.4637852358550601e-03 0.0000000000000000e+00  1.8115005761889751e-04 1.4738523255877639e-03 0.0000000000000000e+00  1.8140522622563175e-04 1.4838875011011466e-03 0.0000000000000000e+00  1.8164154771547954e-04 1.4939192445612840e-03 0.0000000000000000e+00  1.6360796477076392e-04 1.1510715103436825e-03 0.0000000000000000e+00  1.6451675331093400e-04 1.1549780033748886e-03 0.0000000000000000e+00  1.6543219022551877e-04 1.1587857290367436e-03 0.0000000000000000e+00  1.6630170977902144e-04 1.1625888714617771e-03 0.0000000000000000e+00  1.6709195546930474e-04 1.1665026625070241e-03 0.0000000000000000e+00  1.6780998940521514e-04 1.1704547497986123e-03 0.0000000000000000e+00  1.6855613440411202e-04 1.1744688785967777e-03 0.0000000000000000e+00  1.6855679930289732e-04 1.1784307399192507e-03 0.0000000000000000e+