<?xml version="1.0"?>
<VTKFile type="UnstructuredGrid"  version="0.1"  >
<UnstructuredGrid>
<Piece  NumberOfPoints="621" NumberOfCells="1125">
<Points>
<DataArray  type="Float64"  NumberOfComponents="3"  format="ascii">1.883478260869565 0 0  1.9 0 0  1.9 0.01666666666666667 0  1.883478260869565 0.01666666666666667 0  1.916521739130435 0 0  1.916521739130435 0.01666666666666667 0  1.933043478260869 0 0  1.933043478260869 0.01666666666666667 0  1.949565217391304 0 0  1.949565217391304 0.01666666666666667 0  1.966086956521739 0 0  1.966086956521739 0.01666666666666667 0  1.982608695652174 0 0  1.982608695652174 0.01666666666666667 0  1.999130434782608 0 0  1.999130434782608 0.01666666666666667 0  2.015652173913043 0 0  2.015652173913043 0.01666666666666667 0  2.032173913043478 0 0  2.032173913043478 0.01666666666666667 0  2.048695652173913 0 0  2.048695652173913 0.01666666666666667 0  2.065217391304348 0 0  2.065217391304348 0.01666666666666667 0  2.081739130434782 0 0  2.081739130434782 0.01666666666666667 0  2.098260869565217 0 0  2.098260869565217 0.01666666666666667 0  2.114782608695652 0 0  2.114782608695652 0.01666666666666667 0  2.131304347826087 0 0  2.131304347826087 0.01666666666666667 0  2.147826086956522 0 0  2.147826086956522 0.01666666666666667 0  2.164347826086956 0 0  2.164347826086956 0.01666666666666667 0  2.180869565217391 0 0  2.180869565217391 0.01666666666666667 0  2.197391304347826 0 0  2.197391304347826 0.01666666666666667 0  2.213913043478261 0 0  2.213913043478261 0.01666666666666667 0  2.230434782608695 0 0  2.230434782608695 0.01666666666666667 0  2.24695652173913 0 0  2.24695652173913 0.01666666666666667 0  2.263478260869565 0 0  2.263478260869565 0.01666666666666667 0  2.28 0 0  2.28 0.01666666666666667 0  2.296521739130434 0 0  2.296521739130434 0.01666666666666667 0  2.31304347826087 0 0  2.31304347826087 0.01666666666666667 0  2.329565217391304 0 0  2.329565217391304 0.01666666666666667 0  2.346086956521739 0 0  2.346086956521739 0.01666666666666667 0  2.362608695652174 0 0  2.362608695652174 0.01666666666666667 0  2.379130434782609 0 0  2.379130434782609 0.01666666666666667 0  2.395652173913044 0 0  2.395652173913044 0.01666666666666667 0  2.412173913043478 0 0  2.412173913043478 0.01666666666666667 0  2.428695652173913 0 0  2.428695652173913 0.01666666666666667 0  2.445217391304348 0 0  2.445217391304348 0.01666666666666667 0  2.461739130434782 0 0  2.461739130434782 0.01666666666666667 0  2.478260869565217 0 0  2.478260869565217 0.01666666666666667 0  2.494782608695652 0 0  2.494782608695652 0.01666666666666667 0  2.511304347826087 0 0  2.511304347826087 0.01666666666666667 0  2.527826086956522 0 0  2.527826086956522 0.01666666666666667 0  2.544347826086956 0 0  2.544347826086956 0.01666666666666667 0  2.560869565217391 0 0  2.560869565217391 0.01666666666666667 0  2.577391304347826 0 0  2.577391304347826 0.01666666666666667 0  1.916521739130435 0.03333333333333333 0  1.933043478260869 0.03333333333333333 0  1.949565217391304 0.03333333333333333 0  1.966086956521739 0.03333333333333333 0  1.982608695652174 0.03333333333333333 0  1.999130434782608 0.03333333333333333 0  2.015652173913043 0.03333333333333333 0  2.032173913043478 0.03333333333333333 0  2.048695652173913 0.03333333333333333 0  2.065217391304348 0.03333333333333333 0  2.081739130434782 0.03333333333333333 0  2.098260869565217 0.03333333333333333 0  2.114782608695652 0.03333333333333333 0  2.131304347826087 0.03333333333333333 0  2.147826086956522 0.03333333333333333 0  2.164347826086956 0.03333333333333333 0  2.180869565217391 0.03333333333333333 0  2.197391304347826 0.03333333333333333 0  2.213913043478261 0.03333333333333333 0  2.230434782608695 0.03333333333333333 0  2.24695652173913 0.03333333333333333 0  2.263478260869565 0.03333333333333333 0  2.28 0.03333333333333333 0  2.296521739130434 0.03333333333333333 0  2.31304347826087 0.03333333333333333 0  2.329565217391304 0.03333333333333333 0  2.346086956521739 0.03333333333333333 0  2.362608695652174 0.03333333333333333 0  2.379130434782609 0.03333333333333333 0  2.395652173913044 0.03333333333333333 0  2.412173913043478 0.03333333333333333 0  2.428695652173913 0.03333333333333333 0  2.445217391304348 0.03333333333333333 0  2.461739130434782 0.03333333333333333 0  2.478260869565217 0.03333333333333333 0  2.494782608695652 0.03333333333333333 0  2.511304347826087 0.03333333333333333 0  2.527826086956522 0.03333333333333333 0  2.544347826086956 0.03333333333333333 0  2.560869565217391 0.03333333333333333 0  2.577391304347826 0.03333333333333333 0  2.593913043478261 0.03333333333333333 0  1.933043478260869 0.05 0  1.949565217391304 0.05 0  1.966086956521739 0.05 0  1.982608695652174 0.05 0  1.999130434782608 0.05 0  2.015652173913043 0.05 0  2.032173913043478 0.05 0  2.048695652173913 0.05 0  2.065217391304348 0.05 0  2.081739130434782 0.05 0  2.098260869565217 0.05 0  2.114782608695652 0.05 0  2.131304347826087 0.05 0  2.147826086956522 0.05 0  2.164347826086956 0.05 0  2.180869565217391 0.05 0  2.197391304347826 0.05 0  2.213913043478261 0.05 0  2.230434782608695 0.05 0  2.24695652173913 0.05 0  2.263478260869565 0.05 0  2.28 0.05 0  2.296521739130434 0.05 0  2.31304347826087 0.05 0  2.329565217391304 0.05 0  2.346086956521739 0.05 0  2.362608695652174 0.05 0  2.379130434782609 0.05 0  2.395652173913044 0.05 0  2.412173913043478 0.05 0  2.428695652173913 0.05 0  2.445217391304348 0.05 0  2.461739130434782 0.05 0  2.478260869565217 0.05 0  2.494782608695652 0.05 0  2.511304347826087 0.05 0  2.527826086956522 0.05 0  2.544347826086956 0.05 0  2.560869565217391 0.05 0  2.577391304347826 0.05 0  2.593913043478261 0.05 0  2.610434782608696 0.05 0  1.949565217391304 0.06666666666666667 0  1.966086956521739 0.06666666666666667 0  1.982608695652174 0.06666666666666667 0  1.999130434782608 0.06666666666666667 0  2.015652173913043 0.06666666666666667 0  2.032173913043478 0.06666666666666667 0  2.048695652173913 0.06666666666666667 0  2.065217391304348 0.06666666666666667 0  2.081739130434782 0.06666666666666667 0  2.098260869565217 0.06666666666666667 0  2.114782608695652 0.06666666666666667 0  2.131304347826087 0.06666666666666667 0  2.147826086956522 0.06666666666666667 0  2.164347826086956 0.06666666666666667 0  2.180869565217391 0.06666666666666667 0  2.197391304347826 0.06666666666666667 0  2.213913043478261 0.06666666666666667 0  2.230434782608695 0.06666666666666667 0  2.24695652173913 0.06666666666666667 0  2.263478260869565 0.06666666666666667 0  2.28 0.06666666666666667 0  2.296521739130434 0.06666666666666667 0  2.31304347826087 0.06666666666666667 0  2.329565217391304 0.06666666666666667 0  2.346086956521739 0.06666666666666667 0  2.362608695652174 0.06666666666666667 0  2.379130434782609 0.06666666666666667 0  2.395652173913044 0.06666666666666667 0  2.412173913043478 0.06666666666666667 0  2.428695652173913 0.06666666666666667 0  2.445217391304348 0.06666666666666667 0  2.461739130434782 0.06666666666666667 0  2.478260869565217 0.06666666666666667 0  2.494782608695652 0.06666666666666667 0  2.511304347826087 0.06666666666666667 0  2.527826086956522 0.06666666666666667 0  2.544347826086956 0.06666666666666667 0  2.560869565217391 0.06666666666666667 0  2.577391304347826 0.06666666666666667 0  2.593913043478261 0.06666666666666667 0  2.610434782608696 0.06666666666666667 0  2.62695652173913 0.06666666666666667 0  1.966086956521739 0.08333333333333333 0  1.982608695652174 0.08333333333333333 0  1.999130434782608 0.08333333333333333 0  2.015652173913043 0.08333333333333333 0  2.032173913043478 0.08333333333333333 0  2.048695652173913 0.08333333333333333 0  2.065217391304348 0.08333333333333333 0  2.081739130434782 0.08333333333333333 0  2.098260869565217 0.08333333333333333 0  2.114782608695652 0.08333333333333333 0  2.131304347826087 0.08333333333333333 0  2.147826086956522 0.08333333333333333 0  2.164347826086956 0.08333333333333333 0  2.180869565217391 0.08333333333333333 0  2.197391304347826 0.08333333333333333 0  2.213913043478261 0.08333333333333333 0  2.230434782608695 0.08333333333333333 0  2.24695652173913 0.08333333333333333 0  2.263478260869565 0.08333333333333333 0  2.28 0.08333333333333333 0  2.296521739130434 0.08333333333333333 0  2.31304347826087 0.08333333333333333 0  2.329565217391304 0.08333333333333333 0  2.346086956521739 0.08333333333333333 0  2.362608695652174 0.08333333333333333 0  2.379130434782609 0.08333333333333333 0  2.395652173913044 0.08333333333333333 0  2.412173913043478 0.08333333333333333 0  2.428695652173913 0.08333333333333333 0  2.445217391304348 0.08333333333333333 0  2.461739130434782 0.08333333333333333 0  2.478260869565217 0.08333333333333333 0  2.494782608695652 0.08333333333333333 0  2.511304347826087 0.08333333333333333 0  2.527826086956522 0.08333333333333333 0  2.544347826086956 0.08333333333333333 0  2.560869565217391 0.08333333333333333 0  2.577391304347826 0.08333333333333333 0  2.593913043478261 0.08333333333333333 0  2.610434782608696 0.08333333333333333 0  2.62695652173913 0.08333333333333333 0  2.643478260869565 0.08333333333333333 0  1.982608695652174 0.1 0  1.999130434782608 0.1 0  2.015652173913043 0.1 0  2.032173913043478 0.1 0  2.048695652173913 0.1 0  2.065217391304348 0.1 0  2.081739130434782 0.1 0  2.098260869565217 0.1 0  2.114782608695652 0.1 0  2.131304347826087 0.1 0  2.147826086956522 0.1 0  2.164347826086956 0.1 0  2.180869565217391 0.1 0  2.197391304347826 0.1 0  2.213913043478261 0.1 0  2.230434782608695 0.1 0  2.24695652173913 0.1 0  2.263478260869565 0.1 0  2.28 0.1 0  2.296521739130434 0.1 0  2.31304347826087 0.1 0  2.329565217391304 0.1 0  2.346086956521739 0.1 0  2.362608695652174 0.1 0  2.379130434782609 0.1 0  2.395652173913044 0.1 0  2.412173913043478 0.1 0  2.428695652173913 0.1 0  2.445217391304348 0.1 0  2.461739130434782 0.1 0  2.478260869565217 0.1 0  2.494782608695652 0.1 0  2.511304347826087 0.1 0  2.527826086956522 0.1 0  2.544347826086956 0.1 0  2.560869565217391 0.1 0  2.5773
[...]
<CellData  Scalars="rho_bar"> 
<DataArray  type="Float64"  Name="rho_bar"  format="ascii">5.9613055262872994e-01   5.8724133456426841e-01   5.8878204636323672e-01   5.7701093371024648e-01   5.8670689724582947e-01   5.7271732584956370e-01   5.8801512259624633e-01   5.7265426914878359e-01   5.9077111940009430e-01   5.7481076174321954e-01   5.9345977534505578e-01   5.7744626481988159e-01   5.9525733296830186e-01   5.7942591969648150e-01   5.9601716380827841e-01   5.8036106156922729e-01   5.9600302538791672e-01   5.8041237210622654e-01   5.9560340549692981e-01   5.7996388654760533e-01   5.9516773495957476e-01   5.7939606106452057e-01   5.9495625615131487e-01   5.7900305559588372e-01   5.9510760572674448e-01   5.7897206412764746e-01   5.9556931107377487e-01   5.7932453139729734e-01   5.9608828137424863e-01   5.7986166699424446e-01   5.9639032609637821e-01   5.8027077091784918e-01   5.9637347477515001e-01   5.8036569294947393e-01   5.9608617617395210e-01   5.8016071143043402e-01   5.9562895641341951e-01   5.7975833570134372e-01   5.9511597685693329e-01   5.7927488396159810e-01   5.9466237238340436e-01   5.7883038884374294e-01   5.9441463438472730e-01   5.7855534175588774e-01   5.9456239936006272e-01   5.7863085629074629e-01   5.9518803677521992e-01   5.7920575726181123e-01   5.9614133927059376e-01   5.8022629525853908e-01   5.9707706687203721e-01   5.8139931082749940e-01   5.9773203195335489e-01   5.8238536310682298e-01   5.9816669145000012e-01   5.8310642976925930e-01   5.9872873128776594e-01   5.8383069627133555e-01   5.9971986000654953e-01   5.8492671314367783e-01   6.0112484717542913e-01   5.8650459672354016e-01   6.0263561005359345e-01   5.8832118634743191e-01   6.0388765191034177e-01   5.8997122668412283e-01   6.0463147299684161e-01   5.9113164706726173e-01   6.0468679053026364e-01   5.9160362937091227e-01   6.0392559294278747e-01   5.9122733083542423e-01   6.0238985147751978e-01   5.8996438904039061e-01   6.0016262016720512e-01   5.8790837403539487e-01   5.9724249461895595e-01   5.8509756777478916e-01   5.9351743542255053e-01   5.8146578629195911e-01   5.8877196764688322e-01   5.7683963799551030e-01   5.8277954035531598e-01   5.7099256400094456e-01   5.2265496415189527e-01   5.1764482046151894e-01   4.7932410253129859e-01   5.1667023069827145e-01   4.7564859054560182e-01   5.1777005678615251e-01   4.7499158220364435e-01   5.1923570239647554e-01   4.7551463981375219e-01   5.2002355815225099e-01   4.7583662042898900e-01   5.1989571505600773e-01   4.7538066555146447e-01   5.1911442647208328e-01   4.7425255910408098e-01   5.1808410280642414e-01   4.7283528685788678e-01   5.1714736565822794e-01   4.7149635537878032e-01   5.1655841599076646e-01   4.7050431627504397e-01   5.1646678370236754e-01   4.7003977712541878e-01   5.1682993678885236e-01   4.7013966857611883e-01   5.1734198043739710e-01   4.7058289132298414e-01   5.1764564120973822e-01   4.7096805119137347e-01   5.1763083587168357e-01   4.7105429477797889e-01   5.1739100311122677e-01   4.7089478130188533e-01   5.1705222165234022e-01   4.7063946352001551e-01   5.1674380258906694e-01   4.7042392093252322e-01   5.1659883773248094e-01   4.7038692139841470e-01   5.1676172057209913e-01   4.7066895662258396e-01   5.1743030424189229e-01   4.7144537807223091e-01   5.1872487225791375e-01   4.7289328567225081e-01   5.2053203205482279e-01   4.7500799062396193e-01   5.2251509766370552e-01   4.7753920718177623e-01   5.2436932911635425e-01   4.8013544868348962e-01   5.2611802015486553e-01   4.8266986409084017e-01   5.2809165483895182e-01   4.8536481213895766e-01   5.3058828016137316e-01   4.8855848693685344e-01   5.3355598094660617e-01   4.9232057481064428e-01   5.3659374844335705e-01   4.9631814805427465e-01   5.3920449769563494e-01   4.9999566654679212e-01   5.4104257385576426e-01   5.0287559702459261e-01   5.4190753337230113e-01   5.0468523256604914e-01   5.4163212420086126e-01   5.0523558453877793e-01   5.4019679711681556e-01   5.0440944130583043e-01   5.3767167418134887e-01   5.0224462241591283e-01   5.3406833155297595e-01   4.9877465568301854e-01   5.2932446291359059e-01   4.9397682480460703e-01   5.2328953987718485e-01   4.8776847117040295e-01   5.1580984995202395e-01   4.8003293022367527e-01   4.7075650443358369e-01   3.8680180259945252e-01   3.8076249767861603e-01   3.3216552726374138e-01   3.7763441129094194e-01   3.2651921032449682e-01   3.7578259826214488e-01   3.2292290405805535e-01   3.7400641738039347e-01   3.2005678002959648e-01   3.7186399636978312e-01   3.1719084498314054e-01   3.6948671064835864e-01   3.1424035285532126e-01   3.6719709450087601e-01   3.1142865440519907e-01   3.6526354625870533e-01   3.0900112269608782e-01   3.6386707334134144e-01   3.0711742745455212e-01   3.6312074536949013e-01   3.0587958950715177e-01   3.6299944782198051e-01   3.0530944141262589e-01   3.6323169452378168e-01   3.0525468398361666e-01   3.6342274224769044e-01   3.0537167142423016e-01   3.6341913401214937e-01   3.0539901596176983e-01   3.6334172179101121e-01   3.0537486244409018e-01   3.6335173501864509e-01   3.0546632336908947e-01   3.6358295002358731e-01   3.0580849167391183e-01   3.6418007571950040e-01   3.0653398659946735e-01   3.6528854384772014e-01   3.0778562136506277e-01   3.6708083372243377e-01   3.0971005707445953e-01   3.6969447517469228e-01   3.1246217388054998e-01   3.7309558557558309e-01   3.1609490653844813e-01   3.7705810097650028e-01   3.2049241818630725e-01   3.8131930262166636e-01   3.2543339585928427e-01   3.8583038297038791e-01   3.3078097057576811e-01   3.9079330536013657e-01   3.3661663538185299e-01   3.9638956324429853e-01   3.4309829016277743e-01   4.0249393975938680e-01   3.5018187854412725e-01   4.0862222949522609e-01   3.5748000389877005e-01   4.1412758429943747e-01   3.6435679481006400e-01   4.1846828058917113e-01   3.7016316431306517e-01   4.2132616877988915e-01   3.7444368446388387e-01   4.2248249064596305e-01   3.7692152567257203e-01   4.2180519957307244e-01   3.7738512811222591e-01   4.1926415544085360e-01   3.7573305134537555e-01   4.1485365533884949e-01   3.7193052044272773e-01   4.0859493235015909e-01   3.6599576133246858e-01   4.0051336506600266e-01   3.5801807915729639e-01   3.9067491390469516e-01   3.4813528233751356e-01   3.7931623043590823e-01   3.3662070035101643e-01   3.2397159246116225e-01   2.4207644823044475e-01   2.3458486283991692e-01   1.9951817840285829e-01   2.2906772987563676e-01   1.9262982403719625e-01   2.2454169882377153e-01   1.8720570011522758e-01   2.2048438798882639e-01   1.8258924371141014e-01   2.1679574090846790e-01   1.7852375169991391e-01   2.1356636080998223e-01   1.7498985312633203e-01   2.1089792651942210e-01   1.7203589809995509e-01   2.0884807224663898e-01   1.6969040456437134e-01   2.0744130737789235e-01   1.6795887667841297e-01   2.0664252885163381e-01   1.6681935098675957e-01   2.0630106942925078e-01   1.6618620277789045e-01   2.0618033090612470e-01   1.6589316795426506e-01   2.0614893635554463e-01   1.6578539542329354e-01   2.0626905864745870e-01   1.6585937075572477e-01   2.0666904599130836e-01   1.6621680508505340e-01   2.0746148994608246e-01   1.6696066428201797e-01   2.0876518495252444e-01   1.6819187926833523e-01   2.1070912865559557e-01   1.7002809746001121e-01   2.1342699225083073e-01   1.7259037373046274e-01   2.1703652682621283e-01   1.7600027138564064e-01   2.2158014381394461e-01   1.8034422635289596e-01   2.2700473095767035e-01   1.8563829247557773e-01   2.3321153999108787e-01   1.9184202949889773e-01   2.4015223229001195e-01   1.9890829344990207e-01   2.4785807012475458e-01   2.0683042068314356e-01   2.5631207186196808e-01   2.1558710057170785e-01   2.6528969309859518e-01   2.2500720325940757e-01   2.7430608963816133e-01   2.3469028237469750e-01   2.8269774238608741e-01   2.4402881132384277e-01   2.8979551727852643e-01   2.5232803005813825e-01   2.9508457677408212e-01   2.5896460227636775e-01   2.9821392504899213e-01   2.6348255785027974e-01   2.9893199055311531e-01   2.6554851337393498e-01   2.9707501771609857e-01   2.6492847670848524e-01   2.9258063530020412e-01   2.6150172887300976e-01   2.8554050426419286e-01   2.5530768539079701e-01   2.7619672351812508e-01   2.4658993473467011e-01   2.6492455330531200e-01   2.3575970261144386e-01   2.5227210011335310e-01   2.2339128466224634e-01   2.3896639747889939e-01   2.1022228974444018e-01   1.9707593318854841e-01   1.4149087503506086e-01   1.3419856564990559e-01   1.1667400500035664e-01   1.2839150587325382e-01   1.1023236603001993e-01   1.2358286747991006e-01   1.0501616333602593e-01   1.1953219089864187e-01   1.0069467633887713e-01   1.1614322771764111e-01   9.7102501898995996e-02   1.1337350412904791e-01   9.4155001774507821e-02   1.1119055214795619e-01   9.1796708061376645e-02   1.0955981265018691e-01   8.9981010400350891e-02   1.0843237954898179e-01   8.8661069445243115e-02   1.0773004389302480e-01   8.7777561173141172e-02   1.0735595467675152e-01   8.7256917534381917e-02   1.0725126179706553e-01   8.7037157614151109e-02   1.0743454672924718e-01   8.7110916321938694e-02   1.0797237270971941e-01   8.7524107244983801e-02   1.0894367319489237e-01   8.8343238052229406e-02   1.1043878692742841e-01   8.9646534426126079e-02   1.1256171548375724e-01   9.1528121860441528e-02   1.1542475438871552e-01   9.4094020598525840e-02   1.1913914231709036e-01   9.7457166622867811e-02   1.2379742340241484e-01   1.0172782254016188e-01   1.2946199607021214e-01   1.0699995642538257e-01   1.3616766515541270e-01   1.1334527818567419e-01   1.4392895614645768e-01   1.2080819386564519e-01   1.5272757265735212e-01   1.2939388989312645e-01   1.6245081093787841e-01   1.3902724613708911e-01   1.7281984964830216e-01   1.4948609767959523e-01   1.8336138938725863e-01   1.6036058488212174e-01   1.9343718473885410e-01   1.7105984418682507e-01   2.0234002372154791e-01   1.8087564335520590e-01   2.0941955061046871e-01   1.8909629857240998e-01   2.1415849864612233e-01   1.9511266634602237e-01   2.1616964399777330e-01   1.9845262336393191e-01   2.1518347923595674e-01   1.9877194466768799e-01   2.1109161199543647e-01   1.9588206583868489e-01   2.0402517678010018e-01   1.8982553665815588e-01   1.9437568837087688e-01   1.8093554524685834e-01   1.8275370717323436e-01   1.6980622377785337e-01   1.6993633036508121e-01   1.5722382142001087e-01   1.5679183525877927e-01   1.4408001842580670e-01   1.4415748047295149e-01   1.3125368038734017e-01   1.1946209345409362e-01   8.6642393805376708e-02   8.0339793758235079e-02   7.3140137068729585e-02   7.5287395065843407e-02   6.7582144871392677e-02   7.1175813224023859e-02   6.3108131333003969e-02   6.7819585861543574e-02   5.9477238168514003e-02   6.5103352555042779e-02   5.6538125352008937e-02   6.2948207938917658e-02   5.4190131550507468e-02   6.1292879119806118e-02   5.2359909023012519e-02   6.0082291783294113e-02   5.0987836546523786e-02   5.9262164028229598e-02   5.0020492216805837e-02   5.8784147596538085e-02   4.9410926581744938e-02   5.8622258507366631e-02   4.9127611267973804e-02   5.8784950309797732e-02   4.9166965213283877e-02   5.9310393272415093e-02   4.9555297395311539e-02   6.0257276116864635e-02   5.0341805417661520e-02   6.1702220577050333e-02   5.1595023816064074e-02   6.3739016820346897e-02   5.3402663577492598e-02   6.6476038969448939e-02   5.5870008525760274e-02   7.0033651668419628e-02   5.9118407848186685e-02   7.4540232316600050e-02   6.3284035830134519e-02   8.0124396634906864e-02   6.8512756555641263e-02   8.6900995230811739e-02   7.4947191660288626e-02   9.4946751906537022e-02   8.2701372772250981e-02   1.0426377450313107e-01   9.1822272106146671e-02   1.1472718526015421e-01   1.0223920071818314e-01   1.2603556456700124e-01   1.1370823032096485e-01   1.3769373182926065e-01   1.2578191641407280e-01   1.4903347990843421e-01   1.3781916175389999e-01   1.5929117326165129e-01   1.4904369150446078e-01   1.6772277338894281e-01   1.5865562460896965e-01   1.7369373000527019e-01   1.6594245154866941e-01   1.7670756124456904e-01   1.7033317621459715e-01   1.7640824090745158e-01   1.7140155292889017e-01   1.7263254832909386e-01   1.6889095469830778e-01   1.6550834664887487e-01   1.6280616843973825e-01   1.5550105428810632e-01   1.5350143143021908e-01   1.4337286481544537e-01   1.4167733682343847e-01   1.3007172133727571e-01   1.2828522493829919e-01   1.1659165404712143e-01   1.1437603884931334e-01   1.0382835491935347e-01   1.0094130029796852e-01   9.2421978551872105e-02   8.8752872456880447e-02   7.8238717815305628e-02   5.8749172468231692e-02   5.3214215966122379e-02   5.1093294146082310e-02   4.8796044740598885e-02   4.6108333701206289e-02   4.5245879955547214e-02   4.2126038970295925e-02   4.2400857538819843e-02   3.8940206408519897e-02   4.0150144849721417e-02   3.6412368858356789e-02   3.8412004464462704e-02   3.4443941851805729e-02   3.7120851570173981e-02   3.2958632534241007e-02   3.6222935814612597e-02   3.1894928830047214e-02   3.5678459899680874e-02   3.1205904208508734e-02   3.5467651341564911e-02   3.0863257127337142e-02   3.5595552620837322e-02   3.0862308296089842e-02   3.6092315891338107e-02   3.1224026102408681e-02   3.7011507147339973e-02   3.1994321018522280e-02   3.8429460962792379e-02   3.3243598359940257e-02   4.0445052760853646e-02   3.5067098400846403e-02   4.3178519758326553e-02   3.7584550944566218e-02   4.6772384222037937e-02   4.0940637121941979e-02   5.1394285850173103e-02   4.5308929687466047e-02   5.7230859908312490e-02   5.0891281392939441e-02   6.4465692685042070e-02   5.7900416133833059e-02   7.3236940828385624e-02   6.6519726515063035e-02   8.3578834719085032e-02   7.6840829705292435e-02   9.5354865941314024e-02   8.8788835888245404e-02   1.0820555491626617e-01   1.0205512390017218e-01   1.2154253703483391e-01   1.1607493521606790e-01   1.3458763192682971e-01   1.3006582661824473e-01   1.4646650471810019e-01   1.4311619415745691e-01   1.5634422637919981e-01   1.5432481499635192e-01   1.6352206459442223e-01   1.6292642122983592e-01   1.6745982155967720e-01   1.6833332543602419e-01   1.6775830232507805e-01   1.7010863968160347e-01   1.6418408739564302e-01   1.6794676992066432e-01   1.5678360003070324e-01   1.6174906574114617e-01   1.4599195639681484e-01   1.5176742785144867e-01   1.3264269473028986e-01   1.3868670628935745e-01   1.1784683663484802e-01   1.2357132292804933e-01   1.0279674167025769e-01   1.0768096635674376e-01   8.8575152095471163e-02   9.2249636593200984e-02   7.5960147698180852e-02   7.8268573207248934e-02   6.5308238669578231e-02   6.6303497711643677e-02   5.6480923556748282e-02   2.7474781136377205e-02   2.6003456789832197e-02   2.4302149623656365e-02   2.4971263846238313e-02   2.3055205187340111e-02   2.4329653336448140e-02   2.2235160203889461e-02   2.4053702361865284e-02   2.1804332044492194e-02   2.4144853378936945e-02   2.1752689090942752e-02   2.4632339398144080e-02   2.2099671366956498e-02   2.5573860637778247e-02   2.2895329122500259e-02   2.7056504070511959e-02   2.4221526640394116e-02   2.9197896149162066e-02   2.6193604329901012e-02   3.2146161371315755e-02   2.8961437922076262e-02   3.6082952640841756e-02   3.2711362397555052e-02   4.1231374041185022e-02   3.7673683870376139e-02   4.7851435132955304e-02   4.4125752465943316e-02   5.6208123883920824e-02   5.2367866370200980e-02   6.6503885031451715e-02   6.2659186047454962e-02   7.8783197765679408e-02   7.5113094982706796e-02   9.2834784491919037e-02   8.9579019418832756e-02   1.0813248867259011e-01   1.0555794439232638e-01   1.2387067315168891e-01   1.2221765605225483e-01   1.3907657509687066e-01   1.3852610641186408e-01   1.5275152056987368e-01   1.5342338247271392e-01   1.6403047349816291e-01   1.6598843472701572e-01   1.7227376747474960e-01   1.7555770941868315e-01   1.7703551603198053e-01   1.8170944118207980e-01   1.7797834581226440e-01   1.8415021871348564e-01   1.7481638353403625e-01   1.8260022809635357e-01   1.6740561118608202e-01   1.7679560681372530e-01   1.5594152328886149e-01   1.6667385187391281e-01   1.4111652024730531e-01   1.5261606645709985e-01   1.2409589931774177e-01   1.3556547549445391e-01   1.0631813442906039e-01   1.1692214402136074e-01   8.9216895423253353e-02   9.8270929056270218e-02   7.3920758150401875e-02   8.1040982716616056e-02   6.1031684201857138e-02   6.6182289387530666e-02   5.0632818456699105e-02   5.4035613348928355e-02   4.4459196276915885e-02   2.0883173967534314e-02   1.9613296344642209e-02   1.9079279415143056e-02   1.8808781650779056e-02   1.8039237316561599e-02   1.8430741231691881e-02   1.7465849432636741e-02   1.8474130171739593e-02   1.7338075903028622e-02   1.8969643445982502e-02   1.7673590054215746e-02   1.9985801882994165e-02   1.8531233826871558e-02   2.1630643392544769e-02   2.0013233767901283e-02   2.4054319288873093e-02   2.2267714494878549e-02   2.7450928250524573e-02   2.5491776192036325e-02   3.2063535840542327e-02   2.9935542453820404e-02   3.8195116052296911e-02   3.5911731833267631e-02   4.6199877819333893e-02   4.3795652613237070e-02   5.6432870368166493e-02   5.3982763121579319e-02   6.9138350418467887e-02   6.6781862115655094e-02   8.4285428745552601e-02   8.2236657744663128e-02   1.0142366093416544e-01   9.9938808238663093e-02   1.1965687228696062e-01   1.1896169161331854e-01   1.3780011621972343e-01   1.3801086479422106e-01   1.5465438707556611e-01   1.5575654308082440e-01   1.6923003611738349e-01   1.7114134730056346e-01   1.8086434176583702e-01   1.8351299957052619e-01   1.8924407367529214e-01   1.9262938049659900e-01   1.9427136575756404e-01   1.9853250411445295e-01   1.9585484765089434e-01   2.0130362232121590e-01   1.9372718758363491e-01   2.0081781601943588e-01   1.8746495561836302e-01   1.9663744585570411e-01   1.7674244878720122e-01   1.8818794574206954e-01   1.6169034119981573e-01   1.7513979936178140e-01   1.4312794203595547e-01   1.5779977969544573e-01   1.2253102143552416e-01   1.3728159200764062e-01   1.0174075180011254e-01   1.1536643732641856e-01   8.2485503922560433e-02   9.4062331739861241e-02   6.5941716284453694e-02   7.5037672833930730e-02   5.2551846524265630e-02   5.9222765307137173e-02   4.2140990914469517e-02   4.6757930007694876e-02   3.4242254758128067e-02   3.7257440446089619e-02   3.0183865880137287e-02   1.7643611850101548e-02   1.6574789984522095e-02   1.6694905590945455e-02   1.6032545079993986e-02   1.5892966187283451e-02   1.5999411332171615e-02   1.5641055685471320e-02   1.6506266680078714e-02   1.5950903404881603e-02   1.7637072245750129e-02   1.6891363448387233e-02   1.9531375714897076e-02   1.8593146520563073e-02   2.2386487623270682e-02   2.1250729994653640e-02   2.6462528118000331e-02   2.5126857935934659e-02   3.2089079209757031e-02   3.0559180335851421e-02   3.9673767542304922e-02   3.7966857170279214e-02   4.9674907617116577e-02   4.7833797957388201e-02   6.2502961170084137e-02   6.0616190798519543e-02   7.8334332843682020e-02   7.6553824430953987e-02   9.6855563489817095e-02   9.5396665067390113e-02   1.1708968978803308e-01   1.1617167483580289e-01   1.3751150299660217e-01   1.3723962628417424e-01   1.5647982042102773e-01   1.5675093684914196e-01   1.7273021861583090e-01   1.7325566509501267e-01   1.8563751534797840e-01   1.8607975585796557e-01   1.9516775035995737e-01   1.9530161304777788e-01   2.0169338399410522e-01   2.0149266036885888e-01   2.0573347403244932e-01   2.0542291351259731e-01   2.0762830322009285e-01   2.0772056885009971e-01   2.0723187284665384e-01   2.0852761232512110e-01   2.0385300080093838e-01   2.0730412571571530e-01   1.9649811929598260e-01   2.0295840972861334e-01   1.8434177241186339e-01   1.9424882202064120e-01   1.6723925998305647e-01   1.8034828256281352e-01   1.4604969951094515e-01   1.6135409795464889e-01   1.2262744174396102e-01   1.3855283962454210e-01   9.9332214075211811e-02   1.1422267606165037e-01   7.8272468211203788e-02   9.0908509889858824e-02   6.0720816185327250e-02   7.0585983624585749e-02   4.6959388898685700e-02   5.4177299531132005e-02   3.6592847264009756e-02   4.1625646176021255e-02   2.9011235011229340e-02   3.2372390150883709e-02   2.5774936368484231e-02   1.65370498