<?xml version="1.0"?>
<VTKFile type="UnstructuredGrid"  version="0.1"  >
<UnstructuredGrid>
<Piece  NumberOfPoints="639" NumberOfCells="1174">
<Points>
<DataArray  type="Float64"  NumberOfComponents="3"  format="ascii">1.024347826086957 0 0  1.040869565217391 0 0  1.040869565217391 0.01666666666666667 0  1.024347826086957 0.01666666666666667 0  1.057391304347826 0 0  1.057391304347826 0.01666666666666667 0  1.073913043478261 0 0  1.073913043478261 0.01666666666666667 0  1.090434782608696 0 0  1.090434782608696 0.01666666666666667 0  1.10695652173913 0 0  1.10695652173913 0.01666666666666667 0  1.123478260869565 0 0  1.123478260869565 0.01666666666666667 0  1.14 0 0  1.14 0.01666666666666667 0  1.156521739130435 0 0  1.156521739130435 0.01666666666666667 0  1.17304347826087 0 0  1.17304347826087 0.01666666666666667 0  1.189565217391304 0 0  1.189565217391304 0.01666666666666667 0  1.206086956521739 0 0  1.206086956521739 0.01666666666666667 0  1.222608695652174 0 0  1.222608695652174 0.01666666666666667 0  1.239130434782609 0 0  1.239130434782609 0.01666666666666667 0  1.255652173913044 0 0  1.255652173913044 0.01666666666666667 0  1.272173913043478 0 0  1.272173913043478 0.01666666666666667 0  1.288695652173913 0 0  1.288695652173913 0.01666666666666667 0  1.305217391304348 0 0  1.305217391304348 0.01666666666666667 0  1.321739130434783 0 0  1.321739130434783 0.01666666666666667 0  1.338260869565217 0.01666666666666667 0  1.040869565217391 0.03333333333333333 0  1.057391304347826 0.03333333333333333 0  1.073913043478261 0.03333333333333333 0  1.090434782608696 0.03333333333333333 0  1.10695652173913 0.03333333333333333 0  1.123478260869565 0.03333333333333333 0  1.14 0.03333333333333333 0  1.156521739130435 0.03333333333333333 0  1.17304347826087 0.03333333333333333 0  1.189565217391304 0.03333333333333333 0  1.206086956521739 0.03333333333333333 0  1.222608695652174 0.03333333333333333 0  1.239130434782609 0.03333333333333333 0  1.255652173913044 0.03333333333333333 0  1.272173913043478 0.03333333333333333 0  1.288695652173913 0.03333333333333333 0  1.305217391304348 0.03333333333333333 0  1.321739130434783 0.03333333333333333 0  1.338260869565217 0.03333333333333333 0  1.354782608695652 0.03333333333333333 0  1.057391304347826 0.05 0  1.073913043478261 0.05 0  1.090434782608696 0.05 0  1.10695652173913 0.05 0  1.123478260869565 0.05 0  1.14 0.05 0  1.156521739130435 0.05 0  1.17304347826087 0.05 0  1.189565217391304 0.05 0  1.206086956521739 0.05 0  1.222608695652174 0.05 0  1.239130434782609 0.05 0  1.255652173913044 0.05 0  1.272173913043478 0.05 0  1.288695652173913 0.05 0  1.305217391304348 0.05 0  1.321739130434783 0.05 0  1.338260869565217 0.05 0  1.354782608695652 0.05 0  1.371304347826087 0.05 0  1.073913043478261 0.06666666666666667 0  1.090434782608696 0.06666666666666667 0  1.10695652173913 0.06666666666666667 0  1.123478260869565 0.06666666666666667 0  1.14 0.06666666666666667 0  1.156521739130435 0.06666666666666667 0  1.17304347826087 0.06666666666666667 0  1.189565217391304 0.06666666666666667 0  1.206086956521739 0.06666666666666667 0  1.222608695652174 0.06666666666666667 0  1.239130434782609 0.06666666666666667 0  1.255652173913044 0.06666666666666667 0  1.272173913043478 0.06666666666666667 0  1.288695652173913 0.06666666666666667 0  1.305217391304348 0.06666666666666667 0  1.321739130434783 0.06666666666666667 0  1.338260869565217 0.06666666666666667 0  1.354782608695652 0.06666666666666667 0  1.371304347826087 0.06666666666666667 0  1.387826086956522 0.06666666666666667 0  1.090434782608696 0.08333333333333333 0  1.10695652173913 0.08333333333333333 0  1.123478260869565 0.08333333333333333 0  1.14 0.08333333333333333 0  1.156521739130435 0.08333333333333333 0  1.17304347826087 0.08333333333333333 0  1.189565217391304 0.08333333333333333 0  1.206086956521739 0.08333333333333333 0  1.222608695652174 0.08333333333333333 0  1.239130434782609 0.08333333333333333 0  1.255652173913044 0.08333333333333333 0  1.272173913043478 0.08333333333333333 0  1.288695652173913 0.08333333333333333 0  1.305217391304348 0.08333333333333333 0  1.321739130434783 0.08333333333333333 0  1.338260869565217 0.08333333333333333 0  1.354782608695652 0.08333333333333333 0  1.371304347826087 0.08333333333333333 0  1.387826086956522 0.08333333333333333 0  1.404347826086957 0.08333333333333333 0  1.10695652173913 0.1 0  1.123478260869565 0.1 0  1.14 0.1 0  1.156521739130435 0.1 0  1.17304347826087 0.1 0  1.189565217391304 0.1 0  1.206086956521739 0.1 0  1.222608695652174 0.1 0  1.239130434782609 0.1 0  1.255652173913044 0.1 0  1.272173913043478 0.1 0  1.288695652173913 0.1 0  1.305217391304348 0.1 0  1.321739130434783 0.1 0  1.338260869565217 0.1 0  1.354782608695652 0.1 0  1.371304347826087 0.1 0  1.387826086956522 0.1 0  1.404347826086957 0.1 0  1.420869565217391 0.1 0  1.123478260869565 0.1166666666666667 0  1.14 0.1166666666666667 0  1.156521739130435 0.1166666666666667 0  1.17304347826087 0.1166666666666667 0  1.189565217391304 0.1166666666666667 0  1.206086956521739 0.1166666666666667 0  1.222608695652174 0.1166666666666667 0  1.239130434782609 0.1166666666666667 0  1.255652173913044 0.1166666666666667 0  1.272173913043478 0.1166666666666667 0  1.288695652173913 0.1166666666666667 0  1.305217391304348 0.1166666666666667 0  1.321739130434783 0.1166666666666667 0  1.338260869565217 0.1166666666666667 0  1.354782608695652 0.1166666666666667 0  1.371304347826087 0.1166666666666667 0  1.387826086956522 0.1166666666666667 0  1.404347826086957 0.1166666666666667 0  1.420869565217391 0.1166666666666667 0  1.437391304347826 0.1166666666666667 0  1.14 0.1333333333333333 0  1.156521739130435 0.1333333333333333 0  1.17304347826087 0.1333333333333333 0  1.189565217391304 0.1333333333333333 0  1.206086956521739 0.1333333333333333 0  1.222608695652174 0.1333333333333333 0  1.239130434782609 0.1333333333333333 0  1.255652173913044 0.1333333333333333 0  1.272173913043478 0.1333333333333333 0  1.288695652173913 0.1333333333333333 0  1.305217391304348 0.1333333333333333 0  1.321739130434783 0.1333333333333333 0  1.338260869565217 0.1333333333333333 0  1.354782608695652 0.1333333333333333 0  1.371304347826087 0.1333333333333333 0  1.387826086956522 0.1333333333333333 0  1.404347826086957 0.1333333333333333 0  1.420869565217391 0.1333333333333333 0  1.437391304347826 0.1333333333333333 0  1.453913043478261 0.1333333333333333 0  1.156521739130435 0.15 0  1.17304347826087 0.15 0  1.189565217391304 0.15 0  1.206086956521739 0.15 0  1.222608695652174 0.15 0  1.239130434782609 0.15 0  1.255652173913044 0.15 0  1.272173913043478 0.15 0  1.288695652173913 0.15 0  1.305217391304348 0.15 0  1.321739130434783 0.15 0  1.338260869565217 0.15 0  1.354782608695652 0.15 0  1.371304347826087 0.15 0  1.387826086956522 0.15 0  1.404347826086957 0.15 0  1.420869565217391 0.15 0  1.437391304347826 0.15 0  1.453913043478261 0.15 0  1.470434782608696 0.15 0  1.17304347826087 0.1666666666666667 0  1.189565217391304 0.1666666666666667 0  1.206086956521739 0.1666666666666667 0  1.222608695652174 0.1666666666666667 0  1.239130434782609 0.1666666666666667 0  1.255652173913044 0.1666666666666667 0  1.272173913043478 0.1666666666666667 0  1.288695652173913 0.1666666666666667 0  1.305217391304348 0.1666666666666667 0  1.321739130434783 0.1666666666666667 0  1.338260869565217 0.1666666666666667 0  1.354782608695652 0.1666666666666667 0  1.371304347826087 0.1666666666666667 0  1.387826086956522 0.1666666666666667 0  1.404347826086957 0.1666666666666667 0  1.420869565217391 0.1666666666666667 0  1.437391304347826 0.1666666666666667 0  1.453913043478261 0.1666666666666667 0  1.470434782608696 0.1666666666666667 0  1.486956521739131 0.1666666666666667 0  1.189565217391304 0.1833333333333333 0  1.206086956521739 0.1833333333333333 0  1.222608695652174 0.1833333333333333 0  1.239130434782609 0.1833333333333333 0  1.255652173913044 0.1833333333333333 0  1.272173913043478 0.1833333333333333 0  1.288695652173913 0.1833333333333333 0  1.305217391304348 0.1833333333333333 0  1.321739130434783 0.1833333333333333 0  1.338260869565217 0.1833333333333333 0  1.354782608695652 0.1833333333333333 0  1.371304347826087 0.1833333333333333 0  1.387826086956522 0.1833333333333333 0  1.404347826086957 0.1833333333333333 0  1.420869565217391 0.1833333333333333 0  1.437391304347826 0.1833333333333333 0  1.453913043478261 0.1833333333333333 0  1.470434782608696 0.1833333333333333 0  1.486956521739131 0.1833333333333333 0  1.503478260869565 0.1833333333333333 0  1.206086956521739 0.2 0  1.222608695652174 0.2 0  1.239130434782609 0.2 0  1.255652173913044 0.2 0  1.272173913043478 0.2 0  1.288695652173913 0.2 0  1.305217391304348 0.2 0  1.321739130434783 0.2 0  1.338260869565217 0.2 0  1.354782608695652 0.2 0  1.371304347826087 0.2 0  1.387826086956522 0.2 0  1.404347826086957 0.2 0  1.420869565217391 0.2 0  1.437391304347826 0.2 0  1.453913043478261 0.2 0  1.470434782608696 0.2 0  1.486956521739131 0.2 0  1.503478260869565 0.2 0  1.52 0.2 0  1.222608695652174 0.2166666666666667 0  1.239130434782609 0.2166666666666667 0  1.255652173913044 0.2166666666666667 0  1.272173913043478 0.2166666666666667 0  1.288695652173913 0.2166666666666667 0  1.305217391304348 0.2166666666666667 0  1.321739130434783 0.2166666666666667 0  1.338260869565217 0.2166666666666667 0  1.354782608695652 0.2166666666666667 0  1.371304347826087 0.2166666666666667 0  1.387826086956522 0.2166666666666667 0  1.404347826086957 0.2166666666666667 0  1.420869565217391 0.2166666666666667 0  1.437391304347826 0.2166666666666667 0  1.453913043478261 0.2166666666666667 0  1.470434782608696 0.2166666666666667 0  1.486956521739131 0.2166666666666667 0  1.503478260869565 0.2166666666666667 0  1.52 0.2166666666666667 0  1.536521739130435 0.2166666666666667 0  1.239130434782609 0.2333333333333333 0  1.255652173913044 0.2333333333333333 0  1.272173913043478 0.2333333333333333 0  1.288695652173913 0.2333333333333333 0  1.305217391304348 0.23333
[...]
<CellData  Scalars="rho_bar"> 
<DataArray  type="Float64"  Name="rho_bar"  format="ascii">9.9999999999999933e-01   9.9999999999999067e-01   9.9999999999999944e-01   9.9999999999999067e-01   9.9999999999999944e-01   9.9999999999999023e-01   9.9999999999999933e-01   9.9999999999998979e-01   9.9999999999999911e-01   9.9999999999998956e-01   9.9999999999999911e-01   9.9999999999998923e-01   9.9999999999999911e-01   9.9999999999998912e-01   9.9999999999999911e-01   9.9999999999998912e-01   9.9999999999999911e-01   9.9999999999998912e-01   9.9999999999999933e-01   9.9999999999998979e-01   9.9999999999999944e-01   9.9999999999999112e-01   9.9999999999999933e-01   9.9999999999999201e-01   9.9999999999999944e-01   9.9999999999999234e-01   9.9999999999999944e-01   9.9999999999999201e-01   9.9999999999999911e-01   9.9999999999999045e-01   9.9999999999999900e-01   9.9999999999998757e-01   9.9999999999999856e-01   9.9999999999998301e-01   9.9999999999999856e-01   9.9999999999998035e-01   9.9999999999998290e-01   9.9991731668673400e-01   9.9991547937805825e-01   8.7437214635546312e-01   9.9991202032301074e-01   8.7152038841548496e-01   9.9990770557156206e-01   8.6747760154937459e-01   9.9990385841044682e-01   8.6346338707515058e-01   9.9990058146498284e-01   8.6017035029421007e-01   9.9989711085654309e-01   8.5705563564355947e-01   9.9989489900069661e-01   8.5429783623887567e-01   9.9989835739824695e-01   8.5473708121969594e-01   9.9991106100819793e-01   8.6278805017411897e-01   9.9992797460530891e-01   8.7902044415177460e-01   9.9993959142614353e-01   8.9591210329710935e-01   9.9994265155407425e-01   9.0485183997610918e-01   9.9993632258470111e-01   9.0240558602337406e-01   9.9991199678684894e-01   8.8404782445704788e-01   9.9985102489821542e-01   8.4337001823560842e-01   9.9975872629763185e-01   7.9248667643806159e-01   9.9972730312581437e-01   7.6390029007959159e-01   9.9981409295874402e-01   7.7829485954582622e-01   8.4134855559323807e-01   1.6072950465896108e-04   1.5495204238739435e-04   1.0012220293583356e-08   1.4734920562580373e-04   9.5837043486331676e-09   1.4042964155678664e-04   9.1272548408127802e-09   1.3523003247953300e-04   8.7883700872204429e-09   1.3050476347943130e-04   8.5369652735867147e-09   1.2658278353932143e-04   8.2910537324565309e-09   1.2787686747567356e-04   8.2047121041650667e-09   1.4225927311264006e-04   8.6884882899429544e-09   1.7633625258277788e-04   1.0312628436389320e-08   2.2215521077385378e-04   1.3214954741602725e-08   2.5180798204493804e-04   1.6021923454623274e-08   2.4258329810601203e-04   1.6832846829369544e-08   1.8893013874028233e-04   1.4961883001059679e-08   1.1527653852602679e-04   1.0585401897615180e-08   6.4690735856113638e-05   6.2137336479898648e-09   4.7708619203519945e-05   4.0985713896842429e-09   6.1136355310196594e-05   4.2883418390389957e-09   1.4052563030929799e-04   8.0664354270195328e-09   2.4865325048972757e-08   0.0000000000000000e+00   0.0000000000000000e+00   0.0000000000000000e+00   0.0000000000000000e+00   0.0000000000000000e+00   0.0000000000000000e+00   0.0000000000000000e+00   0.0000000000000000e+00   0.0000000000000000e+00   0.0000000000000000e+00   0.0000000000000000e+00   0.0000000000000000e+00   0.0000000000000000e+00   0.0000000000000000e+00   0.0000000000000000e+00   0.0000000000000000e+00   0.0000000000000000e+00   0.0000000000000000e+00   0.0000000000000000e+00   0.0000000000000000e+00   0.0000000000000000e+00   0.0000000000000000e+00   0.0000000000000000e+00   0.0000000000000000e+00   0.0000000000000000e+00   0.0000000000000000e+00   0.0000000000000000e+00   0.0000000000000000e+00   0.0000000000000000e+00   0.0000000000000000e+00   0.0000000000000000e+00   0.0000000000000000e+00   0.0000000000000000e+00   0.0000000000000000e+00   0.0000000000000000e+00   0.0000000000000000e+00   0.0000000000000000e+00   0.0000000000000000e+00   0.0000000000000000e+00   0.0000000000000000e+00   0.0000000000000000e+00   0.0000000000000000e+00   0.0000000000000000e+00   0.0000000000000000e+00   0.0000000000000000e+00   0.0000000000000000e+00   0.0000000000000000e+00   0.0000000000000000e+00   0.0000000000000000e+00   0.0000000000000000e+00   0.0000000000000000e+00   0.0000000000000000e+00   0.0000000000000000e+00   0.0000000000000000e+00   0.0000000000000000e+00   0.0000000000000000e+00   0.0000000000000000e+00   0.0000000000000000e+00   0.0000000000000000e+00   0.0000000000000000e+00   0.0000000000000000e+00   0.0000000000000000e+00   0.0000000000000000e+00   0.0000000000000000e+00   0.0000000000000000e+00   0.0000000000000000e+00   0.0000000000000000e+00   0.0000000000000000e+00   0.0000000000000000e+00   0.0000000000000000e+00   0.0000000000000000e+00   0.0000000000000000e+00   0.0000000000000000e+00   0.0000000000000000e+00   0.0000000000000000e+00   0.0000000000000000e+00   0.0000000000000000e+00   0.0000000000000000e+00   0.0000000000000000e+00   0.0000000000000000e+00   0.0000000000000000e+00   0.0000000000000000e+00   0.0000000000000000e+00   0.0000000000000000e+00   0.0000000000000000e+00   0.0000000000000000e+00   0.0000000000000000e+00   0.0000000000000000e+00   0.0000000000000000e+00   0.0000000000000000e+00   0.0000000000000000e+00   0.0000000000000000e+00   0.0000000000000000e+00   0.0000000000000000e+00   0.0000000000000000e+00   0.0000000000000000e+00   0.0000000000000000e+00   0.0000000000000000e+00   0.0000000000000000e+00   0.0000000000000000e+00   0.0000000000000000e+00   0.0000000000000000e+00   0.0000000000000000e+00   0.0000000000000000e+00   0.0000000000000000e+00   0.0000000000000000e+00   0.0000000000000000e+00   0.0000000000000000e+00   0.0000000000000000e+00   0.0000000000000000e+00   0.0000000000000000e+00   0.0000000000000000e+00   0.0000000000000000e+00   0.0000000000000000e+00   0.0000000000000000e+00   0.0000000000000000e+00   0.0000000000000000e+00   0.0000000000000000e+00   0.0000000000000000e+00   0.0000000000000000e+00   0.0000000000000000e+00   0.0000000000000000e+00   0.0000000000000000e+00   0.0000000000000000e+00   0.0000000000000000e+00   0.0000000000000000e+00   0.0000000000000000e+00   0.0000000000000000e+00   0.0000000000000000e+00   0.0000000000000000e+00   0.0000000000000000e+00   0.0000000000000000e+00   0.0000000000000000e+00   0.0000000000000000e+00   0.0000000000000000e+00   0.0000000000000000e+00   0.0000000000000000e+00   0.0000000000000000e+00   0.0000000000000000e+00   0.0000000000000000e+00   0.0000000000000000e+00   0.0000000000000000e+00   0.0000000000000000e+00   0.0000000000000000e+00   0.0000000000000000e+00   0.0000000000000000e+00   0.0000000000000000e+00   0.0000000000000000e+00   0.0000000000000000e+00   0.0000000000000000e+00   0.0000000000000000e+00   0.0000000000000000e+00   0.0000000000000000e+00   0.0000000000000000e+00   0.0000000000000000e+00   0.0000000000000000e+00   0.0000000000000000e+00   0.0000000000000000e+00   0.0000000000000000e+00   0.0000000000000000e+00   0.0000000000000000e+00   0.0000000000000000e+00   0.0000000000000000e+00   0.0000000000000000e+00   0.0000000000000000e+00   0.0000000000000000e+00   0.0000000000000000e+00   0.0000000000000000e+00   0.0000000000000000e+00   0.0000000000000000e+00   0.0000000000000000e+00   0.0000000000000000e+00   0.0000000000000000e+00   0.0000000000000000e+00   0.0000000000000000e+00   0.0000000000000000e+00   0.0000000000000000e+00   0.0000000000000000e+00   0.0000000000000000e+00   0.0000000000000000e+00   0.0000000000000000e+00   0.0000000000000000e+00   0.0000000000000000e+00   0.0000000000000000e+00   0.0000000000000000e+00   0.0000000000000000e+00   0.0000000000000000e+00   0.0000000000000000e+00   0.0000000000000000e+00   6.8065923268060643e-14   0.0000000000000000e+00   0.0000000000000000e+00   0.0000000000000000e+00   0.0000000000000000e+00   0.0000000000000000e+00   0.0000000000000000e+00   0.0000000000000000e+00   0.0000000000000000e+00   0.0000000000000000e+00   0.0000000000000000e+00   0.0000000000000000e+00   0.0000000000000000e+00   0.0000000000000000e+00   0.0000000000000000e+00   0.0000000000000000e+00   0.0000000000000000e+00   0.0000000000000000e+00   0.0000000000000000e+00   0.0000000000000000e+00   0.0000000000000000e+00   0.0000000000000000e+00   0.0000000000000000e+00   0.0000000000000000e+00   0.0000000000000000e+00   0.0000000000000000e+00   0.0000000000000000e+00   0.0000000000000000e+00   0.0000000000000000e+00   0.0000000000000000e+00   0.0000000000000000e+00   0.0000000000000000e+00   0.0000000000000000e+00   0.0000000000000000e+00   1.3792245123767088e-11   5.4248115259151548e-11   3.6934341374343280e-03   1.9657392493796538e-02   6.5913406692291787e-01   0.0000000000000000e+00   0.0000000000000000e+00   0.0000000000000000e+00   0.0000000000000000e+00   0.0000000000000000e+00   0.0000000000000000e+00   0.0000000000000000e+00   0.0000000000000000e+00   0.0000000000000000e+00   0.0000000000000000e+00   0.0000000000000000e+00   0.0000000000000000e+00   0.0000000000000000e+00   0.0000000000000000e+00   0.0000000000000000e+00   0.0000000000000000e+00   0.0000000000000000e+00   0.0000000000000000e+00   0.0000000000000000e+00   0.0000000000000000e+00   0.0000000000000000e+00   0.0000000000000000e+00   0.0000000000000000e+00   0.0000000000000000e+00   0.0000000000000000e+00   0.0000000000000000e+00   0.0000000000000000e+00   9.2518585385429707e-18   4.6259292692714858e-17   1.3766644944383325e-08   6.8842756782242859e-08   2.8422330162437154e-01   3.1811432318152960e-01   7.3621174265475642e-01   7.9932500558190211e-01   9.9999985741562025e-01   9.9999994607158416e-01   9.9999999999907396e-01   0.0000000000000000e+00   0.0000000000000000e+00   0.0000000000000000e+00   0.0000000000000000e+00   0.0000000000000000e+00   0.0000000000000000e+00   0.0000000000000000e+00   0.0000000000000000e+00   0.0000000000000000e+00   0.0000000000000000e+00   0.0000000000000000e+00   0.0000000000000000e+00   0.0000000000000000e+00   0.0000000000000000e+00   0.0000000000000000e+00   0.0000000000000000e+00   0.0000000000000000e+00   0.0000000000000000e+00   0.0000000000000000e+00   0.0000000000000000e+00   0.0000000000000000e+00   0.0000000000000000e+00   0.0000000000000000e+00   1.4765966227514582e-14   4.9506695039743441e-14   2.3716236725303728e-05   1.4229978179670458e-04   3.8328703847149914e-01   5.2827195389370485e-01   9.9705206804171442e-01   9.9911114773105814e-01   9.9999999966416853e-01   9.9999999981056853e-01   9.9999999999989175e-01   9.9999999999989964e-01   9.9999999975178078e-01   9.9999999960398878e-01   9.9302359879896218e-01   0.0000000000000000e+00   0.0000000000000000e+00   0.0000000000000000e+00   0.0000000000000000e+00   0.0000000000000000e+00   0.0000000000000000e+00   0.0000000000000000e+00   0.0000000000000000e+00   0.0000000000000000e+00   0.0000000000000000e+00   0.0000000000000000e+00   0.0000000000000000e+00   0.0000000000000000e+00   0.0000000000000000e+00   0.0000000000000000e+00   0.0000000000000000e+00   0.0000000000000000e+00   0.0000000000000000e+00   0.0000000000000000e+00   3.3772059223243417e-12   1.1073068388138077e-11   1.5758650859295533e-02   4.6994056479759336e-02   6.1904057180043504e-01   6.6690006370074451e-01   9.9999611686698719e-01   9.9999864984694742e-01   9.9999999999478140e-01   9.9999999999629108e-01   9.9999999999970313e-01   9.9999999999964972e-01   9.9999998104283105e-01   9.9999996142239800e-01   7.6675085442826385e-01   7.2441148773621822e-01   2.8521448778213210e-01   2.4487256093837056e-01   1.8028428287279279e-09   0.0000000000000000e+00   0.0000000000000000e+00   0.0000000000000000e+00   0.0000000000000000e+00   0.0000000000000000e+00   0.0000000000000000e+00   0.0000000000000000e+00   0.0000000000000000e+00   0.0000000000000000e+00   0.0000000000000000e+00   0.0000000000000000e+00   0.0000000000000000e+00   0.0000000000000000e+00   0.0000000000000000e+00   0.0000000000000000e+00   8.8764582721149543e-10   3.8018510469436003e-09   2.2668914174241320e-01   2.6252733704698789e-01   7.3721201856576113e-01   7.7234764525280475e-01   9.9999998186592109e-01   9.9999998967649351e-01   9.9999999999981504e-01   9.9999999999984246e-01   9.9999999999135258e-01   9.9999999998814826e-01   9.9999199786912596e-01   9.9997531325587197e-01   6.6371334384284741e-01   5.3516409991966873e-01   2.5922829194692021e-02   5.0000478233616832e-03   7.8228534761137780e-12   1.6281513174713307e-12   0.0000000000000000e+00   0.0000000000000000e+00   0.0000000000000000e+00   0.0000000000000000e+00   0.0000000000000000e+00   0.0000000000000000e+00   0.0000000000000000e+00   0.0000000000000000e+00   0.0000000000000000e+00   0.0000000000000000e+00   0.0000000000000000e+00   0.0000000000000000e+00   6.2912638062092188e-16   3.0901207518733522e-15   9.2072761591806729e-07   6.5572987677971674e-06   3.3817863033010503e-01   4.7138896439816413e-01   9.8232734424167567e-01   9.9313690589799775e-01   9.9999999948506113e-01   9.9999999963750275e-01   9.9999999999993250e-01   9.9999999999992950e-01   9.9999999975418441e-01   9.9999999962167940e-01   9.9570065298663335e-01   9.8838639535792838e-01   4.8538954085535074e-01   3.4212559451462526e-01   1.2180583629219550e-05   1.5950976387050602e-06   5.1070259132757201e-15   9.7144514654701197e-16   0.0000000000000000e+00   0.0000000000000000e+00   0.0000000000000000e+00   0.0000000000000000e+00   0.0000000000000000e+00   0.0000000000000000e+00   0.0000000000000000e+00   0.0000000000000000e+00   0.0000000000000000e+00   0.0000000000000000e+00   0.0000000000000000e+00   0.0000000000000000e+00   8.7108098512089782e-13   3.8796743595526095e-12   2.7361127526276670e-03   1.4575443139644473e-02   5.1767735216884037e-01   6.6096498001142545e-01   9.9995382947339662e-01   9.9998515863398529e-01   9.9999999997999978e-01   9.9999999998540534e-01   9.9999999999972800e-01   9.9999999999966471e-01   9.9999998558775416e-01   9.9999997116142403e-01   7.7114807081898595e-01   7.3077946280364992e-01   2.7574643923948228e-01   2.3871241796317003e-01   5.3330039088509782e-09   1.1286572787483351e-09   0.0000000000000000e+00   0.0000000000000000e+00   0.0000000000000000e+00   0.0000000000000000e+00   0.0000000000000000e+00   0.0000000000000000e+00   0.0000000000000000e+00   0.0000000000000000e+00   0.0000000000000000e+00   0.0000000000000000e+00   0.0000000000000000e+00   0.0000000000000000e+00   0.0000000000000000e+00   0.0000000000000000e+00   6.2124139166286341e-10   3.0674485359168573e-09   2.0719257821406031e-01   2.5046645582684551e-01   7.0228377078766291e-01   7.3214306024407683e-01   9.9999993584302971e-01   9.9999997121973483e-01   9.9999999999946587e-01   9.9999999999958533e-01   9.9999999999263212e-01   9.9999999999036082e-01   9.9999580075113836e-01   9.9998758310512648e-01   6.6503037007515475e-01   5.6548847972616345e-01   3.3070240740429677e-02   7.8472533354558283e-03   8.7139184756779270e-12   2.0855539517583570e-12   0.0000000000000000e+00   0.0000000000000000e+00   0.0000000000000000e+00   0.0000000000000000e+00   0.0000000000000000e+00   0.0000000000000000e+00   0.0000000000000000e+00   0.0000000000000000e+00   0.0000000000000000e+00   0.0000000000000000e+00   0.0000000000000000e+00   0.0000000000000000e+00   0.0000000000000000e+00   0.0000000000000000e+00   0.0000000000000000e+00   0.0000000000000000e+00   0.0000000000000000e+00   3.3814784004658116e-01   9.8147829091664729e-01   9.9330072906445144e-01   9.9999999944316198e-01   9.9999999965071074e-01   9.9999999999993661e-01   9.9999999999994071e-01   9.9999999986403387e-01   9.9999999981221177e-01   9.9810890181580625e-01   9.9526403026445098e-01   5.0008994679007512e-01   3.5609637687337636e-01   3.1247781680158557e-05   4.5387731450371085e-06   1.1463052729254741e-14   2.5627648151764029e-15   0.0000000000000000e+00   0.0000000000000000e+00   0.0000000000000000e+00   0.0000000000000000e+00   0.0000000000000000e+00   0.0000000000000000e+00   0.0000000000000000e+00   0.0000000000000000e+00   0.0000000000000000e+00   0.0000000000000000e+00   0.0000000000000000e+00   0.0000000000000000e+00   0.0000000000000000e+00   0.0000000000000000e+00   0.0000000000000000e+00   0.0000000000000000e+00   0.0000000000000000e+00   0.0000000000000000e+00   0.0000000000000000e+00   0.0000000000000000e+00   0.0000000000000000e+00   9.9999999998520817e-01   9.9999999999988098e-01   9.9999999999985822e-01   9.9999999587273003e-01   9.9999999253814953e-01   8.7005557697534575e-01   8.1600797571845740e-01   3.1331032189214764e-01   2.9078072752860368e-01   1.7681776672458700e-08   4.1038635082794404e-09   9.2518585385429707e-18   0.0000000000000000e+00   0.0000000000000000e+00   0.0000000000000000e+00   0.0000000000000000e+00   0.0000000000000000e+00   0.0000000000000000e+00   0.0000000000000000e+00   0.0000000000000000e+00   0.0000000000000000e+00   0.0000000000000000e+00   0.0000000000000000e+00   0.0000000000000000e+00   0.0000000000000000e+00   0.0000000000000000e+00   0.0000000000000000e+00   0.0000000000000000e+00   0.0000000000000000e+00   0.0000000000000000e+00   0.0000000000000000e+00   0.0000000000000000e+00   0.0000000000000000e+00   0.0000000000000000e+00   0.0000000000000000e+00   0.0000000000000000e+00   0.0000000000000000e+00   0.0000000000000000e+00   9.9999902294985898e-01   6.6922665238572743e-01   6.3450084273823126e-01   1.0249525139830404e-01   4.1512056890605165e-02   5.4989938528630481e-11   1.5616230530923758e-11   0.0000000000000000e+00   0.0000000000000000e+00   0.0000000000000000e+00   0.0000000000000000e+00   0.0000000000000000e+00   0.0000000000000000e+00   0.0000000000000000e+00   0.0000000000000000e+00   0.0000000000000000e+00   0.0000000000000000e+00   0.0000000000000000e+00   0.0000000000000000e+00   0.0000000000000000e+00   0.0000000000000000e+00   0.0000000000000000e+00   0.0000000000000000e+00   0.0000000000000000e+00   0.0000000000000000e+00   0.0000000000000000e+00   0.0000000000000000e+00   0.0000000000000000e+00   0.0000000000000000e+00   0.0000000000000000e+00   0.0000000000000000e+00   0.0000000000000000e+00   0.0000000000000000e+00   0.0000000000000000e+00   0.0000000000000000e+00   0.0000000000000000e+00   0.0000000000000000e+00   0.0000000000000000e+00   2.3312965684313408e-04   1.3206102877916237e-13   3.3463972333909929e-14   0.0000000000000000e+00   0.0000000000000000e+00   0.0000000000000000e+00   0.0000000000000000e+00   0.0000000000000000e+00   0.0000000000000000e+00   0.0000000000000000e+00   0.0000000000000000e+00   0.0000000000000000e+00   0.0000000000000000e+00   0.0000000000000000e+00   0.0000000000000000e+00   0.0000000000000000e+00   0.0000000000000000e+00   0.0000000000000000e+00   0.0000000000000000e+00   0.0000000000000000e+00   0.0000000000000000e+00   0.0000000000000000e+00   0.0000000000000000e+00   0.0000000000000000e+00   0.0000000000000000e+00   0.0000000000000000e+00   0.0000000000000000e+00   0.0000000000000000e+00   0.0000000000000000e+00   0.0000000000000000e+00   0.0000000000000000e+00   0.0000000000000000e+00   0.0000000000000000e+00   0.0000000000000000e+00   0.0000000000000000e+00   0.0000000000000000e+00   0.0000000000000000e+00   0.0000000000000000e+00   0.0000000000000000e+00   0.0000000000000000e+00   0.0000000000000000e+00   0.0000000000000000e+00   0.0000000000000000e+00   0.0000000000000000e+00   0.0000000000000000e+00   0.0000000000000000e+00   0.0000000000000000e+00   0.0000000000000000e+00   0.0000000000000000e+00   0.0000000000000000e+00   0.0000000000000000e+00   0.0000000000000000e+00   0.0000000000000000e+00   0.0000000000000000e+00   0.0000000000000000e+00   0.0000000000000000e+00   0.0000000000000000e+00   0.0000000000000000e+00   0.0000000000000000e+00   0.0000000000000000e+00   0.0000000000000000e+00   0.0000000000000000e+00   0.0000000000000000e+00   0.0000000000000000e+00   0.0000000000000000e+00   0.0000000000000000e+00   0.0000000000000000e+00   0.0000000000000000e+00   0.0000000000000000e+00   0.0000000000000000e+00   0.0000000000000000e+00   0.0000000000000000e+00   0.0000000000000000e+00   0.0000000000000000e+00   0.0000000000000000e+00   0.00000000