<?xml version="1.0"?>
<VTKFile type="UnstructuredGrid"  version="0.1"  >
<UnstructuredGrid>
<Piece  NumberOfPoints="650" NumberOfCells="1199">
<Points>
<DataArray  type="Float64"  NumberOfComponents="3"  format="ascii">3.238260869565217 0 0  3.254782608695652 0 0  3.254782608695652 0.01666666666666667 0  3.238260869565217 0.01666666666666667 0  3.271304347826087 0 0  3.271304347826087 0.01666666666666667 0  3.287826086956521 0 0  3.287826086956521 0.01666666666666667 0  3.304347826086957 0 0  3.304347826086957 0.01666666666666667 0  3.320869565217391 0 0  3.320869565217391 0.01666666666666667 0  3.337391304347826 0 0  3.337391304347826 0.01666666666666667 0  3.353913043478261 0 0  3.353913043478261 0.01666666666666667 0  3.370434782608696 0 0  3.370434782608696 0.01666666666666667 0  3.386956521739131 0 0  3.386956521739131 0.01666666666666667 0  3.403478260869565 0 0  3.403478260869565 0.01666666666666667 0  3.419999999999999 0 0  3.419999999999999 0.01666666666666667 0  3.436521739130435 0 0  3.436521739130435 0.01666666666666667 0  3.453043478260869 0 0  3.453043478260869 0.01666666666666667 0  3.469565217391304 0 0  3.469565217391304 0.01666666666666667 0  3.486086956521739 0 0  3.486086956521739 0.01666666666666667 0  3.502608695652174 0 0  3.502608695652174 0.01666666666666667 0  3.519130434782609 0 0  3.519130434782609 0.01666666666666667 0  3.535652173913043 0 0  3.535652173913043 0.01666666666666667 0  3.552173913043478 0 0  3.552173913043478 0.01666666666666667 0  3.568695652173913 0 0  3.568695652173913 0.01666666666666667 0  3.585217391304347 0 0  3.585217391304347 0.01666666666666667 0  3.601739130434782 0 0  3.601739130434782 0.01666666666666667 0  3.618260869565217 0 0  3.618260869565217 0.01666666666666667 0  3.634782608695652 0 0  3.634782608695652 0.01666666666666667 0  3.651304347826087 0 0  3.651304347826087 0.01666666666666667 0  3.667826086956521 0 0  3.667826086956521 0.01666666666666667 0  3.684347826086956 0 0  3.684347826086956 0.01666666666666667 0  3.700869565217391 0 0  3.700869565217391 0.01666666666666667 0  3.717391304347826 0 0  3.717391304347826 0.01666666666666667 0  3.733913043478261 0 0  3.733913043478261 0.01666666666666667 0  3.750434782608695 0 0  3.750434782608695 0.01666666666666667 0  3.766956521739131 0 0  3.766956521739131 0.01666666666666667 0  3.783478260869565 0 0  3.783478260869565 0.01666666666666667 0  3.8 0 0  3.8 0.01666666666666667 0  3.254782608695652 0.03333333333333333 0  3.271304347826087 0.03333333333333333 0  3.287826086956521 0.03333333333333333 0  3.304347826086957 0.03333333333333333 0  3.320869565217391 0.03333333333333333 0  3.337391304347826 0.03333333333333333 0  3.353913043478261 0.03333333333333333 0  3.370434782608696 0.03333333333333333 0  3.386956521739131 0.03333333333333333 0  3.403478260869565 0.03333333333333333 0  3.419999999999999 0.03333333333333333 0  3.436521739130435 0.03333333333333333 0  3.453043478260869 0.03333333333333333 0  3.469565217391304 0.03333333333333333 0  3.486086956521739 0.03333333333333333 0  3.502608695652174 0.03333333333333333 0  3.519130434782609 0.03333333333333333 0  3.535652173913043 0.03333333333333333 0  3.552173913043478 0.03333333333333333 0  3.568695652173913 0.03333333333333333 0  3.585217391304347 0.03333333333333333 0  3.601739130434782 0.03333333333333333 0  3.618260869565217 0.03333333333333333 0  3.634782608695652 0.03333333333333333 0  3.651304347826087 0.03333333333333333 0  3.667826086956521 0.03333333333333333 0  3.684347826086956 0.03333333333333333 0  3.700869565217391 0.03333333333333333 0  3.717391304347826 0.03333333333333333 0  3.733913043478261 0.03333333333333333 0  3.750434782608695 0.03333333333333333 0  3.766956521739131 0.03333333333333333 0  3.783478260869565 0.03333333333333333 0  3.8 0.03333333333333333 0  3.271304347826087 0.05 0  3.287826086956521 0.05 0  3.304347826086957 0.05 0  3.320869565217391 0.05 0  3.337391304347826 0.05 0  3.353913043478261 0.05 0  3.370434782608696 0.05 0  3.386956521739131 0.05 0  3.403478260869565 0.05 0  3.419999999999999 0.05 0  3.436521739130435 0.05 0  3.453043478260869 0.05 0  3.469565217391304 0.05 0  3.486086956521739 0.05 0  3.502608695652174 0.05 0  3.519130434782609 0.05 0  3.535652173913043 0.05 0  3.552173913043478 0.05 0  3.568695652173913 0.05 0  3.585217391304347 0.05 0  3.601739130434782 0.05 0  3.618260869565217 0.05 0  3.634782608695652 0.05 0  3.651304347826087 0.05 0  3.667826086956521 0.05 0  3.684347826086956 0.05 0  3.700869565217391 0.05 0  3.717391304347826 0.05 0  3.733913043478261 0.05 0  3.750434782608695 0.05 0  3.766956521739131 0.05 0  3.783478260869565 0.05 0  3.8 0.05 0  3.287826086956521 0.06666666666666667 0  3.304347826086957 0.06666666666666667 0  3.320869565217391 0.06666666666666667 0  3.337391304347826 0.06666666666666667 0  3.353913043478261 0.06666666666666667 0  3.370434782608696 0.06666666666666667 0  3.386956521739131 0.06666666666666667 0  3.403478260869565 0.06666666666666667 0  3.419999999999999 0.06666666666666667 0  3.436521739130435 0.06666666666666667 0  3.453043478260869 0.06666666666666667 0  3.469565217391304 0.06666666666666667 0  3.486086956521739 0.06666666666666667 0  3.502608695652174 0.06666666666666667 0  3.519130434782609 0.06666666666666667 0  3.535652173913043 0.06666666666666667 0  3.552173913043478 0.06666666666666667 0  3.568695652173913 0.06666666666666667 0  3.585217391304347 0.06666666666666667 0  3.601739130434782 0.06666666666666667 0  3.618260869565217 0.06666666666666667 0  3.634782608695652 0.06666666666666667 0  3.651304347826087 0.06666666666666667 0  3.667826086956521 0.06666666666666667 0  3.684347826086956 0.06666666666666667 0  3.700869565217391 0.06666666666666667 0  3.717391304347826 0.06666666666666667 0  3.733913043478261 0.06666666666666667 0  3.750434782608695 0.06666666666666667 0  3.766956521739131 0.06666666666666667 0  3.783478260869565 0.06666666666666667 0  3.8 0.06666666666666667 0  3.304347826086957 0.08333333333333333 0  3.320869565217391 0.08333333333333333 0  3.337391304347826 0.08333333333333333 0  3.353913043478261 0.08333333333333333 0  3.370434782608696 0.08333333333333333 0  3.386956521739131 0.08333333333333333 0  3.403478260869565 0.08333333333333333 0  3.419999999999999 0.08333333333333333 0  3.436521739130435 0.08333333333333333 0  3.453043478260869 0.08333333333333333 0  3.469565217391304 0.08333333333333333 0  3.486086956521739 0.08333333333333333 0  3.502608695652174 0.08333333333333333 0  3.519130434782609 0.08333333333333333 0  3.535652173913043 0.08333333333333333 0  3.552173913043478 0.08333333333333333 0  3.568695652173913 0.08333333333333333 0  3.585217391304347 0.08333333333333333 0  3.601739130434782 0.08333333333333333 0  3.618260869565217 0.08333333333333333 0  3.634782608695652 0.08333333333333333 0  3.651304347826087 0.08333333333333333 0  3.667826086956521 0.08333333333333333 0  3.684347826086956 0.08333333333333333 0  3.700869565217391 0.08333333333333333 0  3.717391304347826 0.08333333333333333 0  3.733913043478261 0.08333333333333333 0  3.750434782608695 0.08333333333333333 0  3.766956521739131 0.08333333333333333 0  3.783478260869565 0.08333333333333333 0  3.8 0.08333333333333333 0  3.320869565217391 0.1 0  3.337391304347826 0.1 0  3.353913043478261 0.1 0  3.370434782608696 0.1 0  3.386956521739131 0.1 0  3.403478260869565 0.1 0  3.419999999999999 0.1 0  3.436521739130435 0.1 0  3.453043478260869 0.1 0  3.469565217391304 0.1 0  3.486086956521739 0.1 0  3.502608695652174 0.1 0  3.519130434782609 0.1 0  3.535652173913043 0.1 0  3.552173913043478 0.1 0  3.568695652173913 0.1 0  3.585217391304347 0.1 0  3.601739130434782 0.1 0  3.618260869565217 0.1 0  3.634782608695652 0.1 0  3.651304347826087 0.1 0  3.667826086956521 0.1 0  3.684347826086956 0.1 0  3.700869565217391 0.1 0  3.717391304347826 0.1 0  3.733913043478261 0.1 0  3.750434782608695 0.1 0  3.766956521739131 0.1 0  3.783478260869565 0.1 0  3.8 0.1 0  3.337391304347826 0.1166666666666667 0  3.353913043478261 0.1166666666666667 0  3.370434782608696 0.1166666666666667 0  3.386956521739131 0.1166666666666667 0  3.403478260869565 0.1166666666666667 0  3.419999999999999 0.1166666666666667 0  3.436521739130435 0.1166666666666667 0  3.453043478260869 0.1166666666666667 0  3.469565217391304 0.1166666666666667 0  3.486086956521739 0.1166666666666667 0  3.502608695652174 0.1166666666666667 0  3.519130434782609 0.1166666666666667 0  3.535652173913043 0.1166666666666667 0  3.552173913043478 0.1166666666666667 0  3.568695652173913 0.1166666666666667 0  3.585217391304347 0.1166666666666667 0  3.601739130434782 0.1166666666666667 0  3.618260869565217 0.1166666666666667 0  3.634782608695652 0.1166666666666667 0  3.651304347826087 0.1166666666666667 0  3.667826086956521 0.1166666666666667 0  3.684347826086956 0.1166666666666667 0  3.700869565217391 0.1166666666666667 0  3.717391304347826 0.1166666666666667 0  3.733913043478261 0.1166666666666667 0  3.750434782608695 0.1166666666666667 0  3.766956521739131 0.1166666666666667 0  3.783478260869565 0.1166666666666667 0  3.8 0.1166666666666667 0  3.353913043478261 0.1333333333333333 0  3.370434782608696 0.1333333333333333 0  3.386956521739131 0.1333333333333333 0  3.403478260869565 0.1333333333333333 0  3.419999999999999 0.1333333333333333 0  3.436521739130435 0.1333333333333333 0  3.453043478260869 0.1333333333333333 0  3.469565217391304 0.1333333333333333 0  3.486086956521739 0.1333333333333333 0  3.502608695652174 0.1333333333333333 0  3.519130434782609 0.1333333333333333 0  3.535652173913043 0.1333333333333333 0  3.552173913043478 0.1333333333333333 0  3.568695652173913 0.1333333333333333 0  3.585217391304347 0.1333333333333333 0  3.601739130434782 0.1333333333333333 0  3.618260869565217 0.1333333333333333 0  3.634782608695652 0.1333333333333333 0  3.651304347826087 0.1333333333333333 0  3.667826086956521 0.1333333333333333 0  3.684347826086956 0.1333333333333333 0  3.700869565217391 0.1333333333333333 0  3.717391304347826 0.13333333
[...]
<PointData  Vectors="Displacement"> 
<DataArray  type="Float64"  Name="Displacement"  NumberOfComponents="3" format="ascii">4.7308145514725206e-04 4.9328603199396640e-03 0.0000000000000000e+00  4.7470820388589570e-04 4.9671875232033926e-03 0.0000000000000000e+00  4.4041728136056914e-04 4.9667405132439637e-03 0.0000000000000000e+00  4.3907869274216238e-04 4.9323038728981009e-03 0.0000000000000000e+00  4.7600131493918371e-04 5.0016719831502575e-03 0.0000000000000000e+00  4.4151422549427955e-04 5.0013148880053947e-03 0.0000000000000000e+00  4.7702279031866627e-04 5.0362369342977290e-03 0.0000000000000000e+00  4.4241083671316502e-04 5.0359518555023021e-03 0.0000000000000000e+00  4.7782580403396340e-04 5.0708361953224800e-03 0.0000000000000000e+00  4.4314095368516547e-04 5.0706093474761115e-03 0.0000000000000000e+00  4.7845170783900428e-04 5.1054412011983449e-03 0.0000000000000000e+00  4.4373116775209932e-04 5.1052624839891822e-03 0.0000000000000000e+00  4.7893226013847592e-04 5.1400313154153342e-03 0.0000000000000000e+00  4.4420304072038849e-04 5.1398928061162042e-03 0.0000000000000000e+00  4.7929262616671167e-04 5.1745907548149759e-03 0.0000000000000000e+00  4.4457464418840866e-04 5.1744859021069130e-03 0.0000000000000000e+00  4.7955329508077554e-04 5.2091077764761040e-03 0.0000000000000000e+00  4.4486129047213323e-04 5.2090310969085006e-03 0.0000000000000000e+00  4.7973114133022319e-04 5.2435739842405515e-03 0.0000000000000000e+00  4.4507596010575029e-04 5.2435209013254238e-03 0.0000000000000000e+00  4.7984015145115607e-04 5.2779834952527077e-03 0.0000000000000000e+00  4.4522969213313136e-04 5.2779501739693511e-03 0.0000000000000000e+00  4.7989203646046420e-04 5.3123322388724655e-03 0.0000000000000000e+00  4.4533195807544773e-04 5.3123154215062342e-03 0.0000000000000000e+00  4.7989673017381665e-04 5.3466175193422321e-03 0.0000000000000000e+00  4.4539096445930679e-04 5.3466144007440755e-03 0.0000000000000000e+00  4.7986275493303260e-04 5.3808377544389370e-03 0.0000000000000000e+00  4.4541387223499904e-04 5.3808458988150462e-03 0.0000000000000000e+00  4.7979747853633264e-04 5.4149922874012152e-03 0.0000000000000000e+00  4.4540695556246788e-04 5.4150095710994743e-03 0.0000000000000000e+00  4.7970730157734844e-04 5.4490812281220357e-03 0.0000000000000000e+00  4.4537572438834854e-04 5.4491057953084069e-03 0.0000000000000000e+00  4.7959780290980137e-04 5.4831053200653044e-03 0.0000000000000000e+00  4.4532502383253246e-04 5.4831355462251121e-03 0.0000000000000000e+00  4.7947385681877517e-04 5.5170658344994468e-03 0.0000000000000000e+00  4.4525911596293802e-04 5.5171002964629484e-03 0.0000000000000000e+00  4.7933972994771817e-04 5.5509644866759498e-03 0.0000000000000000e+00  4.4518174869113058e-04 5.5510019374944023e-03 0.0000000000000000e+00  4.7919916541141897e-04 5.5848033677026523e-03 0.0000000000000000e+00  4.4509621697374504e-04 5.5848427141388041e-03 0.0000000000000000e+00  4.7905546094425915e-04 5.6185848894781407e-03 0.0000000000000000e+00  4.4500542091189637e-04 5.6186251701181239e-03 0.0000000000000000e+00  4.7891154598593956e-04 5.6523117440092328e-03 0.0000000000000000e+00  4.4491192375080890e-04 5.6523521067581642e-03 0.0000000000000000e+00  4.7877005953934779e-04 5.6859868811571044e-03 0.0000000000000000e+00  4.4481801057716472e-04 5.6860265598684279e-03 0.0000000000000000e+00  4.7863342677742510e-04 5.7196135102112024e-03 0.0000000000000000e+00  4.4472574584206506e-04 5.7196518013684639e-03 0.0000000000000000e+00  4.7850392803975444e-04 5.7531951303315329e-03 0.0000000000000000e+00  4.4463702495313933e-04 5.7532313719432654e-03 0.0000000000000000e+00  4.7838374953727088e-04 5.7867355923458983e-03 0.0000000000000000e+00  4.4455361256682142e-04 5.7867691483019018e-03 0.0000000000000000e+00  4.7827500127602335e-04 5.8202391895051169e-03 0.0000000000000000e+00  4.4447715837967616e-04 5.8202694433871355e-03 0.0000000000000000e+00  4.7817968474098789e-04 5.8537107675246808e-03 0.0000000000000000e+00  4.4440918060602291e-04 5.8537371301820877e-03 0.0000000000000000e+00  4.7809959094127389e-04 5.8871558340021510e-03 0.0000000000000000e+00  4.4435100838522757e-04 5.8871777691440301e-03 0.0000000000000000e+00  4.7803610881436820e-04 5.9205806323507472e-03 0.0000000000000000e+00  4.4430367759031112e-04 5.9205977043797755e-03 0.0000000000000000e+00  4.7798992562551700e-04 5.9539921215789734e-03 0.0000000000000000e+00  4.4426778021568219e-04 5.9540040715346035e-03 0.0000000000000000e+00  4.7796060770929742e-04 5.9873977607693861e-03 0.0000000000000000e+00  4.4424327467886476e-04 5.9874046250696870e-03 0.0000000000000000e+00  4.7794607023960242e-04 6.0208049124036303e-03 0.0000000000000000e+00  4.4422926644637671e-04 6.0208072323285709e-03 0.0000000000000000e+00  4.7794200654077701e-04 6.0542194994717864e-03 0.0000000000000000e+00  4.4422373832973615e-04 6.0542187718768906e-03 0.0000000000000000e+00  4.7794162120768995e-04 6.0876433221686375e-03 0.0000000000000000e+00  4.4422303666746945e-04 6.0876429197397460e-03 0.0000000000000000e+00  4.0669420499696160e-04 4.9664391499961817e-03 0.0000000000000000e+00  4.0750509573635760e-04 5.0010700722455236e-03 0.0000000000000000e+00  4.0819951133740508e-04 5.0357475491182553e-03 0.0000000000000000e+00  4.0879282012261104e-04 5.0704380211733738e-03 0.0000000000000000e+00  4.0929482756649443e-04 5.1051210797322059e-03 0.0000000000000000e+00  4.0971433424242317e-04 5.1397784594872610e-03 0.0000000000000000e+00  4.1006041429951620e-04 5.1743953410927444e-03 0.0000000000000000e+00  4.1034189906022985e-04 5.2089611319694230e-03 0.0000000000000000e+00  4.1056686894343518e-04 5.2434687344731692e-03 0.0000000000000000e+00  4.1074256833939998e-04 5.2779133805173151e-03 0.0000000000000000e+00  4.1087553652781572e-04 5.3122918270932760e-03 0.0000000000000000e+00  4.1097171906694650e-04 5.3466020195406623e-03 0.0000000000000000e+00  4.1103651432755986e-04 5.3808429255869095e-03 0.0000000000000000e+00  4.1107479548226089e-04 5.4150143833667412e-03 0.0000000000000000e+00  4.1109093779217510e-04 5.4491169456398706e-03 0.0000000000000000e+00  4.1108885258739976e-04 5.4831517487682561e-03 0.0000000000000000e+00  4.1107202002067594e-04 5.5171204151535829e-03 0.0000000000000000e+00  4.1104351854362572e-04 5.5510249764958485e-03 0.0000000000000000e+00  4.1100605406126176e-04 5.5848678078276063e-03 0.0000000000000000e+00  4.1096199244100410e-04 5.6186515700441869e-03 0.0000000000000000e+00  4.1091339782093500e-04 5.6523791639984918e-03 0.0000000000000000e+00  4.1086207743326760e-04 5.6860537021971372e-03 0.0000000000000000e+00  4.1080963152472459e-04 5.7196785058928352e-03 0.0000000000000000e+00  4.1075750455765378e-04 5.7532571352506019e-03 0.0000000000000000e+00  4.1070703181870393e-04 5.7867934573210267e-03 0.0000000000000000e+00  4.1065947436548950e-04 5.8202917509283750e-03 0.0000000000000000e+00  4.1061603512528770e-04 5.8537568396723211e-03 0.0000000000000000e+00  4.1057784991835263e-04 5.8871942340066328e-03 0.0000000000000000e+00  4.1054594882213366e-04 5.9206102503318080e-03 0.0000000000000000e+00  4.1052118401933494e-04 5.9540120588580936e-03 0.0000000000000000e+00  4.1050411543813010e-04 5.9874075931765454e-03 0.0000000000000000e+00  4.1049482349077602e-04 6.0208052374104678e-03 0.0000000000000000e+00  4.1049255187320652e-04 6.0542132107564628e-03 0.0000000000000000e+00  4.1049491059494381e-04 6.0876386653545972e-03 0.0000000000000000e+00  3.7379207464491640e-04 5.0009834597469311e-03 0.0000000000000000e+00  3.7425356564076747e-04 5.0356620222873558e-03 0.0000000000000000e+00  3.7468173692753031e-04 5.0703536829749879e-03 0.0000000000000000e+00  3.7506874389798428e-04 5.1050440047463591e-03 0.0000000000000000e+00  3.7541076688942009e-04 5.1397117662512941e-03 0.0000000000000000e+00  3.7570830157624340e-04 5.1743394501488696e-03 0.0000000000000000e+00  3.7596387196671253e-04 5.2089155153375579e-03 0.0000000000000000e+00  3.7618055228805122e-04 5.2434327935731119e-03 0.0000000000000000e+00  3.7636156214310336e-04 5.2778865012963003e-03 0.0000000000000000e+00  3.7651028727886165e-04 5.3122732309314035e-03 0.0000000000000000e+00  3.7663023649334583e-04 5.3465907692998070e-03 0.0000000000000000e+00  3.7672490348157682e-04 5.3808380217987952e-03 0.0000000000000000e+00  3.7679763706769748e-04 5.4150148473755336e-03 0.0000000000000000e+00  3.7685156771088274e-04 5.4491218578658360e-03 0.0000000000000000e+00  3.7688957456002959e-04 5.4831602632998524e-03 0.0000000000000000e+00  3.7691426594271908e-04 5.5171317721152127e-03 0.0000000000000000e+00  3.7692796467659559e-04 5.5510385142085493e-03 0.0000000000000000e+00  3.7693270093167578e-04 5.5848829699849892e-03 0.0000000000000000e+00  3.7693021690090396e-04 5.6186679036732568e-03 0.0000000000000000e+00  3.7692198614810497e-04 5.6523963056057808e-03 0.0000000000000000e+00  3.7690924892693894e-04 5.6860713507784913e-03 0.0000000000000000e+00  3.7689306256671515e-04 5.7196963833233234e-03 0.0000000000000000e+00  3.7687436317158078e-04 5.7532749369246221e-03 0.0000000000000000e+00  3.7685403235145271e-04 5.7868107979409588e-03 0.0000000000000000e+00  3.7683296108502614e-04 5.8203081118951170e-03 0.0000000000000000e+00  3.7681210201342985e-04 5.8537715261665069e-03 0.0000000000000000e+00  3.7679250106324654e-04 5.8872063525677951e-03 0.0000000000000000e+00  3.7677529855291826e-04 5.9206187233985953e-03 0.0000000000000000e+00  3.7676168700621188e-04 5.9540157054804674e-03 0.0000000000000000e+00  3.7675280390693641e-04 5.9874053336475223e-03 0.0000000000000000e+00  3.7674951607555963e-04 6.0207965407588753e-03 0.0000000000000000e+00  3.7675201043422851e-04 6.0541990291108939e-03 0.0000000000000000e+00  3.7675904641400139e-04 6.0876233452837785e-03 0.0000000000000000e+00  3.4043821087025716e-04 5.0357033667248188e-03 0.0000000000000000e+00  3.4070774462861592e-04 5.0703646017268072e-03 0.0000000000000000e+00  3.4097725403760981e-04 5.1050417027102635e-03 0.0000000000000000e+00  3.4123428121550471e-04 5.1397042513100736e-03 0.0000000000000000e+00  3.4147360054776149e-04 5.1743296027355404e-03 0.0000000000000000e+00  3.4169290669050701e-04 5.2089049152917906e-03 0.0000000000000000e+00  3.4189085261935611e-04 5.2434229789958351e-03 0.0000000000000000e+00  3.4206687020878662e-04 5.2778787346685887e-03 0.0000000000000000e+00  3.4222137686813883e-04 5.3122681442126750e-03 0.0000000000000000e+00  3.4235561554079371e-04 5.3465884587976763e-03 0.0000000000000000e+00  3.4247129872944993e-04 5.3808382905724175e-03 0.0000000000000000e+00  3.4257031815886448e-04 5.4150173794203392e-03 0.0000000000000000e+00  3.4265458782695363e-04 5.4491262907791754e-03 0.0000000000000000e+00  3.4272596255671217e-04 5.4831662216646322e-03 0.0000000000000000e+00  3.4278617358084147e-04 5.5171389042568079e-03 0.0000000000000000e+00  3.4283677019269798e-04 5.5510465296540650e-03 0.0000000000000000e+00  3.4287907525334580e-04 5.5848916668256709e-03 0.0000000000000000e+00  3.4291416163548071e-04 5.6186771787532985e-03 0.0000000000000000e+00  3.4294285384215973e-04 5.6524061434508168e-03 0.0000000000000000e+00  3.4296575744485996e-04 5.6860817887091032e-03 0.0000000000000000e+00  3.4298331617887951e-04 5.7197074531992629e-03 0.0000000000000000e+00  3.4299589223501874e-04 5.7532865881544720e-03 0.0000000000000000e+00  3.4300386146488032e-04 5.7868228098607397e-03 0.0000000000000000e+00  3.4300771265171080e-04 5.8203200062424965e-03 0.0000000000000000e+00  3.4300813819155781e-04 5.8537824931131520e-03 0.0000000000000000e+00  3.4300610187982633e-04 5.8872152076436266e-03 0.0000000000000000e+00  3.4300286762756172e-04 5.9206239188030309e-03 0.0000000000000000e+00  3.4299996986533916e-04 5.9540154301969536e-03 0.0000000000000000e+00  3.4299910034909549e-04 5.9873977565390287e-03 0.0000000000000000e+00  3.4300187591827569e-04 6.0207802833706593e-03 0.0000000000000000e+00  3.4300944172320914e-04 6.0541739960999937e-03 0.0000000000000000e+00  3.4302187877181643e-04 6.0875920431938228e-03 0.0000000000000000e+00  3.0678983998039662e-04 5.0704589616581922e-03 0.0000000000000000e+00  3.0695309268741937e-04 5.1051105442242442e-03 0.0000000000000000e+00  3.0713030284509684e-04 5.1397569385873603e-03 0.0000000000000000e+00  3.0731293871249127e-04 5.1743688095280890e-03 0.0000000000000000e+00  3.0749506898474757e-04 5.2089332253638749e-03 0.0000000000000000e+00  3.0767145909445530e-04 5.2434438097361050e-03 0.0000000000000000e+00  3.0783817333839404e-04 5.2778950895342154e-03 0.0000000000000000e+00  3.0799318858331504e-04 5.3122818000686618e-03 0.0000000000000000e+00  3.0813599237205689e-04 5.3466002791057966e-03 0.0000000000000000e+00  3.0826689265391034e-04 5.3808487006932904e-03 0.0000000000000000e+00  3.0838656085666440e-04 5.4150266288934172e-03 0.0000000000000000e+00  3.0849584292601159e-04 5.4491345187970917e-03 0.0000000000000000e+00  3.0859567279834719e-04 5.4831734832882758e-03 0.0000000000000000e+00  3.0868697870176662e-04 5.5171452291507038e-03 0.0000000000000000e+00  3.0877058368811432e-04 5.5510519883564310e-03 0.0000000000000000e+00  3.0884712378466953e-04 5.5848964210523143e-03 0.0000000000000000e+00  3.0891699625358382e-04 5.6186815050522478e-03 0.0000000000000000e+00  3.0898034433244633e-04 5.6524104243849535e-03 0.0000000000000000e+00  3.0903708373173640e-04 5.6860864667801934e-03 0.0000000000000000e+00  3.0908697218148145e-04 5.7197129476229680e-03 0.0000000000000000e+00  3.0912971621336271e-04 5.7532931818404642e-03 0.0000000000000000e+00  3.0916510355083536e-04 5.7868305192038368e-03 0.0000000000000000e+00  3.0919314589479676e-04 5.8203284498337211e-03 0.0000000000000000e+00  3.0921421419356207e-04 5.8537907789417750e-03 0.0000000000000000e+00  3.0922914598257857e-04 5.8872218625337759e-03 0.0000000000000000e+00  3.0923930263821993e-04 5.9206268884410430e-03 0.0000000000000000e+00  3.0924655353985577e-04 5.9540121837066105e-03 0.0000000000000000e+00  3.0925316378433733e-04 5.9873855367362453e-03 0.0000000000000000e+00  3.0926156357463240e-04 6.0207565492215705e-03 0.0000000000000000e+00  3.0927398808121975e-04 6.0541370904210147e-03 0.0000000000000000e+00  3.0929201806402171e-04 6.0875420280382727e-03 0.0000000000000000e+00  2.7293341474001739e-04 5.1052378433647187e-03 0.0000000000000000e+00  2.7304787105745691e-04 5.1398629327948017e-03 0.0000000000000000e+00  2.7318648456243377e-04 5.1744529770917551e-03 0.0000000000000000e+00  2.7333948507750604e-04 5.2089982421464473e-03 0.0000000000000000e+00  2.7349832686984478e-04 5.2434949370120769e-03 0.0000000000000000e+00  2.7365654645767045e-04 5.2779368479235573e-03 0.0000000000000000e+00  2.7381075323706710e-04 5.3123165164144582e-03 0.0000000000000000e+00  2.7395960694045774e-04 5.3466290467021130e-03 0.0000000000000000e+00  2.7410261938662757e-04 5.3808722338677985e-03 0.0000000000000000e+00  2.7423959228945995e-04 5.4150455663121901e-03 0.0000000000000000e+00  2.7437052615962907e-04 5.4491493843247200e-03 0.0000000000000000e+00  2.7449560758536525e-04 5.4831846606877626e-03 0.0000000000000000e+00  2.7461510208588079e-04 5.5171530468190065e-03 0.0000000000000000e+00  2.7472921130812961e-04 5.5510568222434907e-03 0.0000000000000000e+00  2.7483795179827902e-04 5.5848987720042631e-03 0.0000000000000000e+00  2.7494107371750569e-04 5.6186820382142320e-03 0.0000000000000000e+00  2.7503802777569404e-04 5.6524099633679529e-03 0.0000000000000000e+00  2.7512799062557507e-04 5.6860859333359862e-03 0.0000000000000000e+00  2.7520995293061945e-04 5.7197132458581120e-03 0.0000000000000000e+00  2.7528286205566455e-04 5.7532950384355701e-03 0.0000000000000000e+00  2.7534580292556732e-04 5.7868342981541553e-03 0.0000000000000000e+00  2.7539819639997907e-04 5.8203339639884876e-03 0.0000000000000000e+00  2.7543999110978484e-04 5.8537971245150814e-03 0.0000000000000000e+00  2.7547182134100563e-04 5.8872273069888919e-03 0.0000000000000000e+00  2.7549510254827250e-04 5.9206288442453401e-03 0.0000000000000000e+00  2.7551203852137413e-04 5.9540072996880754e-03 0.0000000000000000e+00  2.7552551974490200e-04 5.9873699347090387e-03 0.0000000000000000e+00  2.7553890225277437e-04 6.0207262214011020e-03 0.0000000000000000e+00  2.7555567611668800e-04 6.0540884372628639e-03 0.0000000000000000e+00  2.7557907547598400e-04 6.0874724195692440e-03 0.0000000000000000e+00  2.3893886398418168e-04 5.1400069485052517e-03 0.0000000000000000e+00  2.3906249365079308e-04 5.1745715495037647e-03 0.0000000000000000e+00  2.3920245474942463e-04 5.2090925322660258e-03 0.0000000000000000e+00  2.3935251638998741e-04 5.2435721255272589e-03 0.0000000000000000e+00  2.3950626622853827e-04 5.2780025258472498e-03 0.0000000000000000e+00  2.3966091526660786e-04 5.3123724299747859e-03 0.0000000000000000e+00  2.3981561713249603e-04 5.3466756861240312e-03 0.0000000000000000e+00  2.3996977454789393e-04 5.3809101884520101e-03 0.0000000000000000e+00  2.4012263709191539e-04 5.4150756893049865e-03 0.0000000000000000e+00  2.4027356942404863e-04 5.4491724488117364e-03 0.0000000000000000e+00  2.4042221770982441e-04 5.4832012279993009e-03 0.0000000000000000e+00  2.4056837568792739e-04 5.5171636102337579e-03 0.0000000000000000e+00  2.4071177776017078e-04 5.5510619648126494e-03 0.0000000000000000e+00  2.4085193064634632e-04 5.5848992774595319e-03 0.0000000000000000e+00  2.4098799769281279e-04 5.6186789507143130e-03 0.0000000000000000e+00  2.4111874307291135e-04 5.6524045882043053e-03 0.0000000000000000e+00  2.4124255581555126e-04 5.6860797597390175e-03 0.0000000000000000e+00  2.4135756335252128e-04 5.7197077886387022e-03 0.0000000000000000e+00  2.4146182224131800e-04 5.7532916169076081e-03 0.0000000000000000e+00  2.4155356259243223e-04 5.7868337786850504e-03 0.0000000000000000e+00  2.4163145920670434e-04 5.8203364952361886e-03 0.0000000000000000e+00  2.4169489833856619e-04 5.8538018989007972e-03 0.0000000000000000e+00  2.4174420390900379e-04 5.8872323870671969e-03 0.0000000000000000e+00  2.4178078677291402e-04 5.9206310920240255e-03 0.0000000000000000e+00  2.4180718706730980e-04 5.9540024397357226e-03 0.0000000000000000e+00  2.4182699066061035e-04 5.9873527692308427e-03 0.0000000000000000e+00  2.4184461557627570e-04 6.0206909946375576e-03 0.0000000000000000e+00  2.4186498611593584e-04 6.0540293078582977e-03 0.0000000000000000e+00  2.4189314717618606e-04 6.0873839267575561e-03 0.0000000000000000e+00  2.0494097313152935e-04 5.1747118216011233e-03 0.0000000000000000e+00  2.0507555504027468e-04 5.2092062323978198e-03 0.0000000000000000e+00  2.0522285423377055e-04 5.2436693458775430e-03 0.0000000000000000e+00  2.0537565955728907e-04 5.2780895299124478e-03 0.0000000000000000e+00  2.0553268301101561e-04 5.3124485674308870e-03 0.0000000000000000e+00  2.0569438589171539e-04 5.3467398487936748e-03 0.0000000000000000e+00  2.0586033032718120e-04 5.3809625467730274e-03 0.0000000000000000e+00  2.0602923519429667e-04 5.4151172894257487e-03 0.0000000000000000e+00  2.0619992608737390e-04 5.4492042125536362e-03 0.0000000000000000e+00  2.0637173249604305e-04 5.4832236953782998e-03 0.0000000000000000e+00  2.0654421633777058e-04 5.5171772539252713e-03 0.0000000000000000e+00  2.0671684643409763e-04 5.5510674345310273e-03 0.0000000000000000e+00  2.0688877149398701e-04 5.5848975514620558e-03 0.0000000000000000e+00  2.0705866110406197e-04 5.6186714242624546e-03 0.0000000000000000e+00  2.0722461510990411e-04 5.6523930901681441e-03 0.0000000000000000e+00  2.0738418246819519e-04 5.6860664568099510e-03 0.0000000000000000e+00  2.0753450899607990e-04 5.7196949704152542e-03 0.0000000000000000e+00  2.0767259210989968e-04 5.7532813938557187e-03 0.0000000000000000e+00  2.0779560854953312e-04 5.7868277297721676e-03 0.0000000000000000e+00  2.0790128140010474e-04 5.8203353010865735e-03 0.0000000000000000e+00  2.0798824736824076e-04 5.8538050026267939e-03 0.0000000000000000e+00  2.0805637596534116e-04 5.8872377334277231e-03 0.0000000000000000e+00  2.0810699268252771e-04 5.9206349920577737e-03 0.0000000000000000e+00  2.0814297006129781e-04 5.9539995936247741e-03 0.0000000000000000e+00  2.0816866733892661e-04 5.9873364606154765e-03 0.0000000000000000e+