<?xml version="1.0"?>
<VTKFile type="UnstructuredGrid"  version="0.1"  >
<UnstructuredGrid>
<Piece  NumberOfPoints="640" NumberOfCells="1175">
<Points>
<DataArray  type="Float64"  NumberOfComponents="3"  format="ascii">2.577391304347826 0 0  2.593913043478261 0 0  2.593913043478261 0.01666666666666667 0  2.577391304347826 0.01666666666666667 0  2.610434782608696 0 0  2.610434782608696 0.01666666666666667 0  2.62695652173913 0 0  2.62695652173913 0.01666666666666667 0  2.643478260869565 0 0  2.643478260869565 0.01666666666666667 0  2.66 0 0  2.66 0.01666666666666667 0  2.676521739130435 0 0  2.676521739130435 0.01666666666666667 0  2.693043478260869 0 0  2.693043478260869 0.01666666666666667 0  2.709565217391304 0 0  2.709565217391304 0.01666666666666667 0  2.726086956521739 0 0  2.726086956521739 0.01666666666666667 0  2.742608695652174 0 0  2.742608695652174 0.01666666666666667 0  2.759130434782609 0 0  2.759130434782609 0.01666666666666667 0  2.775652173913044 0 0  2.775652173913044 0.01666666666666667 0  2.792173913043478 0 0  2.792173913043478 0.01666666666666667 0  2.808695652173913 0 0  2.808695652173913 0.01666666666666667 0  2.825217391304347 0 0  2.825217391304347 0.01666666666666667 0  2.841739130434783 0 0  2.841739130434783 0.01666666666666667 0  2.858260869565217 0 0  2.858260869565217 0.01666666666666667 0  2.874782608695652 0 0  2.874782608695652 0.01666666666666667 0  2.891304347826087 0 0  2.891304347826087 0.01666666666666667 0  2.907826086956522 0 0  2.907826086956522 0.01666666666666667 0  2.924347826086957 0 0  2.924347826086957 0.01666666666666667 0  2.940869565217391 0 0  2.940869565217391 0.01666666666666667 0  2.957391304347826 0 0  2.957391304347826 0.01666666666666667 0  2.973913043478261 0 0  2.973913043478261 0.01666666666666667 0  2.593913043478261 0.03333333333333333 0  2.610434782608696 0.03333333333333333 0  2.62695652173913 0.03333333333333333 0  2.643478260869565 0.03333333333333333 0  2.66 0.03333333333333333 0  2.676521739130435 0.03333333333333333 0  2.693043478260869 0.03333333333333333 0  2.709565217391304 0.03333333333333333 0  2.726086956521739 0.03333333333333333 0  2.742608695652174 0.03333333333333333 0  2.759130434782609 0.03333333333333333 0  2.775652173913044 0.03333333333333333 0  2.792173913043478 0.03333333333333333 0  2.808695652173913 0.03333333333333333 0  2.825217391304347 0.03333333333333333 0  2.841739130434783 0.03333333333333333 0  2.858260869565217 0.03333333333333333 0  2.874782608695652 0.03333333333333333 0  2.891304347826087 0.03333333333333333 0  2.907826086956522 0.03333333333333333 0  2.924347826086957 0.03333333333333333 0  2.940869565217391 0.03333333333333333 0  2.957391304347826 0.03333333333333333 0  2.973913043478261 0.03333333333333333 0  2.610434782608696 0.05 0  2.62695652173913 0.05 0  2.643478260869565 0.05 0  2.66 0.05 0  2.676521739130435 0.05 0  2.693043478260869 0.05 0  2.709565217391304 0.05 0  2.726086956521739 0.05 0  2.742608695652174 0.05 0  2.759130434782609 0.05 0  2.775652173913044 0.05 0  2.792173913043478 0.05 0  2.808695652173913 0.05 0  2.825217391304347 0.05 0  2.841739130434783 0.05 0  2.858260869565217 0.05 0  2.874782608695652 0.05 0  2.891304347826087 0.05 0  2.907826086956522 0.05 0  2.924347826086957 0.05 0  2.940869565217391 0.05 0  2.957391304347826 0.05 0  2.973913043478261 0.05 0  2.990434782608696 0.05 0  2.62695652173913 0.06666666666666667 0  2.643478260869565 0.06666666666666667 0  2.66 0.06666666666666667 0  2.676521739130435 0.06666666666666667 0  2.693043478260869 0.06666666666666667 0  2.709565217391304 0.06666666666666667 0  2.726086956521739 0.06666666666666667 0  2.742608695652174 0.06666666666666667 0  2.759130434782609 0.06666666666666667 0  2.775652173913044 0.06666666666666667 0  2.792173913043478 0.06666666666666667 0  2.808695652173913 0.06666666666666667 0  2.825217391304347 0.06666666666666667 0  2.841739130434783 0.06666666666666667 0  2.858260869565217 0.06666666666666667 0  2.874782608695652 0.06666666666666667 0  2.891304347826087 0.06666666666666667 0  2.907826086956522 0.06666666666666667 0  2.924347826086957 0.06666666666666667 0  2.940869565217391 0.06666666666666667 0  2.957391304347826 0.06666666666666667 0  2.973913043478261 0.06666666666666667 0  2.990434782608696 0.06666666666666667 0  2.643478260869565 0.08333333333333333 0  2.66 0.08333333333333333 0  2.676521739130435 0.08333333333333333 0  2.693043478260869 0.08333333333333333 0  2.709565217391304 0.08333333333333333 0  2.726086956521739 0.08333333333333333 0  2.742608695652174 0.08333333333333333 0  2.759130434782609 0.08333333333333333 0  2.775652173913044 0.08333333333333333 0  2.792173913043478 0.08333333333333333 0  2.808695652173913 0.08333333333333333 0  2.825217391304347 0.08333333333333333 0  2.841739130434783 0.08333333333333333 0  2.858260869565217 0.08333333333333333 0  2.874782608695652 0.08333333333333333 0  2.891304347826087 0.08333333333333333 0  2.907826086956522 0.08333333333333333 0  2.924347826086957 0.08333333333333333 0  2.940869565217391 0.08333333333333333 0  2.957391304347826 0.08333333333333333 0  2.973913043478261 0.08333333333333333 0  2.990434782608696 0.08333333333333333 0  3.006956521739131 0.08333333333333333 0  2.66 0.1 0  2.676521739130435 0.1 0  2.693043478260869 0.1 0  2.709565217391304 0.1 0  2.726086956521739 0.1 0  2.742608695652174 0.1 0  2.759130434782609 0.1 0  2.775652173913044 0.1 0  2.792173913043478 0.1 0  2.808695652173913 0.1 0  2.825217391304347 0.1 0  2.841739130434783 0.1 0  2.858260869565217 0.1 0  2.874782608695652 0.1 0  2.891304347826087 0.1 0  2.907826086956522 0.1 0  2.924347826086957 0.1 0  2.940869565217391 0.1 0  2.957391304347826 0.1 0  2.973913043478261 0.1 0  2.990434782608696 0.1 0  3.006956521739131 0.1 0  2.676521739130435 0.1166666666666667 0  2.693043478260869 0.1166666666666667 0  2.709565217391304 0.1166666666666667 0  2.726086956521739 0.1166666666666667 0  2.742608695652174 0.1166666666666667 0  2.759130434782609 0.1166666666666667 0  2.775652173913044 0.1166666666666667 0  2.792173913043478 0.1166666666666667 0  2.808695652173913 0.1166666666666667 0  2.825217391304347 0.1166666666666667 0  2.841739130434783 0.1166666666666667 0  2.858260869565217 0.1166666666666667 0  2.874782608695652 0.1166666666666667 0  2.891304347826087 0.1166666666666667 0  2.907826086956522 0.1166666666666667 0  2.924347826086957 0.1166666666666667 0  2.940869565217391 0.1166666666666667 0  2.957391304347826 0.1166666666666667 0  2.973913043478261 0.1166666666666667 0  2.990434782608696 0.1166666666666667 0  3.006956521739131 0.1166666666666667 0  3.023478260869565 0.1166666666666667 0  2.693043478260869 0.1333333333333333 0  2.709565217391304 0.1333333333333333 0  2.726086956521739 0.1333333333333333 0  2.742608695652174 0.1333333333333333 0  2.759130434782609 0.1333333333333333 0  2.775652173913044 0.1333333333333333 0  2.792173913043478 0.1333333333333333 0  2.808695652173913 0.1333333333333333 0  2.825217391304347 0.1333333333333333 0  2.841739130434783 0.1333333333333333 0  2.858260869565217 0.1333333333333333 0  2.874782608695652 0.1333333333333333 0  2.891304347826087 0.1333333333333333 0  2.907826086956522 0.1333333333333333 0  2.924347826086957 0.1333333333333333 0  2.940869565217391 0.1333333333333333 0  2.957391304347826 0.1333333333333333 0  2.973913043478261 0.1333333333333333 0  2.990434782608696 0.1333333333333333 0  3.006956521739131 0.1333333333333333 0  3.023478260869565 0.1333333333333333 0  2.726086956521739 0.15 0  2.742608695652174 0.15 0  2.759130434782609 0.15 0  2.775652173913044 0.15 0  2.792173913043478 0.15 0  2.808695652173913 0.15 0  2.825217391304347 0.15 0  2.841739130434783 0.15 0  2.858260869565217 0.15 0  2.874782608695652 0.15 0  2.891304347826087 0.15 0  2.907826086956522 0.15 0  2.924347826086957 0.15 0  2.940869565217391 0.15 0  2.957391304347826 0.15 0  2.973913043478261 0.15 0  2.990434782608696 0.15 0  3.006956521739131 0.15 0  3.023478260869565 0.15 0  3.04 0.15 0  2.742608695652174 0.1666666666666667 0  2.759130434782609 0.1666666666666667 0  2.775652173913044 0.1666666666666667 0  2.792173913043478 0.1666666666666667 0  2.808695652173913 0.1666666666666667 0  2.825217391304347 0.1666666666666667 0  2.841739130434783 0.1666666666666667 0  2.858260869565217 0.1666666666666667 0  2.874782608695652 0.1666666666666667 0  2.891304347826087 0.1666666666666667 0  2.907826086956522 0.1666666666666667 0  2.924347826086957 0.1666666666666667 0  2.940869565217391 0.1666666666666667 0  2.957391304347826 0.1666666666666667 0  2.973913043478261 0.1666666666666667 0  2.990434782608696 0.1666666666666667 0  3.006956521739131 0.1666666666666667 0  3.023478260869565 0.1666666666666667 0  3.04 0.1666666666666667 0  3.056521739130435 0.1666666666666667 0  2.759130434782609 0.1833333333333333 0  2.775652173913044 0.1833333333333333 0  2.792173913043478 0.1833333333333333 0  2.808695652173913 0.1833333333333333 0  2.825217391304347 0.1833333333333333 0  2.841739130434783 0.1833333333333333 0  2.858260869565217 0.1833333333333333 0  2.874782608695652 0.1833333333333333 0  2.891304347826087 0.1833333333333333 0  2.907826086956522 0.1833333333333333 0  2.924347826086957 0.1833333333333333 0  2.940869565217391 0.1833333333333333 0  2.957391304347826 0.1833333333333333 0  2.973913043478261 0.1833333333333333 0  2.990434782608696 0.1833333333333333 0  3.006956521739131 0.1833333333333333 0  3.023478260869565 0.1833333333333333 0  3.04 0.1833333333333333 0  3.056521739130435 0.1833333333333333 0  3.073043478260869 0.1833333333333333 0  2.775652173913044 0.2 0  2.792173913043478 0.2 0  2.808695652173913 0.2 0  2.825217391304347 0.2 0  2.841739130434783 0.2 0  2.858260869565217 0.2 0  2.874782608695652 0.2 0  2.891304347826087 0.2 0  2.907826086956522 0.2 0  2.924347826086957 0.2 0  2.940869565217391 0.2 0  2.957391304347826 0.2 0  2.973913043478261 0.2 0  2.990434782608696 0.2 0  3.006956521739131 0.2 0  3.023478260869565 0.2 0  3.04 0.2 0  3.056521739130435 0.
[...]
<PointData  Vectors="Displacement"> 
<DataArray  type="Float64"  Name="Displacement"  NumberOfComponents="3" format="ascii">2.9738596779368650e-04 2.7054210626215459e-03 0.0000000000000000e+00  2.9864298765077963e-04 2.7280178147668865e-03 0.0000000000000000e+00  2.7564150641247567e-04 2.7276725720884617e-03 0.0000000000000000e+00  2.7492069253998039e-04 2.7050781994290892e-03 0.0000000000000000e+00  2.9986124040621019e-04 2.7511212585054571e-03 0.0000000000000000e+00  2.7640323364663019e-04 2.7507858283724283e-03 0.0000000000000000e+00  3.0103777669286821e-04 2.7746367791336005e-03 0.0000000000000000e+00  2.7718200997678920e-04 2.7743087557397768e-03 0.0000000000000000e+00  3.0217807863935854e-04 2.7985189381834258e-03 0.0000000000000000e+00  2.7796424296447521e-04 2.7981949861002903e-03 0.0000000000000000e+00  3.0328570743047377e-04 2.8227386423483728e-03 0.0000000000000000e+00  2.7875064401293161e-04 2.8224162445134051e-03 0.0000000000000000e+00  3.0435949515750796e-04 2.8472645472868243e-03 0.0000000000000000e+00  2.7954750578573241e-04 2.8469420110197987e-03 0.0000000000000000e+00  3.0539365695881297e-04 2.8720493380087544e-03 0.0000000000000000e+00  2.8036565610582443e-04 2.8717273529399036e-03 0.0000000000000000e+00  3.0638144308329704e-04 2.8970186163959116e-03 0.0000000000000000e+00  2.8121627242460223e-04 2.8966998111641172e-03 0.0000000000000000e+00  3.0732067593112176e-04 2.9220770154341569e-03 0.0000000000000000e+00  2.8210442625913924e-04 2.9217638599976677e-03 0.0000000000000000e+00  3.0821420462002818e-04 2.9471332754578286e-03 0.0000000000000000e+00  2.8302318237652255e-04 2.9468286455909226e-03 0.0000000000000000e+00  3.0906882544393669e-04 2.9721183079009588e-03 0.0000000000000000e+00  2.8395471001615064e-04 2.9718236569855039e-03 0.0000000000000000e+00  3.0989516305074497e-04 2.9969956163462099e-03 0.0000000000000000e+00  2.8488009315931500e-04 2.9967081645799060e-03 0.0000000000000000e+00  3.1070207498673649e-04 3.0217639386571553e-03 0.0000000000000000e+00  2.8578890380747844e-04 3.0214804968501890e-03 0.0000000000000000e+00  3.1149178960547449e-04 3.0464349041961921e-03 0.0000000000000000e+00  2.8668082600366102e-04 3.0461542670954219e-03 0.0000000000000000e+00  3.1226131443720315e-04 3.0710096161666407e-03 0.0000000000000000e+00  2.8756218893092808e-04 3.0707317756170313e-03 0.0000000000000000e+00  3.1300571968773214e-04 3.0954716362294092e-03 0.0000000000000000e+00  2.8844093268917215e-04 3.0951976295648070e-03 0.0000000000000000e+00  3.1372123719565546e-04 3.1197884551761928e-03 0.0000000000000000e+00  2.8932267959102474e-04 3.1195197429169587e-03 0.0000000000000000e+00  3.1440750177479820e-04 3.1439208366444643e-03 0.0000000000000000e+00  2.9020817983284910e-04 3.1436580084021615e-03 0.0000000000000000e+00  3.1506699984632723e-04 3.1678356135836101e-03 0.0000000000000000e+00  2.9109402505188579e-04 3.1675784418559528e-03 0.0000000000000000e+00  3.1570276645928033e-04 3.1915100391380056e-03 0.0000000000000000e+00  2.9197589326977009e-04 3.1912585535313186e-03 0.0000000000000000e+00  3.1631737383297129e-04 3.2149279217692133e-03 0.0000000000000000e+00  2.9285015461406942e-04 3.2146827396437464e-03 0.0000000000000000e+00  3.1691369950378350e-04 3.2380777248464825e-03 0.0000000000000000e+00  2.9371277613073407e-04 3.2378394332070637e-03 0.0000000000000000e+00  3.1749558187914214e-04 3.2609563829153702e-03 0.0000000000000000e+00  2.9455820855835493e-04 3.2607248334864248e-03 0.0000000000000000e+00  3.1806667735448363e-04 3.2835729919218504e-03 0.0000000000000000e+00  2.9538065097044225e-04 3.2833480169968234e-03 0.0000000000000000e+00  2.5269324821869615e-04 2.7274089977253595e-03 0.0000000000000000e+00  2.5303078123013598e-04 2.7505366512432122e-03 0.0000000000000000e+00  2.5344590796310871e-04 2.7740699571543936e-03 0.0000000000000000e+00  2.5386634913728397e-04 2.7979577107296242e-03 0.0000000000000000e+00  2.5430308234517229e-04 2.8221726343213255e-03 0.0000000000000000e+00  2.5477831992099800e-04 2.8466858382371046e-03 0.0000000000000000e+00  2.5532300276139816e-04 2.8714548439807267e-03 0.0000000000000000e+00  2.5598668184775733e-04 2.8964126832624793e-03 0.0000000000000000e+00  2.5680477094188505e-04 2.9214643030904329e-03 0.0000000000000000e+00  2.5775833520850908e-04 2.9465186815322239e-03 0.0000000000000000e+00  2.5880465057376880e-04 2.9715090053311528e-03 0.0000000000000000e+00  2.5988559565845595e-04 2.9963967832289575e-03 0.0000000000000000e+00  2.6092387735978539e-04 3.0211756072591614e-03 0.0000000000000000e+00  2.6190256057562021e-04 3.0458522696541644e-03 0.0000000000000000e+00  2.6286296056711250e-04 3.0704287543688908e-03 0.0000000000000000e+00  2.6384385005254516e-04 3.0948907763793318e-03 0.0000000000000000e+00  2.6487390068395054e-04 3.1192083367831977e-03 0.0000000000000000e+00  2.6596129506020332e-04 3.1433434441283854e-03 0.0000000000000000e+00  2.6708655498973959e-04 3.1672622439970991e-03 0.0000000000000000e+00  2.6822664080988361e-04 3.1909415199520294e-03 0.0000000000000000e+00  2.6937328529046622e-04 3.2143660163957582e-03 0.0000000000000000e+00  2.7052208099922928e-04 3.2375256318959837e-03 0.0000000000000000e+00  2.7165678647312225e-04 3.2604176482972135e-03 0.0000000000000000e+00  2.7275088205499284e-04 3.2830496686511311e-03 0.0000000000000000e+00  2.3161506338755417e-04 2.7513927652554138e-03 0.0000000000000000e+00  2.3183582573028198e-04 2.7748372098777112e-03 0.0000000000000000e+00  2.3207141102144654e-04 2.7986006664835468e-03 0.0000000000000000e+00  2.3234896742812156e-04 2.8226568554751384e-03 0.0000000000000000e+00  2.3269172733304642e-04 2.8469740527612194e-03 0.0000000000000000e+00  2.3312403321182137e-04 2.8715080702198469e-03 0.0000000000000000e+00  2.3366977816785515e-04 2.8961980076497394e-03 0.0000000000000000e+00  2.3434289172352961e-04 2.9209739719424184e-03 0.0000000000000000e+00  2.3513683565062866e-04 2.9457737125673056e-03 0.0000000000000000e+00  2.3602752625306221e-04 2.9705462114135274e-03 0.0000000000000000e+00  2.3698242216635548e-04 2.9952581648462935e-03 0.0000000000000000e+00  2.3797046207192480e-04 3.0198942245068766e-03 0.0000000000000000e+00  2.3897675252531142e-04 3.0444377021895705e-03 0.0000000000000000e+00  2.4000639926725071e-04 3.0688723082607414e-03 0.0000000000000000e+00  2.4107333941799999e-04 3.0931832609820595e-03 0.0000000000000000e+00  2.4218879820413604e-04 3.1173494212347265e-03 0.0000000000000000e+00  2.4335504447649706e-04 3.1413465433771568e-03 0.0000000000000000e+00  2.4456391124899759e-04 3.1651524172859680e-03 0.0000000000000000e+00  2.4580156164686923e-04 3.1887467944135568e-03 0.0000000000000000e+00  2.4705400863060960e-04 3.2121129972254850e-03 0.0000000000000000e+00  2.4830709891250863e-04 3.2352421620200199e-03 0.0000000000000000e+00  2.4954324387382686e-04 3.2581355277441220e-03 0.0000000000000000e+00  2.5074006705948595e-04 3.2808042268963394e-03 0.0000000000000000e+00  2.5187081708824132e-04 3.3032706147231145e-03 0.0000000000000000e+00  2.1039899853756200e-04 2.7756268350382493e-03 0.0000000000000000e+00  2.1043801782418315e-04 2.7992611417652414e-03 0.0000000000000000e+00  2.1055067746535502e-04 2.8231529472945577e-03 0.0000000000000000e+00  2.1075194584337735e-04 2.8472754268694025e-03 0.0000000000000000e+00  2.1105712921964948e-04 2.8715871486552909e-03 0.0000000000000000e+00  2.1147970596178676e-04 2.8960360099916285e-03 0.0000000000000000e+00  2.1202626738394504e-04 2.9205667785536364e-03 0.0000000000000000e+00  2.1269315748849478e-04 2.9451305129466567e-03 0.0000000000000000e+00  2.1346774408458887e-04 2.9696865293195552e-03 0.0000000000000000e+00  2.1433238636355152e-04 2.9942044430157056e-03 0.0000000000000000e+00  2.1527050285003395e-04 3.0186629483326972e-03 0.0000000000000000e+00  2.1627174533957991e-04 3.0430406788244093e-03 0.0000000000000000e+00  2.1733213184402361e-04 3.0673170823736855e-03 0.0000000000000000e+00  2.1845186322575372e-04 3.0914747018211102e-03 0.0000000000000000e+00  2.1963154397974680e-04 3.1154958813432204e-03 0.0000000000000000e+00  2.2086815830417168e-04 3.1393626300182491e-03 0.0000000000000000e+00  2.2215382942150991e-04 3.1630579666399234e-03 0.0000000000000000e+00  2.2347698745251552e-04 3.1865655209878437e-03 0.0000000000000000e+00  2.2482367065538019e-04 3.2098713511436732e-03 0.0000000000000000e+00  2.2617796621483946e-04 3.2329680296767252e-03 0.0000000000000000e+00  2.2752163380004145e-04 3.2558575138116786e-03 0.0000000000000000e+00  2.2883311486581405e-04 3.2785523437880220e-03 0.0000000000000000e+00  2.3008595765958457e-04 3.3010787790266733e-03 0.0000000000000000e+00  1.8888167118319172e-04 2.7999514435005962e-03 0.0000000000000000e+00  1.8884026261221305e-04 2.8236720305509946e-03 0.0000000000000000e+00  1.8890343474920975e-04 2.8476022975454651e-03 0.0000000000000000e+00  1.8908175745451183e-04 2.8717023122570712e-03 0.0000000000000000e+00  1.8938449089619239e-04 2.8959258909475585e-03 0.0000000000000000e+00  1.8981630441632213e-04 2.9202268391098343e-03 0.0000000000000000e+00  1.9037573295594605e-04 2.9445641751055774e-03 0.0000000000000000e+00  1.9105606450426849e-04 2.9689033604736233e-03 0.0000000000000000e+00  1.9184742266822627e-04 2.9932166180483490e-03 0.0000000000000000e+00  1.9273971019428127e-04 3.0174813826150653e-03 0.0000000000000000e+00  1.9372476704839698e-04 3.0416761930142011e-03 0.0000000000000000e+00  1.9479617945659686e-04 3.0657810741103121e-03 0.0000000000000000e+00  1.9594860331267558e-04 3.0897787064084539e-03 0.0000000000000000e+00  1.9717670732758748e-04 3.1136532693448785e-03 0.0000000000000000e+00  1.9847347645320370e-04 3.1373899776149052e-03 0.0000000000000000e+00  1.9982942226889991e-04 3.1609747644916059e-03 0.0000000000000000e+00  2.0123309382976049e-04 3.1843935563122998e-03 0.0000000000000000e+00  2.0267154033433888e-04 3.2076342558688851e-03 0.0000000000000000e+00  2.0413060470042579e-04 3.2306901014234248e-03 0.0000000000000000e+00  2.0559496741764921e-04 3.2535626464325609e-03 0.0000000000000000e+00  2.0704701021480797e-04 3.2762641829478354e-03 0.0000000000000000e+00  2.0846450145821325e-04 3.2988216926260073e-03 0.0000000000000000e+00  2.0981956019668527e-04 3.3212788006683289e-03 0.0000000000000000e+00  1.6717131092469403e-04 2.8242162045670383e-03 0.0000000000000000e+00  1.6710063691263529e-04 2.8479589909153557e-03 0.0000000000000000e+00  1.6715561925342528e-04 2.8718562063649393e-03 0.0000000000000000e+00  1.6734415845877037e-04 2.8958648699249829e-03 0.0000000000000000e+00  1.6767080110526280e-04 2.9199446701622996e-03 0.0000000000000000e+00  1.6813575950933742e-04 2.9440602756986567e-03 0.0000000000000000e+00  1.6873552114729458e-04 2.9681816968870935e-03 0.0000000000000000e+00  1.6946411652752060e-04 2.9922839187468010e-03 0.0000000000000000e+00  1.7031462455016492e-04 3.0163455985167480e-03 0.0000000000000000e+00  1.7128011696600988e-04 3.0403471210530028e-03 0.0000000000000000e+00  1.7235353359595617e-04 3.0642707269864428e-03 0.0000000000000000e+00  1.7352742932001599e-04 3.0881009104441618e-03 0.0000000000000000e+00  1.7479366400367804e-04 3.1118238705047231e-03 0.0000000000000000e+00  1.7614272611296292e-04 3.1354271680999420e-03 0.0000000000000000e+00  1.7756357819330294e-04 3.1588986070969060e-03 0.0000000000000000e+00  1.7904468224786598e-04 3.1822246631706577e-03 0.0000000000000000e+00  1.8057446311692821e-04 3.2053932084148470e-03 0.0000000000000000e+00  1.8214142467598888e-04 3.2283966473127665e-03 0.0000000000000000e+00  1.8373360559095957e-04 3.2512358414152030e-03 0.0000000000000000e+00  1.8533397668481699e-04 3.2739264710364125e-03 0.0000000000000000e+00  1.8690501873682599e-04 3.2965091198038348e-03 0.0000000000000000e+00  1.8836289825509736e-04 3.3190626709228245e-03 0.0000000000000000e+00  1.4529968873632477e-04 2.8483479966965861e-03 0.0000000000000000e+00  1.4523522703793580e-04 2.8720496165529079e-03 0.0000000000000000e+00  1.4531602366029545e-04 2.8958501422836408e-03 0.0000000000000000e+00  1.4554654277178707e-04 2.9197136830600144e-03 0.0000000000000000e+00  1.4592768925782870e-04 2.9436095816832903e-03 0.0000000000000000e+00  1.4645738548463874e-04 2.9675118901631293e-03 0.0000000000000000e+00  1.4713145983051321e-04 2.9913986524281451e-03 0.0000000000000000e+00  1.4794452075640298e-04 3.0152509105562074e-03 0.0000000000000000e+00  1.4889041123525493e-04 3.0390517531265937e-03 0.0000000000000000e+00  1.4996209928444838e-04 3.0627863394936017e-03 0.0000000000000000e+00  1.5115154617088643e-04 3.0864418066037197e-03 0.0000000000000000e+00  1.5244955813153820e-04 3.1100068337036125e-03 0.0000000000000000e+00  1.5384525354962921e-04 3.1334715549210367e-03 0.0000000000000000e+00  1.5532637309865216e-04 3.1568253645227421e-03 0.0000000000000000e+00  1.5688164164571946e-04 3.1800533665744734e-03 0.0000000000000000e+00  1.5850124278382876e-04 3.2031416274887689e-03 0.0000000000000000e+00  1.6017608105678310e-04 3.2260805909351590e-03 0.0000000000000000e+00  1.6189468171459549e-04 3.2488718718818926e-03 0.0000000000000000e+00  1.6362903015513879e-04 3.2715485941445517e-03 0.0000000000000000e+00  1.6528123749816101e-04 3.2942230542476135e-03 0.0000000000000000e+00  1.6653611192357900e-04 3.3171590087930029e-03 0.0000000000000000e+00  1.6625672123730720e-04 3.3415398334363839e-03 0.0000000000000000e+00  1.2327410373419415e-04 2.8722826294816390e-03 0.0000000000000000e+00  1.2325575046644646e-04 2.8958787319983839e-03 0.0000000000000000e+00  1.2340082148572205e-04 2.9195282659352177e-03 0.0000000000000000e+00  1.2370934359041825e-04 2.9432048718368627e-03 0.0000000000000000e+00  1.2417924137576194e-04 2.9668864647423351e-03 0.0000000000000000e+00  1.2480686470337811e-04 2.9905543192981624e-03 0.0000000000000000e+00  1.2558747833794437e-04 3.0141923140051406e-03 0.0000000000000000e+00  1.2651547074140785e-04 3.0377865414148437e-03 0.0000000000000000e+00  1.2758419393563746e-04 3.0613254035360233e-03 0.0000000000000000e+00  1.2878586516751857e-04 3.0847991094560393e-03 0.0000000000000000e+00  1.3011133091092258e-04 3.1081992877938728e-03 0.0000000000000000e+00  1.3154889978063045e-04 3.1315197087287590e-03 0.0000000000000000e+00  1.3308488101492841e-04 3.1547518089866961e-03 0.0000000000000000e+00  1.3470868049132942e-04 3.1778767614120372e-03 0.0000000000000000e+00  1.3641197075697881e-04 3.2008778058941752e-03 0.0000000000000000e+00  1.3818522215843781e-04 3.2237455014509351e-03 0.0000000000000000e+00  1.4000278886327271e-04 3.2464939707092500e-03 0.0000000000000000e+00  1.4176868536715218e-04 3.2692237320960603e-03 0.0000000000000000e+00  1.4313115784861112e-04 3.2923165126948623e-03 0.0000000000000000e+00  1.4290759522488981e-04 3.3168917690822577e-03 0.0000000000000000e+00  1.4271410517605415e-04 3.3413104053381408e-03 0.0000000000000000e+00  1.0119273279731931e-04 2.9193818874525463e-03 0.0000000000000000e+00  1.0144279972365176e-04 2.9428388957845773e-03 0.0000000000000000e+00  1.0186477368097803e-04 2.9662983219727033e-03 0.0000000000000000e+00  1.0245500526779328e-04 2.9897446469583379e-03 0.0000000000000000e+00  1.0320908166026008e-04 3.0131646224392499e-03 0.0000000000000000e+00  1.0412186545381341e-04 3.0365473084755690e-03 0.0000000000000000e+00  1.0518730536340479e-04 3.0598844641428805e-03 0.0000000000000000e+00  1.0639854630411658e-04 3.0831695028271703e-03 0.0000000000000000e+00  1.0774749031775628e-04 3.1063974731003500e-03 0.0000000000000000e+00  1.0922158051826653e-04 3.1295682146164710e-03 0.0000000000000000e+00  1.1080440393156984e-04 3.1526769688577081e-03 0.0000000000000000e+00  1.1248607198054461e-04 3.1756961353856705e-03 0.0000000000000000e+00  1.1425875365164859e-04 3.1986086480283683e-03 0.0000000000000000e+00  1.1609975537680961e-04 3.2214151705331159e-03 0.0000000000000000e+00  1.1792589836786037e-04 3.2441949498161426e-03 0.0000000000000000e+00  1.1937667167518455e-04 3.2673090529753476e-03 0.0000000000000000e+00  1.1911573346861195e-04 3.2921037512555185e-03 0.0000000000000000e+00  1.1896256607861044e-04 3.3167030655244819e-03 0.0000000000000000e+00  1.1882502521438836e-04 3.3411373372454296e-03 0.0000000000000000e+00  1.1874086395250458e-04 3.3653487258818730e-03 0.0000000000000000e+00  7.9096910359922242e-05 2.9425030880801469e-03 0.0000000000000000e+00  7.9484939190972457e-05 2.9657398099347124e-03 0.0000000000000000e+00  8.0048070031001157e-05 2.9889631103188230e-03 0.0000000000000000e+00  8.0782435826215435e-05 3.0121625339095156e-03 0.0000000000000000e+00  8.1683324204751584e-05 3.0353299259214318e-03 0.0000000000000000e+00  8.2745103813622732e-05 3.0584603596295161e-03 0.0000000000000000e+00  8.3962406536953414e-05 3.0815500156286405e-03 0.0000000000000000e+00  8.5329612972469816e-05 3.1045976359667924e-03 0.0000000000000000e+00  8.6832493901387736e-05 3.1276148740892571e-03 0.0000000000000000e+00  8.8447302004384542e-05 3.1506051126210404e-03 0.0000000000000000e+00  9.0164284868803649e-05 3.1735242700297655e-03 0.0000000000000000e+00  9.1961377587115691e-05 3.1963654976901665e-03 0.0000000000000000e+00  9.3763173721164952e-05 3.2191972556651518e-03 0.0000000000000000e+00  9.5213593600033857e-05 3.2423340908517171e-03 0.0000000000000000e+00  9.5009677037849623e-05 3.2671903432105959e-03 0.0000000000000000e+00  9.4875288327366108e-05 3.2919393348545402e-03 0.0000000000000000e+00  9.4763873398539297e-05 3.3165498430723088e-03 0.0000000000000000e+00  9.4692175326413077e-05 3.3410071245794522e-03 0.0000000000000000e+00  9.4665803790460544e-05 3.3652581507229778e-03 0.0000000000000000e+00  9.4685743092518581e-05 3.3892424649074582e-03 0.0000000000000000e+00  5.7019658379724637e-05 2.9652027884184656e-03 0.0000000000000000e+00  5.7566304226463809e-05 2.9882028912331404e-03 0.0000000000000000e+00  5.8288482666969823e-05 3.0111805672127304e-03 0.0000000000000000e+00  5.9181646593995924e-05 3.0341305218728807e-03 0.0000000000000000e+00  6.0239283923358779e-05 3.0570511795460715e-03 0.0000000000000000e+00  6.1457196449548460e-05 3.0799392551548437e-03 0.0000000000000000e+00  6.2835046762896619e-05 3.1027964497432896e-03 0.0000000000000000e+00  6.4354566569345395e-05 3.1256590084804926e-03 0.0000000000000000e+00  6.5975553351748609e-05 3.1485519048459849e-03 0.0000000000000000e+00  6.7677197402818534e-05 3.1713940942073868e-03 0.0000000000000000e+00  6.9393887949089166e-05 3.1942573806701632e-03 0.0000000000000000e+00  7.0778313808158772e-05 3.2174159319605777e-03 0.0000000000000000e+00  7.0656233996773830e-05 3.2422410451310203e-03 0.0000000000000000e+00  7.0548258456373670e-05 3.2670520882905037e-03 0.0000000000000000e+00  7.0455347395066329e-05 3.2917934383204033e-03 0.0000000000000000e+00  7.0391962696725517e-05 3.3164242321120068e-03 0.0000000000000000e+00  7.0356894258748976e-05 3.3409167674739028e-03 0.0000000000000000e+00  7.0355484911127189e-05 3.3652094473437424e-03 0.0000000000000000e+00  7.0402622925039196e-05 3.3892532754522422e-03 0.0000000000000000e+00  7.0545788274424328e-05 3.4129798895100412e-03 0.0000000000000000e+00  3.4997350470701204e-05 2.9874572243119108e-03 0.0000000000000000e+00  3.5715422233156438e-05 3.0102126290729855e-03 0.0000000000000000e+00  3.6607123993678989e-05 3.0329445873888755e-03 0.0000000000000000e+00  3.7662104255013571e-05 3.0556564409684236e-03 0.0000000000000000e+00  3.8874218638572607e-05 3.0783393047381503e-03 0.0000000000000000e+00  4.0250616538723818e-05 3.1009905154956944e-03 0.0000000000000000e+00  4.1768196178699761e-05 3.1237034412131526e-03 0.0000000000000000e+00  4.3340820767254239e-05 3.1465514845974117e-03 0.0000000000000000e+00  4.4930443580365614e-05 3.1694090914614220e-03 0.0000000000000000e+00  4.6208216619185861e-05 3.1925630401911580e-03 0.0000000000000000e+00  4.6139351785618898e-05 3.2173249871753724e-03 0.0000000000000000e+00  4.6060564670754988e-05 3.2421240560604079e-03 0.0000000000000000e+00  4.5983594124492215e-05 3.2669206701585224e-03 0.0000000000000000e+00  4.5922032110047773e-05 3.2916654779865263e-03 0.0000000000000000e+00  4.5876255314942330e-05 3.3163273618804228e-03 0.0000000000000000e+