<?xml version="1.0"?>
<VTKFile type="UnstructuredGrid"  version="0.1"  >
<UnstructuredGrid>
<Piece  NumberOfPoints="611" NumberOfCells="1123">
<Points>
<DataArray  type="Float64"  NumberOfComponents="3"  format="ascii">1.883478260869565 0.01666666666666667 0  1.9 0.01666666666666667 0  1.9 0.03333333333333333 0  1.883478260869565 0.03333333333333333 0  1.916521739130435 0.03333333333333333 0  1.9 0.05 0  1.883478260869565 0.05 0  1.916521739130435 0.05 0  1.933043478260869 0.05 0  1.9 0.06666666666666667 0  1.883478260869565 0.06666666666666667 0  1.916521739130435 0.06666666666666667 0  1.933043478260869 0.06666666666666667 0  1.949565217391304 0.06666666666666667 0  1.9 0.08333333333333333 0  1.883478260869565 0.08333333333333333 0  1.916521739130435 0.08333333333333333 0  1.933043478260869 0.08333333333333333 0  1.949565217391304 0.08333333333333333 0  1.966086956521739 0.08333333333333333 0  1.9 0.1 0  1.883478260869565 0.1 0  1.916521739130435 0.1 0  1.933043478260869 0.1 0  1.949565217391304 0.1 0  1.966086956521739 0.1 0  1.982608695652174 0.1 0  1.9 0.1166666666666667 0  1.883478260869565 0.1166666666666667 0  1.916521739130435 0.1166666666666667 0  1.933043478260869 0.1166666666666667 0  1.949565217391304 0.1166666666666667 0  1.966086956521739 0.1166666666666667 0  1.982608695652174 0.1166666666666667 0  1.999130434782608 0.1166666666666667 0  1.9 0.1333333333333333 0  1.883478260869565 0.1333333333333333 0  1.916521739130435 0.1333333333333333 0  1.933043478260869 0.1333333333333333 0  1.949565217391304 0.1333333333333333 0  1.966086956521739 0.1333333333333333 0  1.982608695652174 0.1333333333333333 0  1.999130434782608 0.1333333333333333 0  2.015652173913043 0.1166666666666667 0  2.015652173913043 0.1333333333333333 0  2.032173913043478 0.1166666666666667 0  2.032173913043478 0.1333333333333333 0  2.048695652173913 0.1166666666666667 0  2.048695652173913 0.1333333333333333 0  2.065217391304348 0.1166666666666667 0  2.065217391304348 0.1333333333333333 0  2.081739130434782 0.1166666666666667 0  2.081739130434782 0.1333333333333333 0  2.098260869565217 0.1333333333333333 0  1.9 0.15 0  1.883478260869565 0.15 0  1.916521739130435 0.15 0  1.933043478260869 0.15 0  1.949565217391304 0.15 0  1.966086956521739 0.15 0  1.982608695652174 0.15 0  1.999130434782608 0.15 0  2.015652173913043 0.15 0  2.032173913043478 0.15 0  2.048695652173913 0.15 0  2.065217391304348 0.15 0  2.081739130434782 0.15 0  2.098260869565217 0.15 0  2.114782608695652 0.15 0  1.9 0.1666666666666667 0  1.883478260869565 0.1666666666666667 0  1.916521739130435 0.1666666666666667 0  1.933043478260869 0.1666666666666667 0  1.949565217391304 0.1666666666666667 0  1.966086956521739 0.1666666666666667 0  1.982608695652174 0.1666666666666667 0  1.999130434782608 0.1666666666666667 0  2.015652173913043 0.1666666666666667 0  2.032173913043478 0.1666666666666667 0  2.048695652173913 0.1666666666666667 0  2.065217391304348 0.1666666666666667 0  2.081739130434782 0.1666666666666667 0  2.098260869565217 0.1666666666666667 0  2.114782608695652 0.1666666666666667 0  2.131304347826087 0.1666666666666667 0  1.9 0.1833333333333333 0  1.883478260869565 0.1833333333333333 0  1.916521739130435 0.1833333333333333 0  1.933043478260869 0.1833333333333333 0  1.949565217391304 0.1833333333333333 0  1.966086956521739 0.1833333333333333 0  1.982608695652174 0.1833333333333333 0  1.999130434782608 0.1833333333333333 0  2.015652173913043 0.1833333333333333 0  2.032173913043478 0.1833333333333333 0  2.048695652173913 0.1833333333333333 0  2.065217391304348 0.1833333333333333 0  2.081739130434782 0.1833333333333333 0  2.098260869565217 0.1833333333333333 0  2.114782608695652 0.1833333333333333 0  2.131304347826087 0.1833333333333333 0  2.147826086956522 0.1833333333333333 0  1.9 0.2 0  1.883478260869565 0.2 0  1.916521739130435 0.2 0  1.933043478260869 0.2 0  1.949565217391304 0.2 0  1.966086956521739 0.2 0  1.982608695652174 0.2 0  1.999130434782608 0.2 0  2.015652173913043 0.2 0  2.032173913043478 0.2 0  2.048695652173913 0.2 0  2.065217391304348 0.2 0  2.081739130434782 0.2 0  2.098260869565217 0.2 0  2.114782608695652 0.2 0  2.131304347826087 0.2 0  2.147826086956522 0.2 0  2.164347826086956 0.2 0  1.9 0.2166666666666667 0  1.883478260869565 0.2166666666666667 0  1.916521739130435 0.2166666666666667 0  1.933043478260869 0.2166666666666667 0  1.949565217391304 0.2166666666666667 0  1.966086956521739 0.2166666666666667 0  1.982608695652174 0.2166666666666667 0  1.999130434782608 0.2166666666666667 0  2.015652173913043 0.2166666666666667 0  2.032173913043478 0.2166666666666667 0  2.048695652173913 0.2166666666666667 0  2.065217391304348 0.2166666666666667 0  2.081739130434782 0.2166666666666667 0  2.098260869565217 0.2166666666666667 0  2.114782608695652 0.2166666666666667 0  2.131304347826087 0.2166666666666667 0  2.147826086956522 0.2166666666666667 0  2.164347826086956 0.2166666666666667 0  2.180869565217391 0.2166666666666667 0  1.9 0.2333333333333333 0  1.883478260869565 0.2333333333333333 0  1.916521739130435 0.2333333333333333 0  1.933043478260869 0.2333333333333333 0  1.949565217391304 0.2333333333333333 0  1.966086956521739 0.2333333333333333 0  1.982608695652174 0.2333333333333333 0  1.999130434782608 0.2333333333333333 0  2.015652173913043 0.2333333333333333 0  2.032173913043478 0.2333333333333333 0  2.048695652173913 0.2333333333333333 0  2.065217391304348 0.2333333333333333 0  2.081739130434782 0.2333333333333333 0  2.098260869565217 0.2333333333333333 0  2.114782608695652 0.2333333333333333 0  2.131304347826087 0.2333333333333333 0  2.147826086956522 0.2333333333333333 0  2.164347826086956 0.2333333333333333 0  2.180869565217391 0.2333333333333333 0  2.197391304347826 0.2333333333333333 0  1.9 0.25 0  1.916521739130435 0.25 0  1.933043478260869 0.25 0  1.949565217391304 0.25 0  1.966086956521739 0.25 0  1.982608695652174 0.25 0  1.999130434782608 0.25 0  2.015652173913043 0.25 0  2.032173913043478 0.25 0  2.048695652173913 0.25 0  2.065217391304348 0.25 0  2.081739130434782 0.25 0  2.098260869565217 0.25 0  2.114782608695652 0.25 0  2.131304347826087 0.25 0  2.147826086956522 0.25 0  2.164347826086956 0.25 0  2.180869565217391 0.25 0  2.197391304347826 0.25 0  2.213913043478261 0.25 0  1.916521739130435 0.2666666666666667 0  1.9 0.2666666666666667 0  1.933043478260869 0.2666666666666667 0  1.949565217391304 0.2666666666666667 0  1.966086956521739 0.2666666666666667 0  1.982608695652174 0.2666666666666667 0  1.999130434782608 0.2666666666666667 0  2.015652173913043 0.2666666666666667 0  2.032173913043478 0.2666666666666667 0  2.048695652173913 0.2666666666666667 0  2.065217391304348 0.2666666666666667 0  2.081739130434782 0.2666666666666667 0  2.098260869565217 0.2666666666666667 0  2.114782608695652 0.2666666666666667 0  2.131304347826087 0.2666666666666667 0  2.147826086956522 0.2666666666666667 0  2.164347826086956 0.2666666666666667 0  2.180869565217391 0.2666666666666667 0  2.197391304347826 0.2666666666666667 0  2.213913043478261 0.2666666666666667 0  2.230434782608695 0.25 0  2.230434782608695 0.2666666666666667 0  2.24695652173913 0.2666666666666667 0  1.916521739130435 0.2833333333333333 0  1.9 0.2833333333333333 0  1.933043478260869 0.2833333333333333 0  1.949565217391304 0.2833333333333333 0  1.966086956521739 0.2833333333333333 0  1.982608695652174 0.2833333333333333 0  1.999130434782608 0.2833333333333333 0  2.015652173913043 0.2833333333333333 0  2.032173913043478 0.2833333333333333 0  2.048695652173913 0.2833333333333333 0  2.065217391304348 0.2833333333333333 0  2.081739130434782 0.2833333333333333 0  2.098260869565217 0.2833333333333333 0  2.114782608695652 0.2833333333333333 0  2.131304347826087 0.2833333333333333 0  2.147826086956522 0.2833333333333333 0  2.164347826086956 0.2833333333333333 0  2.180869565217391 0.2833333333333333 0  2.197391304347826 0.2833333333333333 0  2.213913043478261 0.2833333333333333 0  2.230434782608695 0.2833333333333333 0  2.24695652173913 0.2833333333333333 0  2.263478260869565 0.2833333333333333 0  1.916521739130435 0.3 0  1.9 0.3 0  1.933043478260869 0.3 0  1.949565217391304 0.3 0  1.966086956521739 0.3 0  1.982608695652174 0.3 0  1.999130434782608 0.3 0  2.015652173913043 0.3 0  2.032173913043478 0.3 0  2.048695652173913 0.3 0  2.065217391304348 0.3 0  2.081739130434782 0.3 0  2.098260869565217 0.3 0  2.114782608695652 0.3 0  2.131304347826087 0.3 0  2.147826086956522 0.3 0  2.164347826086956 0.3 0  2.180869565217391 0.3 0  2.197391304347826 0.3 0  2.213913043478261 0.3 0  2.230434782608695 0.3 0  2.24695652173913 0.3 0  2.263478260869565 0.3 0  2.28 0.3 0  1.916521739130435 0.3166666666666667 0  1.9 0.3166666666666667 0  1.933043478260869 0.3166666666666667 0  1.949565217391304 0.3166666666666667 0  1.966086956521739 0.3166666666666667 0  1.982608695652174 0.3166666666666667 0  1.999130434782608 0.3166666666666667 0  2.015652173913043 0.3166666666666667 0  2.032173913043478 0.3166666666666667 0  2.048695652173913 0.3166666666666667 0  2.065217391304348 0.3166666666666667 0  2.081739130434782 0.3166666666666667 0  2.098260869565217 0.3166666666666667 0  2.114782608695652 0.3166666666666667 0  2.131304347826087 0.3166666666666667 0  2.147826086956522 0.3166666666666667 0  2.164347826086956 0.3166666666666667 0  2.180869565217391 0.3166666666666667 0  2.197391304347826 0.3166666666666667 0  2.213913043478261 0.3166666666666667 0  2.230434782608695 0.3166666666666667 0  2.24695652173913 0.3166666666666667 0  2.263478260869565 0.3166666666666667 0  2.28 0.3166666666666667 0  2.296521739130434 0.3166666666666667 0  1.916521739130435 0.3333333333333333 0  1.9 0.3333333333333333 0  1.933043478260869 0.3333333333333333 0  1.949565217391304 0.3333333333333333 0  1.966086956521739 0.3333333333333333 0  1.982608695652174 0.3333333333333333 0  1.999130434782608 0.3333333333333333 0  2.015652173913043 0.3333333333333333 0  2.032173913043478 0.3333333333333333 0  2.048695652173913 0.3333333333333333 0  2.06521739
[...]
<CellData  Scalars="sigma_m"> 
<DataArray  type="Float64"  Name="sigma_m"  format="ascii">7.1437745393592268e+06   6.2315897450990453e+06   5.8259212579596890e+06   1.6905077566993002e-03   9.0683141094600648e-07   2.8634753394544592e-03   7.3915111648042181e-07   6.9255137615580870e-07   0.0000000000000000e+00   0.0000000000000000e+00   0.0000000000000000e+00   0.0000000000000000e+00   0.0000000000000000e+00   0.0000000000000000e+00   0.0000000000000000e+00   0.0000000000000000e+00   0.0000000000000000e+00   0.0000000000000000e+00   0.0000000000000000e+00   0.0000000000000000e+00   0.0000000000000000e+00   0.0000000000000000e+00   0.0000000000000000e+00   0.0000000000000000e+00   0.0000000000000000e+00   0.0000000000000000e+00   0.0000000000000000e+00   0.0000000000000000e+00   0.0000000000000000e+00   0.0000000000000000e+00   0.0000000000000000e+00   0.0000000000000000e+00   0.0000000000000000e+00   0.0000000000000000e+00   0.0000000000000000e+00   0.0000000000000000e+00   0.0000000000000000e+00   0.0000000000000000e+00   0.0000000000000000e+00   0.0000000000000000e+00   0.0000000000000000e+00   0.0000000000000000e+00   0.0000000000000000e+00   0.0000000000000000e+00   0.0000000000000000e+00   0.0000000000000000e+00   0.0000000000000000e+00   0.0000000000000000e+00   0.0000000000000000e+00   1.4304401919162726e-07   0.0000000000000000e+00   0.0000000000000000e+00   0.0000000000000000e+00   0.0000000000000000e+00   0.0000000000000000e+00   0.0000000000000000e+00   0.0000000000000000e+00   0.0000000000000000e+00   0.0000000000000000e+00   0.0000000000000000e+00   0.0000000000000000e+00   0.0000000000000000e+00   0.0000000000000000e+00   0.0000000000000000e+00   0.0000000000000000e+00   0.0000000000000000e+00   0.0000000000000000e+00   0.0000000000000000e+00   0.0000000000000000e+00   0.0000000000000000e+00   0.0000000000000000e+00   0.0000000000000000e+00   0.0000000000000000e+00   4.5673030386252774e-03   3.5653793308803753e+04   0.0000000000000000e+00   1.6765784293902046e-04   0.0000000000000000e+00   0.0000000000000000e+00   0.0000000000000000e+00   0.0000000000000000e+00   0.0000000000000000e+00   0.0000000000000000e+00   0.0000000000000000e+00   0.0000000000000000e+00   0.0000000000000000e+00   0.0000000000000000e+00   0.0000000000000000e+00   0.0000000000000000e+00   0.0000000000000000e+00   0.0000000000000000e+00   0.0000000000000000e+00   0.0000000000000000e+00   0.0000000000000000e+00   0.0000000000000000e+00   0.0000000000000000e+00   0.0000000000000000e+00   0.0000000000000000e+00   0.0000000000000000e+00   0.0000000000000000e+00   2.1306088466785820e+06   2.5909334553683060e+06   2.2215668598730275e+01   2.0271184359306013e+06   2.7080962769671185e-09   9.4573229966494576e-01   0.0000000000000000e+00   0.0000000000000000e+00   0.0000000000000000e+00   0.0000000000000000e+00   0.0000000000000000e+00   0.0000000000000000e+00   0.0000000000000000e+00   0.0000000000000000e+00   0.0000000000000000e+00   0.0000000000000000e+00   0.0000000000000000e+00   0.0000000000000000e+00   0.0000000000000000e+00   0.0000000000000000e+00   0.0000000000000000e+00   0.0000000000000000e+00   0.0000000000000000e+00   0.0000000000000000e+00   0.0000000000000000e+00   0.0000000000000000e+00   0.0000000000000000e+00   0.0000000000000000e+00   0.0000000000000000e+00   2.2320419743342097e+06   2.2873012543688416e+06   2.4506201574046062e+06   2.6043479635288315e+06   5.1198210425552475e+04   2.0431019515476364e+06   8.6812264997483804e-06   1.5325187611291371e+03   0.0000000000000000e+00   2.1657032392836880e-07   0.0000000000000000e+00   0.0000000000000000e+00   0.0000000000000000e+00   0.0000000000000000e+00   0.0000000000000000e+00   0.0000000000000000e+00   0.0000000000000000e+00   0.0000000000000000e+00   0.0000000000000000e+00   0.0000000000000000e+00   0.0000000000000000e+00   0.0000000000000000e+00   0.0000000000000000e+00   0.0000000000000000e+00   0.0000000000000000e+00   0.0000000000000000e+00   0.0000000000000000e+00   0.0000000000000000e+00   0.0000000000000000e+00   0.0000000000000000e+00   0.0000000000000000e+00   1.8997685787073856e+06   1.9746078572196329e+06   2.2204415451842947e+06   2.2191456387776318e+06   2.0343996143222582e+06   1.9633461682088305e+06   6.4287183822768950e+05   1.4915187882228231e+06   1.1111896785092994e-02   6.4494499502338796e+04   0.0000000000000000e+00   2.0558377005983555e-04   0.0000000000000000e+00   0.0000000000000000e+00   0.0000000000000000e+00   0.0000000000000000e+00   0.0000000000000000e+00   0.0000000000000000e+00   0.0000000000000000e+00   0.0000000000000000e+00   0.0000000000000000e+00   0.0000000000000000e+00   0.0000000000000000e+00   0.0000000000000000e+00   0.0000000000000000e+00   0.0000000000000000e+00   0.0000000000000000e+00   0.0000000000000000e+00   0.0000000000000000e+00   0.0000000000000000e+00   0.0000000000000000e+00   0.0000000000000000e+00   0.0000000000000000e+00   1.9196007667028869e+06   4.7079378517495097e+04   2.5184752724013464e+06   2.3191090968965436e+06   2.2299184228500444e+06   2.1769771307501667e+06   1.9718728981892446e+06   1.9687156182542825e+06   1.5868681520206013e+06   1.8468555727563829e+06   1.5337531729165903e+01   1.1957309974055022e+06   6.0070741697412118e-10   4.3707704978099360e-01   0.0000000000000000e+00   0.0000000000000000e+00   0.0000000000000000e+00   0.0000000000000000e+00   0.0000000000000000e+00   0.0000000000000000e+00   0.0000000000000000e+00   0.0000000000000000e+00   0.0000000000000000e+00   0.0000000000000000e+00   0.0000000000000000e+00   0.0000000000000000e+00   0.0000000000000000e+00   0.0000000000000000e+00   0.0000000000000000e+00   0.0000000000000000e+00   0.0000000000000000e+00   0.0000000000000000e+00   0.0000000000000000e+00   0.0000000000000000e+00   0.0000000000000000e+00   7.7557696658077169e-01   0.0000000000000000e+00   1.7990631539477969e+06   4.0565486972038535e+01   2.3130504301311327e+06   1.9720225244400473e+06   2.1705762975404263e+06   2.1438843944968963e+06   2.1084113284509820e+06   2.1318122289509126e+06   1.8405749517379301e+06   1.9538249859912023e+06   3.5887253491430485e+04   1.0328751565485030e+06   1.3980622053732062e-05   1.6967644390289186e+03   0.0000000000000000e+00   5.6887196013500742e-07   0.0000000000000000e+00   0.0000000000000000e+00   0.0000000000000000e+00   0.0000000000000000e+00   0.0000000000000000e+00   0.0000000000000000e+00   0.0000000000000000e+00   0.0000000000000000e+00   0.0000000000000000e+00   0.0000000000000000e+00   0.0000000000000000e+00   0.0000000000000000e+00   0.0000000000000000e+00   0.0000000000000000e+00   0.0000000000000000e+00   0.0000000000000000e+00   0.0000000000000000e+00   0.0000000000000000e+00   0.0000000000000000e+00   0.0000000000000000e+00   8.7411234354038236e-04   0.0000000000000000e+00   9.7598349011984712e+04   4.5086081704116758e-02   2.0183514625659871e+06   7.0245886311836366e+05   2.3655726495733727e+06   2.4644657065425753e+06   2.2862830627674572e+06   2.2634538029612736e+06   1.6056528663785344e+06   1.5597257733685162e+06   3.9480616698942811e+05   7.8421096236038906e+05   9.4164690694486186e-02   6.9600607599030482e+04   0.0000000000000000e+00   2.2826104136162337e-03   0.0000000000000000e+00   0.0000000000000000e+00   0.0000000000000000e+00   0.0000000000000000e+00   0.0000000000000000e+00   0.0000000000000000e+00   0.0000000000000000e+00   0.0000000000000000e+00   0.0000000000000000e+00   0.0000000000000000e+00   0.0000000000000000e+00   0.0000000000000000e+00   0.0000000000000000e+00   0.0000000000000000e+00   0.0000000000000000e+00   0.0000000000000000e+00   0.0000000000000000e+00   0.0000000000000000e+00   0.0000000000000000e+00   0.0000000000000000e+00   0.0000000000000000e+00   3.7925130029869724e-07   0.0000000000000000e+00   1.9845958885357525e+03   1.0027534399550840e-05   2.9384311994844223e+06   3.5026765048348585e+04   3.3073689862327725e+06   3.0136400909894523e+06   2.4841465551520251e+06   2.4023061874834634e+06   1.7940959553732411e+06   1.7293149942606988e+06   9.2777003147619043e+05   1.0365548824296161e+06   9.2570162095223921e+01   3.5182997505587799e+05   1.6107092862419419e-09   1.5165077801381697e+00   0.0000000000000000e+00   0.0000000000000000e+00   0.0000000000000000e+00   0.0000000000000000e+00   0.0000000000000000e+00   0.0000000000000000e+00   0.0000000000000000e+00   0.0000000000000000e+00   0.0000000000000000e+00   0.0000000000000000e+00   0.0000000000000000e+00   0.0000000000000000e+00   0.0000000000000000e+00   0.0000000000000000e+00   0.0000000000000000e+00   0.0000000000000000e+00   0.0000000000000000e+00   0.0000000000000000e+00   0.0000000000000000e+00   0.0000000000000000e+00   0.0000000000000000e+00   0.0000000000000000e+00   0.0000000000000000e+00   0.0000000000000000e+00   0.0000000000000000e+00   0.0000000000000000e+00   0.0000000000000000e+00   2.2117318517481840e-01   0.0000000000000000e+00   1.8113640333721649e+06   4.7669973503241403e+00   3.2329499158396022e+06   2.3211531269738623e+06   2.6503153338623545e+06   2.5782347656212538e+06   2.0426283295495852e+06   1.9844849256319727e+06   1.1215298235693232e+06   1.1574531752777707e+06   3.3663694840126525e+04   5.5652988769393286e+05   3.4316794385083018e-06   8.6352647173774619e+02   0.0000000000000000e+00   9.5392924553802054e-08   0.0000000000000000e+00   0.0000000000000000e+00   0.0000000000000000e+00   0.0000000000000000e+00   0.0000000000000000e+00   0.0000000000000000e+00   0.0000000000000000e+00   0.0000000000000000e+00   0.0000000000000000e+00   0.0000000000000000e+00   0.0000000000000000e+00   0.0000000000000000e+00   0.0000000000000000e+00   0.0000000000000000e+00   0.0000000000000000e+00   0.0000000000000000e+00   0.0000000000000000e+00   0.0000000000000000e+00   0.0000000000000000e+00   0.0000000000000000e+00   0.0000000000000000e+00   0.0000000000000000e+00   0.0000000000000000e+00   0.0000000000000000e+00   0.0000000000000000e+00   0.0000000000000000e+00   0.0000000000000000e+00   1.9630277442235022e-05   0.0000000000000000e+00   4.4865100554433768e+04   7.7717714390586421e-04   3.1820164098690017e+06   1.4276789997962520e+06   3.0322505432494036e+06   3.0836285398870572e+06   2.3273659011215763e+06   2.2686653579656342e+06   1.2071225113972374e+06   1.2304977766831226e+06   8.2731472339902859e+04   4.9837313559486769e+05   1.7288507058210122e-02   7.2034834114675265e+04   0.0000000000000000e+00   7.3049194511128914e-04   0.0000000000000000e+00   0.0000000000000000e+00   0.0000000000000000e+00   0.0000000000000000e+00   0.0000000000000000e+00   0.0000000000000000e+00   0.0000000000000000e+00   0.0000000000000000e+00   0.0000000000000000e+00   0.0000000000000000e+00   0.0000000000000000e+00   0.0000000000000000e+00   0.0000000000000000e+00   0.0000000000000000e+00   0.0000000000000000e+00   0.0000000000000000e+00   0.0000000000000000e+00   0.0000000000000000e+00   1.3657588571024057e-06   0.0000000000000000e+00   0.0000000000000000e+00   0.0000000000000000e+00   0.0000000000000000e+00   0.0000000000000000e+00   0.0000000000000000e+00   0.0000000000000000e+00   0.0000000000000000e+00   0.0000000000000000e+00   0.0000000000000000e+00   1.0818959636200626e-08   0.0000000000000000e+00   3.3570386057091957e+02   7.0038383169580136e-07   4.1771793192946282e+06   2.0957387518367494e+04   3.9235598361428049e+06   3.5315839762601056e+06   2.5490234494513706e+06   2.4334422613462135e+06   1.5796944801075566e+06   1.4903305000412718e+06   4.9767570160585782e+05   5.7024476538721973e+05   1.8532697968077531e+02   8.4365219716550224e+05   1.9456765721554085e-07   2.0516331299980877e+01   0.0000000000000000e+00   3.5390995624748074e-08   0.0000000000000000e+00   0.0000000000000000e+00   0.0000000000000000e+00   0.0000000000000000e+00   0.0000000000000000e+00   0.0000000000000000e+00   0.0000000000000000e+00   0.0000000000000000e+00   0.0000000000000000e+00   0.0000000000000000e+00   0.0000000000000000e+00   0.0000000000000000e+00   5.4405925335016010e-06   1.2813829852627676e-05   1.9903629745656723e+04   2.6611831647917788e+04   5.0698070608162349e+06   0.0000000000000000e+00   0.0000000000000000e+00   0.0000000000000000e+00   0.0000000000000000e+00   0.0000000000000000e+00   0.0000000000000000e+00   0.0000000000000000e+00   0.0000000000000000e+00   0.0000000000000000e+00   0.0000000000000000e+00   0.0000000000000000e+00   0.0000000000000000e+00   0.0000000000000000e+00   0.0000000000000000e+00   1.2659037025584092e+00   2.3473077620536746e-09   3.4273803090830189e+06   9.2138292853699241e+01   3.5644922826001360e+06   3.0644716251412132e+06   2.7574316392797693e+06   2.6301195567650860e+06   2.0268343487578486e+06   1.9169486009797228e+06   7.8819617066811305e+05   6.9901390363098797e+05   2.4063848978007957e+05   1.2033607258478159e+06   6.5879493188289992e-02   3.9844716857274150e+05   6.6466996411234668e-10   3.2224853025331367e-02   0.0000000000000000e+00   2.3533842900770662e-09   0.0000000000000000e+00   0.0000000000000000e+00   0.0000000000000000e+00   0.0000000000000000e+00   0.0000000000000000e+00   1.5481822351045819e-09   1.3579862584514760e-03   1.7256672278627479e-02   2.0303009145232351e+05   6.6065402815326804e+05   6.4742487777380925e+06   5.8554448545953296e+06   1.8962997444588332e+06   1.2784901971925511e+06   3.4398521905463617e+06   0.0000000000000000e+00   0.0000000000000000e+00   0.0000000000000000e+00   0.0000000000000000e+00   0.0000000000000000e+00   0.0000000000000000e+00   0.0000000000000000e+00   0.0000000000000000e+00   0.0000000000000000e+00   0.0000000000000000e+00   0.0000000000000000e+00   0.0000000000000000e+00   0.0000000000000000e+00   0.0000000000000000e+00   0.0000000000000000e+00   0.0000000000000000e+00   4.1892799382704030e-03   0.0000000000000000e+00   4.2725080169108929e+05   1.6482935700005505e-01   3.4828956032529492e+06   1.3475242374610328e+06   3.4084594697007793e+06   3.5295445424871161e+06   2.6255240018268945e+06   2.6760121704563480e+06   1.6066649488680465e+06   1.3195732758159535e+06   1.8186630198963378e+06   1.3568600747323837e+06   8.8574593103056803e+04   3.6399209552521752e+06   1.1807962859727472e+00   5.6752610473553266e+05   3.7109416118463281e-03   1.2270169174845960e+02   3.5956157700720505e-02   4.1044980044047769e+01   3.0487398212259211e+02   4.4413272734781640e+04   1.1853377613513686e+07   4.8018753123375420e+06   7.6195441399482703e+06   7.2713001222903375e+06   2.3463708384847441e+06   1.1053063847791038e+06   4.1052032537030289e+06   4.3462463462395873e+06   7.5622323085515406e+06   7.9519445972363744e+06   3.0880895600879905e+06   0.0000000000000000e+00   0.0000000000000000e+00   0.0000000000000000e+00   0.0000000000000000e+00   0.0000000000000000e+00   0.0000000000000000e+00   0.0000000000000000e+00   0.0000000000000000e+00   0.0000000000000000e+00   0.0000000000000000e+00   0.0000000000000000e+00   0.0000000000000000e+00   0.0000000000000000e+00   0.0000000000000000e+00   0.0000000000000000e+00   0.0000000000000000e+00   0.0000000000000000e+00   0.0000000000000000e+00   1.5260899720565622e-06   0.0000000000000000e+00   1.2991457800138242e+03   2.0153680145285194e-05   4.9082350979142012e+06   7.7684214451358894e+03   4.9428870468533123e+06   4.0434197497619656e+06   4.2512208630287340e+06   4.4292681815415770e+06   2.9962187659444418e+06   2.8341815453726770e+06   1.9348256541698899e+06   1.3346556169029658e+06   2.9357715074104099e+06   1.7163247205414153e+06   3.9197457063818667e+06   2.8427034336919920e+06   5.8286247938272562e+06   2.2318403989472459e+06   7.0765936731800037e+06   3.5727950404445892e+06   5.0182630846529203e+06   1.8209239439716917e+06   2.9220515424059527e+06   2.0417561041395671e+06   5.1444536014286466e+06   6.6144994503299790e+06   8.8362003008646816e+06   9.9704915522323698e+06   1.5138650380004731e+06   8.3909249030106072e+05   6.7272829032313424e-03   3.1496167760308577e-03   0.0000000000000000e+00   0.0000000000000000e+00   0.0000000000000000e+00   0.0000000000000000e+00   0.0000000000000000e+00   0.0000000000000000e+00   0.0000000000000000e+00   0.0000000000000000e+00   0.0000000000000000e+00   0.0000000000000000e+00   0.0000000000000000e+00   0.0000000000000000e+00   0.0000000000000000e+00   0.0000000000000000e+00   0.0000000000000000e+00   0.0000000000000000e+00   0.0000000000000000e+00   0.0000000000000000e+00   0.0000000000000000e+00   0.0000000000000000e+00   0.0000000000000000e+00   0.0000000000000000e+00   0.0000000000000000e+00   1.2834628587813528e-02   0.0000000000000000e+00   1.8944200641659295e+05   4.2939533458275579e-02   7.1327796830151416e+06   2.9926481220526004e+05   6.3368587119959556e+06   6.0730425819172990e+06   3.6127141230392326e+06   3.6550794850161588e+06   1.6379191129120048e+06   1.6482003218133897e+06   1.2016393648016080e+06   1.9978444774216111e+06   3.7304873651645882e+06   3.4208926160790110e+06   2.6055694371510227e+06   2.2879124581268416e+06   1.4481477877632971e+06   2.1167253749415297e+06   5.5425964472761247e+06   6.2672026573715312e+06   8.3937272105157860e+06   1.1635129497275416e+07   1.0791779972819245e+05   2.1226913649108865e+04   3.6947586292467781e-04   1.0951444797994326e-04   0.0000000000000000e+00   0.0000000000000000e+00   0.0000000000000000e+00   0.0000000000000000e+00   0.0000000000000000e+00   0.0000000000000000e+00   0.0000000000000000e+00   0.0000000000000000e+00   0.0000000000000000e+00   0.0000000000000000e+00   0.0000000000000000e+00   0.0000000000000000e+00   0.0000000000000000e+00   0.0000000000000000e+00   0.0000000000000000e+00   0.0000000000000000e+00   0.0000000000000000e+00   0.0000000000000000e+00   0.0000000000000000e+00   0.0000000000000000e+00   0.0000000000000000e+00   0.0000000000000000e+00   0.0000000000000000e+00   0.0000000000000000e+00   0.0000000000000000e+00   0.0000000000000000e+00   0.0000000000000000e+00   0.0000000000000000e+00   0.0000000000000000e+00   2.8591596422536485e-08   0.0000000000000000e+00   4.3718796010672195e-01   9.1980193527054875e-08   1.7194196760230791e+06   1.5882279577123561e+00   5.9295931006780304e+06   2.2714237328874208e+06   4.5266231954691559e+06   4.7673891701837461e+06   1.5895868531781754e+06   2.2398238364690281e+06   1.5131323404940513e+06   2.8012874684237870e+06   2.4875735890019746e+06   1.6861899370532234e+06   5.5851191639882717e+06   5.2447381486201389e+06   7.7094673785658544e+06   8.5922937649123035e+06   1.3265545453590323e+03   3.2282425506255993e+02   5.7288757159415665e-06   3.4912194249961830e-06   0.0000000000000000e+00   0.0000000000000000e+00   0.0000000000000000e+00   0.0000000000000000e+00   0.0000000000000000e+00   0.0000000000000000e+00   0.0000000000000000e+00   0.0000000000000000e+00   0.0000000000000000e+00   0.0000000000000000e+00   0.0000000000000000e+00   0.0000000000000000e+00   0.0000000000000000e+00   0.0000000000000000e+00   0.0000000000000000e+00   0.0000000000000000e+00   0.0000000000000000e+00   0.0000000000000000e+00   0.0000000000000000e+00   0.0000000000000000e+00   0.0000000000000000e+00   0.0000000000000000e+00   0.0000000000000000e+00   0.0000000000000000e+00   0.0000000000000000e+00   0.0000000000000000e+00   0.0000000000000000e+00   0.0000000000000000e+00   0.0000000000000000e+00   0.0000000000000000e+00   0.0000000000000000e+00   0.0000000000000000e+00   0.0000000000000000e+00   0.0000000000000000e+00   0.0000000000000000e+00   0.0000000000000000e+00   0.0000000000000000e+00   3.1586184105599539e-05   0.0000000000000000e+00   1.8593979794544166e+03   7.6741425478512107e-04   9.9122907043068875e+06   7.3583761387562918e+04   5.3604867209493732e+06   5.7864751897921879e+06   2.2044428906710795e+06   2.5430804303297219e+06   6.6424874014990712e+06   1.0121328808220581e+06   1.1193814925301798e+07   8.1072360064679189e+06   6.8331974387211858e+02   1.8658632502510882e+03   1.3179529174881482e-06   5.2057993644152732e-06   0.0000000000000000e+00   0.0000000000000000e+00   0.0000000000000000e+00   0.0000000000000000e+00   0.0000000000000000e+00   0.0000000000000000e+00   0.00000000