<?xml version="1.0"?>
<VTKFile type="UnstructuredGrid"  version="0.1"  >
<UnstructuredGrid>
<Piece  NumberOfPoints="611" NumberOfCells="1123">
<Points>
<DataArray  type="Float64"  NumberOfComponents="3"  format="ascii">1.883478260869565 0.01666666666666667 0  1.9 0.01666666666666667 0  1.9 0.03333333333333333 0  1.883478260869565 0.03333333333333333 0  1.916521739130435 0.03333333333333333 0  1.9 0.05 0  1.883478260869565 0.05 0  1.916521739130435 0.05 0  1.933043478260869 0.05 0  1.9 0.06666666666666667 0  1.883478260869565 0.06666666666666667 0  1.916521739130435 0.06666666666666667 0  1.933043478260869 0.06666666666666667 0  1.949565217391304 0.06666666666666667 0  1.9 0.08333333333333333 0  1.883478260869565 0.08333333333333333 0  1.916521739130435 0.08333333333333333 0  1.933043478260869 0.08333333333333333 0  1.949565217391304 0.08333333333333333 0  1.966086956521739 0.08333333333333333 0  1.9 0.1 0  1.883478260869565 0.1 0  1.916521739130435 0.1 0  1.933043478260869 0.1 0  1.949565217391304 0.1 0  1.966086956521739 0.1 0  1.982608695652174 0.1 0  1.9 0.1166666666666667 0  1.883478260869565 0.1166666666666667 0  1.916521739130435 0.1166666666666667 0  1.933043478260869 0.1166666666666667 0  1.949565217391304 0.1166666666666667 0  1.966086956521739 0.1166666666666667 0  1.982608695652174 0.1166666666666667 0  1.999130434782608 0.1166666666666667 0  1.9 0.1333333333333333 0  1.883478260869565 0.1333333333333333 0  1.916521739130435 0.1333333333333333 0  1.933043478260869 0.1333333333333333 0  1.949565217391304 0.1333333333333333 0  1.966086956521739 0.1333333333333333 0  1.982608695652174 0.1333333333333333 0  1.999130434782608 0.1333333333333333 0  2.015652173913043 0.1166666666666667 0  2.015652173913043 0.1333333333333333 0  2.032173913043478 0.1166666666666667 0  2.032173913043478 0.1333333333333333 0  2.048695652173913 0.1166666666666667 0  2.048695652173913 0.1333333333333333 0  2.065217391304348 0.1166666666666667 0  2.065217391304348 0.1333333333333333 0  2.081739130434782 0.1166666666666667 0  2.081739130434782 0.1333333333333333 0  2.098260869565217 0.1333333333333333 0  1.9 0.15 0  1.883478260869565 0.15 0  1.916521739130435 0.15 0  1.933043478260869 0.15 0  1.949565217391304 0.15 0  1.966086956521739 0.15 0  1.982608695652174 0.15 0  1.999130434782608 0.15 0  2.015652173913043 0.15 0  2.032173913043478 0.15 0  2.048695652173913 0.15 0  2.065217391304348 0.15 0  2.081739130434782 0.15 0  2.098260869565217 0.15 0  2.114782608695652 0.15 0  1.9 0.1666666666666667 0  1.883478260869565 0.1666666666666667 0  1.916521739130435 0.1666666666666667 0  1.933043478260869 0.1666666666666667 0  1.949565217391304 0.1666666666666667 0  1.966086956521739 0.1666666666666667 0  1.982608695652174 0.1666666666666667 0  1.999130434782608 0.1666666666666667 0  2.015652173913043 0.1666666666666667 0  2.032173913043478 0.1666666666666667 0  2.048695652173913 0.1666666666666667 0  2.065217391304348 0.1666666666666667 0  2.081739130434782 0.1666666666666667 0  2.098260869565217 0.1666666666666667 0  2.114782608695652 0.1666666666666667 0  2.131304347826087 0.1666666666666667 0  1.9 0.1833333333333333 0  1.883478260869565 0.1833333333333333 0  1.916521739130435 0.1833333333333333 0  1.933043478260869 0.1833333333333333 0  1.949565217391304 0.1833333333333333 0  1.966086956521739 0.1833333333333333 0  1.982608695652174 0.1833333333333333 0  1.999130434782608 0.1833333333333333 0  2.015652173913043 0.1833333333333333 0  2.032173913043478 0.1833333333333333 0  2.048695652173913 0.1833333333333333 0  2.065217391304348 0.1833333333333333 0  2.081739130434782 0.1833333333333333 0  2.098260869565217 0.1833333333333333 0  2.114782608695652 0.1833333333333333 0  2.131304347826087 0.1833333333333333 0  2.147826086956522 0.1833333333333333 0  1.9 0.2 0  1.883478260869565 0.2 0  1.916521739130435 0.2 0  1.933043478260869 0.2 0  1.949565217391304 0.2 0  1.966086956521739 0.2 0  1.982608695652174 0.2 0  1.999130434782608 0.2 0  2.015652173913043 0.2 0  2.032173913043478 0.2 0  2.048695652173913 0.2 0  2.065217391304348 0.2 0  2.081739130434782 0.2 0  2.098260869565217 0.2 0  2.114782608695652 0.2 0  2.131304347826087 0.2 0  2.147826086956522 0.2 0  2.164347826086956 0.2 0  1.9 0.2166666666666667 0  1.883478260869565 0.2166666666666667 0  1.916521739130435 0.2166666666666667 0  1.933043478260869 0.2166666666666667 0  1.949565217391304 0.2166666666666667 0  1.966086956521739 0.2166666666666667 0  1.982608695652174 0.2166666666666667 0  1.999130434782608 0.2166666666666667 0  2.015652173913043 0.2166666666666667 0  2.032173913043478 0.2166666666666667 0  2.048695652173913 0.2166666666666667 0  2.065217391304348 0.2166666666666667 0  2.081739130434782 0.2166666666666667 0  2.098260869565217 0.2166666666666667 0  2.114782608695652 0.2166666666666667 0  2.131304347826087 0.2166666666666667 0  2.147826086956522 0.2166666666666667 0  2.164347826086956 0.2166666666666667 0  2.180869565217391 0.2166666666666667 0  1.9 0.2333333333333333 0  1.883478260869565 0.2333333333333333 0  1.916521739130435 0.2333333333333333 0  1.933043478260869 0.2333333333333333 0  1.949565217391304 0.2333333333333333 0  1.966086956521739 0.2333333333333333 0  1.982608695652174 0.2333333333333333 0  1.999130434782608 0.2333333333333333 0  2.015652173913043 0.2333333333333333 0  2.032173913043478 0.2333333333333333 0  2.048695652173913 0.2333333333333333 0  2.065217391304348 0.2333333333333333 0  2.081739130434782 0.2333333333333333 0  2.098260869565217 0.2333333333333333 0  2.114782608695652 0.2333333333333333 0  2.131304347826087 0.2333333333333333 0  2.147826086956522 0.2333333333333333 0  2.164347826086956 0.2333333333333333 0  2.180869565217391 0.2333333333333333 0  2.197391304347826 0.2333333333333333 0  1.9 0.25 0  1.916521739130435 0.25 0  1.933043478260869 0.25 0  1.949565217391304 0.25 0  1.966086956521739 0.25 0  1.982608695652174 0.25 0  1.999130434782608 0.25 0  2.015652173913043 0.25 0  2.032173913043478 0.25 0  2.048695652173913 0.25 0  2.065217391304348 0.25 0  2.081739130434782 0.25 0  2.098260869565217 0.25 0  2.114782608695652 0.25 0  2.131304347826087 0.25 0  2.147826086956522 0.25 0  2.164347826086956 0.25 0  2.180869565217391 0.25 0  2.197391304347826 0.25 0  2.213913043478261 0.25 0  1.916521739130435 0.2666666666666667 0  1.9 0.2666666666666667 0  1.933043478260869 0.2666666666666667 0  1.949565217391304 0.2666666666666667 0  1.966086956521739 0.2666666666666667 0  1.982608695652174 0.2666666666666667 0  1.999130434782608 0.2666666666666667 0  2.015652173913043 0.2666666666666667 0  2.032173913043478 0.2666666666666667 0  2.048695652173913 0.2666666666666667 0  2.065217391304348 0.2666666666666667 0  2.081739130434782 0.2666666666666667 0  2.098260869565217 0.2666666666666667 0  2.114782608695652 0.2666666666666667 0  2.131304347826087 0.2666666666666667 0  2.147826086956522 0.2666666666666667 0  2.164347826086956 0.2666666666666667 0  2.180869565217391 0.2666666666666667 0  2.197391304347826 0.2666666666666667 0  2.213913043478261 0.2666666666666667 0  2.230434782608695 0.25 0  2.230434782608695 0.2666666666666667 0  2.24695652173913 0.2666666666666667 0  1.916521739130435 0.2833333333333333 0  1.9 0.2833333333333333 0  1.933043478260869 0.2833333333333333 0  1.949565217391304 0.2833333333333333 0  1.966086956521739 0.2833333333333333 0  1.982608695652174 0.2833333333333333 0  1.999130434782608 0.2833333333333333 0  2.015652173913043 0.2833333333333333 0  2.032173913043478 0.2833333333333333 0  2.048695652173913 0.2833333333333333 0  2.065217391304348 0.2833333333333333 0  2.081739130434782 0.2833333333333333 0  2.098260869565217 0.2833333333333333 0  2.114782608695652 0.2833333333333333 0  2.131304347826087 0.2833333333333333 0  2.147826086956522 0.2833333333333333 0  2.164347826086956 0.2833333333333333 0  2.180869565217391 0.2833333333333333 0  2.197391304347826 0.2833333333333333 0  2.213913043478261 0.2833333333333333 0  2.230434782608695 0.2833333333333333 0  2.24695652173913 0.2833333333333333 0  2.263478260869565 0.2833333333333333 0  1.916521739130435 0.3 0  1.9 0.3 0  1.933043478260869 0.3 0  1.949565217391304 0.3 0  1.966086956521739 0.3 0  1.982608695652174 0.3 0  1.999130434782608 0.3 0  2.015652173913043 0.3 0  2.032173913043478 0.3 0  2.048695652173913 0.3 0  2.065217391304348 0.3 0  2.081739130434782 0.3 0  2.098260869565217 0.3 0  2.114782608695652 0.3 0  2.131304347826087 0.3 0  2.147826086956522 0.3 0  2.164347826086956 0.3 0  2.180869565217391 0.3 0  2.197391304347826 0.3 0  2.213913043478261 0.3 0  2.230434782608695 0.3 0  2.24695652173913 0.3 0  2.263478260869565 0.3 0  2.28 0.3 0  1.916521739130435 0.3166666666666667 0  1.9 0.3166666666666667 0  1.933043478260869 0.3166666666666667 0  1.949565217391304 0.3166666666666667 0  1.966086956521739 0.3166666666666667 0  1.982608695652174 0.3166666666666667 0  1.999130434782608 0.3166666666666667 0  2.015652173913043 0.3166666666666667 0  2.032173913043478 0.3166666666666667 0  2.048695652173913 0.3166666666666667 0  2.065217391304348 0.3166666666666667 0  2.081739130434782 0.3166666666666667 0  2.098260869565217 0.3166666666666667 0  2.114782608695652 0.3166666666666667 0  2.131304347826087 0.3166666666666667 0  2.147826086956522 0.3166666666666667 0  2.164347826086956 0.3166666666666667 0  2.180869565217391 0.3166666666666667 0  2.197391304347826 0.3166666666666667 0  2.213913043478261 0.3166666666666667 0  2.230434782608695 0.3166666666666667 0  2.24695652173913 0.3166666666666667 0  2.263478260869565 0.3166666666666667 0  2.28 0.3166666666666667 0  2.296521739130434 0.3166666666666667 0  1.916521739130435 0.3333333333333333 0  1.9 0.3333333333333333 0  1.933043478260869 0.3333333333333333 0  1.949565217391304 0.3333333333333333 0  1.966086956521739 0.3333333333333333 0  1.982608695652174 0.3333333333333333 0  1.999130434782608 0.3333333333333333 0  2.015652173913043 0.3333333333333333 0  2.032173913043478 0.3333333333333333 0  2.048695652173913 0.3333333333333333 0  2.06521739
[...]
<CellData  Scalars="sigma_m"> 
<DataArray  type="Float64"  Name="sigma_m"  format="ascii">5.3045261120582679e+06   6.2574990981023517e+06   5.2393481835489552e+06   1.8970949315398900e+03   1.0101581433216500e+00   3.1636127101995476e+03   8.3049071032556421e-01   7.7520285518950782e-01   0.0000000000000000e+00   0.0000000000000000e+00   0.0000000000000000e+00   0.0000000000000000e+00   0.0000000000000000e+00   0.0000000000000000e+00   0.0000000000000000e+00   0.0000000000000000e+00   0.0000000000000000e+00   0.0000000000000000e+00   0.0000000000000000e+00   0.0000000000000000e+00   0.0000000000000000e+00   0.0000000000000000e+00   0.0000000000000000e+00   0.0000000000000000e+00   0.0000000000000000e+00   0.0000000000000000e+00   0.0000000000000000e+00   0.0000000000000000e+00   0.0000000000000000e+00   0.0000000000000000e+00   0.0000000000000000e+00   0.0000000000000000e+00   0.0000000000000000e+00   0.0000000000000000e+00   0.0000000000000000e+00   0.0000000000000000e+00   0.0000000000000000e+00   0.0000000000000000e+00   0.0000000000000000e+00   0.0000000000000000e+00   0.0000000000000000e+00   0.0000000000000000e+00   0.0000000000000000e+00   0.0000000000000000e+00   0.0000000000000000e+00   0.0000000000000000e+00   0.0000000000000000e+00   0.0000000000000000e+00   2.6731144610702626e-09   1.1936441971054765e-01   0.0000000000000000e+00   0.0000000000000000e+00   0.0000000000000000e+00   0.0000000000000000e+00   0.0000000000000000e+00   0.0000000000000000e+00   0.0000000000000000e+00   0.0000000000000000e+00   0.0000000000000000e+00   0.0000000000000000e+00   0.0000000000000000e+00   0.0000000000000000e+00   0.0000000000000000e+00   0.0000000000000000e+00   0.0000000000000000e+00   0.0000000000000000e+00   0.0000000000000000e+00   0.0000000000000000e+00   0.0000000000000000e+00   0.0000000000000000e+00   0.0000000000000000e+00   0.0000000000000000e+00   0.0000000000000000e+00   3.7715529054056638e+03   1.7121795142976521e+06   1.0683132117110642e-06   1.0970985685334041e+02   0.0000000000000000e+00   7.4376895479880304e-08   0.0000000000000000e+00   0.0000000000000000e+00   0.0000000000000000e+00   0.0000000000000000e+00   0.0000000000000000e+00   0.0000000000000000e+00   0.0000000000000000e+00   0.0000000000000000e+00   0.0000000000000000e+00   0.0000000000000000e+00   0.0000000000000000e+00   0.0000000000000000e+00   0.0000000000000000e+00   0.0000000000000000e+00   0.0000000000000000e+00   0.0000000000000000e+00   0.0000000000000000e+00   0.0000000000000000e+00   0.0000000000000000e+00   0.0000000000000000e+00   0.0000000000000000e+00   1.5920754767246707e+06   1.5293256468592715e+06   5.7013151426468464e+05   1.2307377390111899e+06   3.7626933583989860e-03   1.3927030675886601e+05   0.0000000000000000e+00   1.4618071515477309e-04   0.0000000000000000e+00   0.0000000000000000e+00   0.0000000000000000e+00   0.0000000000000000e+00   0.0000000000000000e+00   0.0000000000000000e+00   0.0000000000000000e+00   0.0000000000000000e+00   0.0000000000000000e+00   0.0000000000000000e+00   0.0000000000000000e+00   0.0000000000000000e+00   0.0000000000000000e+00   0.0000000000000000e+00   0.0000000000000000e+00   0.0000000000000000e+00   0.0000000000000000e+00   0.0000000000000000e+00   0.0000000000000000e+00   0.0000000000000000e+00   0.0000000000000000e+00   1.5773902764968476e+06   1.5494540423606802e+06   1.4798444459855477e+06   1.4839225305748917e+06   1.3116071079100110e+06   1.4765456332300853e+06   9.1421118591481640e+00   1.1242389189615629e+06   0.0000000000000000e+00   1.9226421014423542e-01   0.0000000000000000e+00   0.0000000000000000e+00   0.0000000000000000e+00   0.0000000000000000e+00   0.0000000000000000e+00   0.0000000000000000e+00   0.0000000000000000e+00   0.0000000000000000e+00   0.0000000000000000e+00   0.0000000000000000e+00   0.0000000000000000e+00   0.0000000000000000e+00   0.0000000000000000e+00   0.0000000000000000e+00   0.0000000000000000e+00   0.0000000000000000e+00   0.0000000000000000e+00   0.0000000000000000e+00   0.0000000000000000e+00   0.0000000000000000e+00   0.0000000000000000e+00   1.6112499322727416e+06   1.5888142898971713e+06   1.5525999407616814e+06   1.5466787342040923e+06   1.5274386587656606e+06   1.5409191850914604e+06   1.4921399929591671e+06   1.5541685708131716e+06   9.7521112470463268e+03   1.3558800121790883e+06   2.9802936365492703e-07   1.5574022831172201e+02   0.0000000000000000e+00   1.4335588368325844e-08   0.0000000000000000e+00   0.0000000000000000e+00   0.0000000000000000e+00   0.0000000000000000e+00   0.0000000000000000e+00   0.0000000000000000e+00   0.0000000000000000e+00   0.0000000000000000e+00   0.0000000000000000e+00   0.0000000000000000e+00   0.0000000000000000e+00   0.0000000000000000e+00   0.0000000000000000e+00   0.0000000000000000e+00   0.0000000000000000e+00   0.0000000000000000e+00   0.0000000000000000e+00   0.0000000000000000e+00   0.0000000000000000e+00   1.6147740613029185e+06   1.4138978710911856e+06   1.5493001472220332e+06   1.5326683729920678e+06   1.5551219146518409e+06   1.5746841767677809e+06   1.5158084332874657e+06   1.5100182701562464e+06   1.4138542213717294e+06   1.3675148422168561e+06   4.6475754686874989e+05   1.0495198850559199e+06   1.4092667901757575e-03   6.1259210195964697e+04   0.0000000000000000e+00   5.9649557591803334e-05   0.0000000000000000e+00   0.0000000000000000e+00   0.0000000000000000e+00   0.0000000000000000e+00   0.0000000000000000e+00   0.0000000000000000e+00   0.0000000000000000e+00   0.0000000000000000e+00   0.0000000000000000e+00   0.0000000000000000e+00   0.0000000000000000e+00   0.0000000000000000e+00   0.0000000000000000e+00   0.0000000000000000e+00   0.0000000000000000e+00   0.0000000000000000e+00   0.0000000000000000e+00   0.0000000000000000e+00   0.0000000000000000e+00   4.3302038796130510e+04   8.5251844843363346e-04   1.3404700766565297e+06   5.3278896225754858e+05   1.5809699620403494e+06   1.6301414237663841e+06   1.6073284930294151e+06   1.6140898532587010e+06   1.5330114006959840e+06   1.5072176881118563e+06   1.3756073042604215e+06   1.3701451623740625e+06   1.1354174271995563e+06   1.2768090782647748e+06   1.4814078574985958e+01   8.3944773598152352e+05   4.1359842691734165e-10   5.1604482869312640e-01   0.0000000000000000e+00   0.0000000000000000e+00   0.0000000000000000e+00   0.0000000000000000e+00   0.0000000000000000e+00   0.0000000000000000e+00   0.0000000000000000e+00   0.0000000000000000e+00   0.0000000000000000e+00   0.0000000000000000e+00   0.0000000000000000e+00   0.0000000000000000e+00   0.0000000000000000e+00   0.0000000000000000e+00   0.0000000000000000e+00   0.0000000000000000e+00   0.0000000000000000e+00   0.0000000000000000e+00   0.0000000000000000e+00   1.6688801736655559e-08   4.9642537697389668e+02   4.3291806820181134e-07   1.7566916997762928e+06   2.3751210416821406e+04   1.8979950848278359e+06   1.7994374650182701e+06   1.7089545481221660e+06   1.6863671024652405e+06   1.5711325016314678e+06   1.5657662177025063e+06   1.4313227363594682e+06   1.4229869653485301e+06   1.1952019142767002e+06   1.1991711700787612e+06   8.1086697246351847e+04   8.3289368857881601e+05   2.0773724025681480e-06   1.8578266362805614e+03   0.0000000000000000e+00   7.1348081429460078e-08   0.0000000000000000e+00   0.0000000000000000e+00   0.0000000000000000e+00   0.0000000000000000e+00   0.0000000000000000e+00   0.0000000000000000e+00   0.0000000000000000e+00   0.0000000000000000e+00   0.0000000000000000e+00   0.0000000000000000e+00   0.0000000000000000e+00   0.0000000000000000e+00   0.0000000000000000e+00   0.0000000000000000e+00   0.0000000000000000e+00   0.0000000000000000e+00   0.0000000000000000e+00   0.0000000000000000e+00   0.0000000000000000e+00   2.1421096482632765e-01   0.0000000000000000e+00   1.4905314838383046e+06   6.1346396291378573e+00   1.8218171174290353e+06   1.5521322500972808e+06   1.7510824116044026e+06   1.7454507234124427e+06   1.6536157124791972e+06   1.6576322504077214e+06   1.4574892542413983e+06   1.4334756021386529e+06   1.1778617486191816e+06   1.1480584261075284e+06   5.5388065191531600e+05   8.2111712901400111e+05   2.2655914368569464e-03   1.3180950257979272e+05   0.0000000000000000e+00   4.5331459370674465e-05   0.0000000000000000e+00   0.0000000000000000e+00   0.0000000000000000e+00   0.0000000000000000e+00   0.0000000000000000e+00   0.0000000000000000e+00   0.0000000000000000e+00   0.0000000000000000e+00   0.0000000000000000e+00   0.0000000000000000e+00   0.0000000000000000e+00   0.0000000000000000e+00   0.0000000000000000e+00   0.0000000000000000e+00   0.0000000000000000e+00   0.0000000000000000e+00   0.0000000000000000e+00   0.0000000000000000e+00   0.0000000000000000e+00   0.0000000000000000e+00   0.0000000000000000e+00   0.0000000000000000e+00   0.0000000000000000e+00   2.2386571152750135e-05   0.0000000000000000e+00   3.5352408295780078e+04   3.8630247933489831e-04   1.7594606977008188e+06   4.1951119729563140e+05   1.8865481304246006e+06   1.9478462559345192e+06   1.7512345644826062e+06   1.7549937865006190e+06   1.4960679441353062e+06   1.4662995793809963e+06   1.2562617878467781e+06   1.2469463051829594e+06   9.6835265401162137e+05   1.0849464668838300e+06   3.4697656053335177e+00   7.6353634561557358e+05   0.0000000000000000e+00   8.1562189212533928e-02   0.0000000000000000e+00   0.0000000000000000e+00   0.0000000000000000e+00   0.0000000000000000e+00   0.0000000000000000e+00   0.0000000000000000e+00   0.0000000000000000e+00   0.0000000000000000e+00   0.0000000000000000e+00   0.0000000000000000e+00   0.0000000000000000e+00   0.0000000000000000e+00   0.0000000000000000e+00   0.0000000000000000e+00   0.0000000000000000e+00   0.0000000000000000e+00   0.0000000000000000e+00   0.0000000000000000e+00   0.0000000000000000e+00   0.0000000000000000e+00   0.0000000000000000e+00   0.0000000000000000e+00   0.0000000000000000e+00   0.0000000000000000e+00   0.0000000000000000e+00   1.3528925854945838e-09   0.0000000000000000e+00   1.1037951281174902e+01   2.6757235298182165e-08   2.2004076861472218e+06   4.3774793807138241e+02   2.3679271095576179e+06   2.1227453423874159e+06   1.8538898682419583e+06   1.8017065525652538e+06   1.5795309257533124e+06   1.5575160562959746e+06   1.3794243257840737e+06   1.3840173778959310e+06   1.2057327482787366e+06   1.2548371713226428e+06   1.5111049553721950e+04   8.9477730706469237e+05   1.8982940146200707e-06   5.5994838758344929e+02   0.0000000000000000e+00   2.0905215636428721e-07   0.0000000000000000e+00   0.0000000000000000e+00   0.0000000000000000e+00   0.0000000000000000e+00   0.0000000000000000e+00   0.0000000000000000e+00   0.0000000000000000e+00   0.0000000000000000e+00   0.0000000000000000e+00   0.0000000000000000e+00   0.0000000000000000e+00   0.0000000000000000e+00   0.0000000000000000e+00   0.0000000000000000e+00   0.0000000000000000e+00   0.0000000000000000e+00   8.6033456720915746e-01   0.0000000000000000e+00   0.0000000000000000e+00   0.0000000000000000e+00   0.0000000000000000e+00   0.0000000000000000e+00   0.0000000000000000e+00   0.0000000000000000e+00   0.0000000000000000e+00   0.0000000000000000e+00   0.0000000000000000e+00   7.8138399973049950e-03   0.0000000000000000e+00   1.6500860914722476e+06   5.0047198845611895e-01   1.9820492956242848e+06   1.7263904421089676e+06   1.7610928908894469e+06   1.7203481826064570e+06   1.6079886461059537e+06   1.6127525379925373e+06   1.4245029722062121e+06   1.4073576014028511e+06   1.1371610614145717e+06   1.1034633413708045e+06   4.9329597384741117e+05   6.7462558668760618e+05   1.6648986210352920e-01   1.8948882889874105e+05   2.4689637775465447e-10   2.3739728177025146e-02   0.0000000000000000e+00   2.8885117452383266e-10   0.0000000000000000e+00   0.0000000000000000e+00   0.0000000000000000e+00   0.0000000000000000e+00   0.0000000000000000e+00   0.0000000000000000e+00   0.0000000000000000e+00   0.0000000000000000e+00   1.5891047972467859e-09   1.0512057646957732e-08   3.3676528946735682e+00   8.1237177937036105e+00   2.7416625228053229e+06   2.7287637499969527e+06   1.7366502878252955e+06   0.0000000000000000e+00   0.0000000000000000e+00   0.0000000000000000e+00   0.0000000000000000e+00   0.0000000000000000e+00   0.0000000000000000e+00   0.0000000000000000e+00   0.0000000000000000e+00   0.0000000000000000e+00   0.0000000000000000e+00   0.0000000000000000e+00   0.0000000000000000e+00   2.4477723550257594e-05   0.0000000000000000e+00   9.4390203358609419e+04   1.3290780965669736e-03   1.7100485543586086e+06   8.9251562332252192e+05   1.8087137407747819e+06   1.8372153443850991e+06   1.7083796532049668e+06   1.7054007056178150e+06   1.4993974740349536e+06   1.4730070501913028e+06   1.1964958980881290e+06   1.1675546695855039e+06   6.9903646675066079e+05   7.2429272447659459e+05   3.9050458985602148e+04   2.0140511640932108e+05   6.0162816785078643e-04   1.6785663493291628e+04   4.3925159752265408e-09   2.1112775038649493e-03   0.0000000000000000e+00   1.3396117813855961e-07   1.2346250156980742e-09   1.4998745190066864e-07   4.1186801578163439e-05   1.6198812085499766e-03   8.7556868848632644e+02   8.9031261685558547e+03   4.4199135341714583e+06   3.2593531793862381e+06   2.0796895761800755e+06   2.1758024716908545e+06   8.8059691724994208e+05   1.7974771323229483e+05   1.7274035705221810e+06   0.0000000000000000e+00   0.0000000000000000e+00   0.0000000000000000e+00   0.0000000000000000e+00   0.0000000000000000e+00   0.0000000000000000e+00   0.0000000000000000e+00   0.0000000000000000e+00   0.0000000000000000e+00   0.0000000000000000e+00   0.0000000000000000e+00   0.0000000000000000e+00   0.0000000000000000e+00   0.0000000000000000e+00   1.2715551002361695e-07   0.0000000000000000e+00   2.5521803292077943e+03   4.0605889159747937e-06   2.0982250672034533e+06   9.1836211899388232e+04   2.1490735727440934e+06   2.0685249590553397e+06   1.9302423907326474e+06   1.9075129470108119e+06   1.7494191653084222e+06   1.7427682288751712e+06   1.3931343030275132e+06   1.3241880466181429e+06   7.7323693767053133e+05   6.7582891674835945e+05   7.6624577843789419e+05   3.0398717399960768e+05   6.9405284360754001e+05   1.1793103252388611e+06   4.4207561796458413e+02   1.3991413203742378e+05   1.7842113662239586e+04   4.8559444137321494e+05   5.9012097800875176e+06   2.4977325629016994e+06   5.0543585788678881e+06   3.9034802579787332e+06   2.6486928913029754e+06   1.9585330421382736e+06   1.0719066492613277e+06   2.4428717045656370e+05   1.9473276963226018e+06   2.1132036661179489e+06   3.2904749424956581e+06   3.6481009281249102e+06   4.0064960962625667e+06   0.0000000000000000e+00   0.0000000000000000e+00   0.0000000000000000e+00   0.0000000000000000e+00   0.0000000000000000e+00   0.0000000000000000e+00   0.0000000000000000e+00   0.0000000000000000e+00   0.0000000000000000e+00   0.0000000000000000e+00   0.0000000000000000e+00   0.0000000000000000e+00   0.0000000000000000e+00   0.0000000000000000e+00   0.0000000000000000e+00   0.0000000000000000e+00   0.0000000000000000e+00   0.0000000000000000e+00   9.3376648367996562e-01   4.2213483926751821e-09   1.8196459206958881e+06   1.3257417828426687e+01   2.2010885102762403e+06   1.7083317765330782e+06   2.2996279568743655e+06   2.4041162788805142e+06   2.1334301209126422e+06   2.1712359248883417e+06   1.7404887681865012e+06   1.6937098005475861e+06   1.1947774212958552e+06   1.0217153999477820e+06   5.8470812717033259e+05   5.4594642920653569e+05   7.8940449576102290e+05   1.1481411104262678e+06   1.7944211102649237e+06   1.3565950838498869e+06   2.7609485470175068e+06   1.2288420805824159e+06   2.7267232081176448e+06   6.0667897476149921e+05   1.1001271122645552e+06   1.0606077549256557e+06   2.1927140723076747e+06   2.6327998061524038e+06   3.8419827028020550e+06   4.3749481555195376e+06   4.1643643049042807e+06   5.1516175617333530e+06   3.6801410974441665e+03   1.9825265060493789e+03   1.5202147391668222e-07   0.0000000000000000e+00   0.0000000000000000e+00   0.0000000000000000e+00   0.0000000000000000e+00   0.0000000000000000e+00   0.0000000000000000e+00   0.0000000000000000e+00   0.0000000000000000e+00   0.0000000000000000e+00   0.0000000000000000e+00   0.0000000000000000e+00   0.0000000000000000e+00   0.0000000000000000e+00   0.0000000000000000e+00   0.0000000000000000e+00   0.0000000000000000e+00   0.0000000000000000e+00   0.0000000000000000e+00   0.0000000000000000e+00   0.0000000000000000e+00   5.6431552835277986e-05   0.0000000000000000e+00   8.2333728167171830e+03   3.3774076550232115e-04   2.9144468692506962e+06   2.4140547898551577e+04   3.0896944893498686e+06   2.7992407704355344e+06   2.6799203546002661e+06   2.8017184942143252e+06   2.0288191711964197e+06   2.0916541910796592e+06   9.5941458343410061e+05   1.0584847839080559e+06   8.6691757052537671e+05   1.1734688577166123e+06   1.4539805215649072e+06   1.4035130019420488e+06   1.3688227567958324e+06   1.1632840662596084e+06   7.1926594891209342e+05   5.9953453371823777e+05   2.3138551872525685e+06   2.7953667322582183e+06   4.3144140604817141e+06   4.5092265298603149e+06   3.8787546516054841e+06   5.8741986336835437e+06   1.8363674365135785e+02   5.7363897803923194e+01   7.3452435637682300e-08   5.9081123373077562e-08   0.0000000000000000e+00   0.0000000000000000e+00   0.0000000000000000e+00   0.0000000000000000e+00   0.0000000000000000e+00   0.0000000000000000e+00   0.0000000000000000e+00   0.0000000000000000e+00   0.0000000000000000e+00   0.0000000000000000e+00   0.0000000000000000e+00   0.0000000000000000e+00   0.0000000000000000e+00   0.0000000000000000e+00   0.0000000000000000e+00   0.0000000000000000e+00   0.0000000000000000e+00   0.0000000000000000e+00   0.0000000000000000e+00   0.0000000000000000e+00   0.0000000000000000e+00   0.0000000000000000e+00   0.0000000000000000e+00   0.0000000000000000e+00   0.0000000000000000e+00   2.7721001548183928e-09   0.0000000000000000e+00   2.6429433047338122e-02   1.4996838874000587e-08   2.2017769221537968e+05   9.3025119589051117e-02   3.6911836265193243e+06   4.8937811002952704e+05   3.4893897661816371e+06   3.5791414250637945e+06   2.2256723136334522e+06   2.2112299148698393e+06   7.8931409437348938e+05   1.4123550558078189e+06   2.7184928956442431e+05   8.5967986706953286e+05   6.6877357560378208e+05   4.3755559984470101e+05   2.5763481193683133e+06   9.6673150394394796e+05   4.9073167691002656e+06   5.0742631280664420e+06   4.6161099965183977e+06   4.9322959923807587e+06   4.7169352223888508e+00   1.9650285966603669e+00   1.1284235811168961e-08   1.5012992772682848e-08   0.0000000000000000e+00   0.0000000000000000e+00   0.0000000000000000e+00   0.0000000000000000e+00   0.0000000000000000e+00   0.0000000000000000e+00   0.0000000000000000e+00   0.0000000000000000e+00   0.0000000000000000e+00   0.0000000000000000e+00   0.0000000000000000e+00   0.0000000000000000e+00   0.0000000000000000e+00   0.0000000000000000e+00   0.0000000000000000e+00   0.0000000000000000e+00   0.0000000000000000e+00   0.0000000000000000e+00   0.0000000000000000e+00   0.0000000000000000e+00   0.0000000000000000e+00   0.0000000000000000e+00   0.0000000000000000e+00   0.0000000000000000e+00   0.0000000000000000e+00   0.0000000000000000e+00   0.0000000000000000e+00   0.0000000000000000e+00   0.0000000000000000e+00   0.0000000000000000e+00   0.0000000000000000e+00   0.0000000000000000e+00   0.0000000000000000e+00   3.9721161962657121e-06   0.0000000000000000e+00   2.3108892260825485e+01   6.7942814451813779e-05   5.3213240502303932e+06   5.1497960385840179e+02   4.4713856099885516e+06   4.3880554905450894e+06   1.8173547430675842e+06   2.3628267763923439e+06   1.4111287632414736e+06   1.0367057356887959e+06   2.4173443580240193e+06   1.0569957453503686e+06   4.9637310291302782e+06   1.7924952877073630e+06   6.6838488331192425e+06   5.4240380589834405e+06   1.0955410282091400e+00   3.9956336560957686e+00   1.8351773834097472e-08   7.6738589045466652e-08   0.0000000000000000e+00   0.0000000000000000e+00   0.0000000000000000e+00   0.0000000000000000e+00   0.00000000