<?xml version="1.0"?>
<VTKFile type="UnstructuredGrid"  version="0.1"  >
<UnstructuredGrid>
<Piece  NumberOfPoints="639" NumberOfCells="1175">
<Points>
<DataArray  type="Float64"  NumberOfComponents="3"  format="ascii">1.321739130434783 0 0  1.338260869565217 0 0  1.338260869565217 0.01666666666666667 0  1.354782608695652 0 0  1.354782608695652 0.01666666666666667 0  1.371304347826087 0 0  1.371304347826087 0.01666666666666667 0  1.387826086956522 0 0  1.387826086956522 0.01666666666666667 0  1.404347826086957 0 0  1.404347826086957 0.01666666666666667 0  1.420869565217391 0 0  1.420869565217391 0.01666666666666667 0  1.437391304347826 0 0  1.437391304347826 0.01666666666666667 0  1.453913043478261 0 0  1.453913043478261 0.01666666666666667 0  1.470434782608696 0 0  1.470434782608696 0.01666666666666667 0  1.486956521739131 0 0  1.486956521739131 0.01666666666666667 0  1.503478260869565 0 0  1.503478260869565 0.01666666666666667 0  1.52 0 0  1.52 0.01666666666666667 0  1.536521739130435 0 0  1.536521739130435 0.01666666666666667 0  1.55304347826087 0 0  1.55304347826087 0.01666666666666667 0  1.569565217391304 0 0  1.569565217391304 0.01666666666666667 0  1.586086956521739 0 0  1.586086956521739 0.01666666666666667 0  1.602608695652174 0 0  1.602608695652174 0.01666666666666667 0  1.619130434782609 0 0  1.619130434782609 0.01666666666666667 0  1.635652173913043 0 0  1.635652173913043 0.01666666666666667 0  1.652173913043478 0 0  1.652173913043478 0.01666666666666667 0  1.668695652173913 0 0  1.668695652173913 0.01666666666666667 0  1.685217391304348 0 0  1.685217391304348 0.01666666666666667 0  1.701739130434782 0 0  1.701739130434782 0.01666666666666667 0  1.718260869565217 0 0  1.718260869565217 0.01666666666666667 0  1.734782608695652 0 0  1.734782608695652 0.01666666666666667 0  1.751304347826087 0 0  1.751304347826087 0.01666666666666667 0  1.767826086956522 0 0  1.767826086956522 0.01666666666666667 0  1.784347826086957 0 0  1.784347826086957 0.01666666666666667 0  1.800869565217391 0 0  1.800869565217391 0.01666666666666667 0  1.817391304347826 0 0  1.817391304347826 0.01666666666666667 0  1.833913043478261 0 0  1.833913043478261 0.01666666666666667 0  1.850434782608696 0 0  1.850434782608696 0.01666666666666667 0  1.86695652173913 0 0  1.86695652173913 0.01666666666666667 0  1.883478260869565 0 0  1.883478260869565 0.01666666666666667 0  1.354782608695652 0.03333333333333333 0  1.371304347826087 0.03333333333333333 0  1.387826086956522 0.03333333333333333 0  1.404347826086957 0.03333333333333333 0  1.420869565217391 0.03333333333333333 0  1.437391304347826 0.03333333333333333 0  1.453913043478261 0.03333333333333333 0  1.470434782608696 0.03333333333333333 0  1.486956521739131 0.03333333333333333 0  1.503478260869565 0.03333333333333333 0  1.52 0.03333333333333333 0  1.536521739130435 0.03333333333333333 0  1.55304347826087 0.03333333333333333 0  1.569565217391304 0.03333333333333333 0  1.586086956521739 0.03333333333333333 0  1.602608695652174 0.03333333333333333 0  1.619130434782609 0.03333333333333333 0  1.635652173913043 0.03333333333333333 0  1.652173913043478 0.03333333333333333 0  1.668695652173913 0.03333333333333333 0  1.685217391304348 0.03333333333333333 0  1.701739130434782 0.03333333333333333 0  1.718260869565217 0.03333333333333333 0  1.734782608695652 0.03333333333333333 0  1.751304347826087 0.03333333333333333 0  1.767826086956522 0.03333333333333333 0  1.784347826086957 0.03333333333333333 0  1.800869565217391 0.03333333333333333 0  1.817391304347826 0.03333333333333333 0  1.833913043478261 0.03333333333333333 0  1.850434782608696 0.03333333333333333 0  1.86695652173913 0.03333333333333333 0  1.883478260869565 0.03333333333333333 0  1.371304347826087 0.05 0  1.387826086956522 0.05 0  1.404347826086957 0.05 0  1.420869565217391 0.05 0  1.437391304347826 0.05 0  1.453913043478261 0.05 0  1.470434782608696 0.05 0  1.486956521739131 0.05 0  1.503478260869565 0.05 0  1.52 0.05 0  1.536521739130435 0.05 0  1.55304347826087 0.05 0  1.569565217391304 0.05 0  1.586086956521739 0.05 0  1.602608695652174 0.05 0  1.619130434782609 0.05 0  1.635652173913043 0.05 0  1.652173913043478 0.05 0  1.668695652173913 0.05 0  1.685217391304348 0.05 0  1.701739130434782 0.05 0  1.718260869565217 0.05 0  1.734782608695652 0.05 0  1.751304347826087 0.05 0  1.767826086956522 0.05 0  1.784347826086957 0.05 0  1.800869565217391 0.05 0  1.817391304347826 0.05 0  1.833913043478261 0.05 0  1.850434782608696 0.05 0  1.86695652173913 0.05 0  1.883478260869565 0.05 0  1.387826086956522 0.06666666666666667 0  1.404347826086957 0.06666666666666667 0  1.420869565217391 0.06666666666666667 0  1.437391304347826 0.06666666666666667 0  1.453913043478261 0.06666666666666667 0  1.470434782608696 0.06666666666666667 0  1.486956521739131 0.06666666666666667 0  1.503478260869565 0.06666666666666667 0  1.52 0.06666666666666667 0  1.536521739130435 0.06666666666666667 0  1.55304347826087 0.06666666666666667 0  1.569565217391304 0.06666666666666667 0  1.586086956521739 0.06666666666666667 0  1.602608695652174 0.06666666666666667 0  1.619130434782609 0.06666666666666667 0  1.635652173913043 0.06666666666666667 0  1.652173913043478 0.06666666666666667 0  1.668695652173913 0.06666666666666667 0  1.685217391304348 0.06666666666666667 0  1.701739130434782 0.06666666666666667 0  1.718260869565217 0.06666666666666667 0  1.734782608695652 0.06666666666666667 0  1.751304347826087 0.06666666666666667 0  1.767826086956522 0.06666666666666667 0  1.784347826086957 0.06666666666666667 0  1.800869565217391 0.06666666666666667 0  1.817391304347826 0.06666666666666667 0  1.833913043478261 0.06666666666666667 0  1.850434782608696 0.06666666666666667 0  1.86695652173913 0.06666666666666667 0  1.883478260869565 0.06666666666666667 0  1.404347826086957 0.08333333333333333 0  1.420869565217391 0.08333333333333333 0  1.437391304347826 0.08333333333333333 0  1.453913043478261 0.08333333333333333 0  1.470434782608696 0.08333333333333333 0  1.486956521739131 0.08333333333333333 0  1.503478260869565 0.08333333333333333 0  1.52 0.08333333333333333 0  1.536521739130435 0.08333333333333333 0  1.55304347826087 0.08333333333333333 0  1.569565217391304 0.08333333333333333 0  1.586086956521739 0.08333333333333333 0  1.602608695652174 0.08333333333333333 0  1.619130434782609 0.08333333333333333 0  1.635652173913043 0.08333333333333333 0  1.652173913043478 0.08333333333333333 0  1.668695652173913 0.08333333333333333 0  1.685217391304348 0.08333333333333333 0  1.701739130434782 0.08333333333333333 0  1.718260869565217 0.08333333333333333 0  1.734782608695652 0.08333333333333333 0  1.751304347826087 0.08333333333333333 0  1.767826086956522 0.08333333333333333 0  1.784347826086957 0.08333333333333333 0  1.800869565217391 0.08333333333333333 0  1.817391304347826 0.08333333333333333 0  1.833913043478261 0.08333333333333333 0  1.850434782608696 0.08333333333333333 0  1.86695652173913 0.08333333333333333 0  1.883478260869565 0.08333333333333333 0  1.420869565217391 0.1 0  1.437391304347826 0.1 0  1.453913043478261 0.1 0  1.470434782608696 0.1 0  1.486956521739131 0.1 0  1.503478260869565 0.1 0  1.52 0.1 0  1.536521739130435 0.1 0  1.55304347826087 0.1 0  1.569565217391304 0.1 0  1.586086956521739 0.1 0  1.602608695652174 0.1 0  1.619130434782609 0.1 0  1.635652173913043 0.1 0  1.652173913043478 0.1 0  1.668695652173913 0.1 0  1.685217391304348 0.1 0  1.701739130434782 0.1 0  1.718260869565217 0.1 0  1.734782608695652 0.1 0  1.751304347826087 0.1 0  1.767826086956522 0.1 0  1.784347826086957 0.1 0  1.800869565217391 0.1 0  1.817391304347826 0.1 0  1.833913043478261 0.1 0  1.850434782608696 0.1 0  1.86695652173913 0.1 0  1.883478260869565 0.1 0  1.437391304347826 0.1166666666666667 0  1.453913043478261 0.1166666666666667 0  1.470434782608696 0.1166666666666667 0  1.486956521739131 0.1166666666666667 0  1.503478260869565 0.1166666666666667 0  1.52 0.1166666666666667 0  1.536521739130435 0.1166666666666667 0  1.55304347826087 0.1166666666666667 0  1.569565217391304 0.1166666666666667 0  1.586086956521739 0.1166666666666667 0  1.602608695652174 0.1166666666666667 0  1.619130434782609 0.1166666666666667 0  1.635652173913043 0.1166666666666667 0  1.652173913043478 0.1166666666666667 0  1.668695652173913 0.1166666666666667 0  1.685217391304348 0.1166666666666667 0  1.701739130434782 0.1166666666666667 0  1.718260869565217 0.1166666666666667 0  1.734782608695652 0.1166666666666667 0  1.751304347826087 0.1166666666666667 0  1.767826086956522 0.1166666666666667 0  1.784347826086957 0.1166666666666667 0  1.800869565217391 0.1166666666666667 0  1.817391304347826 0.1166666666666667 0  1.833913043478261 0.1166666666666667 0  1.850434782608696 0.1166666666666667 0  1.86695652173913 0.1166666666666667 0  1.883478260869565 0.1166666666666667 0  1.453913043478261 0.1333333333333333 0  1.470434782608696 0.1333333333333333 0  1.486956521739131 0.1333333333333333 0  1.503478260869565 0.1333333333333333 0  1.52 0.1333333333333333 0  1.536521739130435 0.1333333333333333 0  1.55304347826087 0.1333333333333333 0  1.569565217391304 0.1333333333333333 0  1.586086956521739 0.1333333333333333 0  1.602608695652174 0.1333333333333333 0  1.619130434782609 0.1333333333333333 0  1.635652173913043 0.1333333333333333 0  1.652173913043478 0.1333333333333333 0  1.668695652173913 0.1333333333333333 0  1.685217391304348 0.1333333333333333 0  1.701739130434782 0.1333333333333333 0  1.718260869565217 0.1333333333333333 0  1.734782608695652 0.1333333333333333 0  1.751304347826087 0.1333333333333333 0  1.767826086956522 0.1333333333333333 0  1.784347826086957 0.1333333333333333 0  1.800869565217391 0.1333333333333333 0  1.817391304347826 0.1333333333333333 0  1.833913043478261 0.1333333333333333 0  1.850434782608696 0.1333333333333333 0  1.86695652173913 0.1333333333333333 0  1.883478260869565 0.1333333333333333 0  1.470434782608696 0.15 0  1.486956521739131 0.15 0  1.503478260869565 0.15 0  1.52 0.15 0  1.5365217391304
[...]
<CellData  Scalars="sigma_m"> 
<DataArray  type="Float64"  Name="sigma_m"  format="ascii">8.4048768498500157e+06   8.6250084913535919e+06   8.9622168689300697e+06   8.8678370411951710e+06   8.6254345003595110e+06   9.0482445067211986e+06   8.4385701731100902e+06   9.1392701135685332e+06   8.4176344827964157e+06   9.0937643549439572e+06   8.5667239705961458e+06   8.9329625125455055e+06   8.7626129101492893e+06   8.9528753470188137e+06   8.6602153796830513e+06   9.1694476177282967e+06   8.2412736434277529e+06   9.5001762328403126e+06   7.7422496971994778e+06   9.6958208355038594e+06   7.2981540580171049e+06   1.0065373441273505e+07   7.1192693538799435e+06   1.0965840469226835e+07   7.2406183313392289e+06   1.2440123541612791e+07   7.5986608715321468e+06   1.4230651473796785e+07   7.9949952795966063e+06   1.5783885004112011e+07   8.1131014807003187e+06   1.6828611574676134e+07   8.3133589728521043e+06   1.6100160543811278e+07   8.7312570310806260e+06   1.4493785425787676e+07   8.5223312800247967e+06   1.2593283250054486e+07   8.3368961145436838e+06   1.0266007808538781e+07   8.6372018106522430e+06   7.8208755355285779e+06   8.4820197815375123e+06   5.6717300906341076e+06   7.7718289371583676e+06   3.9466112064246694e+06   6.6143190650333455e+06   2.4568055563322781e+06   5.1679371142566744e+06   1.2326395855385300e+06   4.1022697739112237e+06   1.2726426864826435e+06   3.5550315342388572e+06   2.2619793074857178e+06   3.3432777966619940e+06   3.5276072714126883e+06   3.4381925059144059e+06   4.7118064518012302e+06   3.7286168308885125e+06   5.2783543781016367e+06   4.0679521469027260e+06   5.3050380194336539e+06   4.4340991663076580e+06   4.9682733629200859e+06   4.8979012911187578e+06   4.6867220504746549e+06   5.2290809335429464e+06   8.9515172111118715e+06   8.5921011033313945e+06   7.9051818178240536e+06   8.3987210228543729e+06   7.3531853342666263e+06   8.3820081571307536e+06   7.2468125817995872e+06   8.5602271830927916e+06   7.4555641510366965e+06   8.7668033442813978e+06   8.4848839189226292e+06   8.6088440755572077e+06   9.4722386063254960e+06   8.1566335438308790e+06   7.3263296127779325e+06   7.6058756800041562e+06   6.1025015362125663e+06   7.1395700579085220e+06   4.1505262478392753e+06   7.1242012664556317e+06   3.5722292954289275e+06   7.5582458510068320e+06   3.3087870312865870e+06   8.1779650255604247e+06   3.2032356346388925e+06   8.6092291152570285e+06   2.8205078586060544e+06   8.3473230933231413e+06   2.3550565782484985e+06   8.1427874415212730e+06   3.0363686479219105e+06   6.9246688686158853e+06   7.0638986591867218e+06   6.3731063959874166e+06   6.2078421827617949e+06   6.7104061900583729e+06   4.5807492575333063e+06   7.4830218015825041e+06   5.2825778162834346e+06   8.5255644823107142e+06   8.3153703292459184e+06   9.1401003390684891e+06   1.2215865089377165e+07   7.9516162779805483e+06   9.5417606311851107e+06   6.7099950562083302e+06   1.0269971411196491e+07   4.5199479153905427e+06   6.2027593217644589e+06   3.2699623779729083e+06   4.1808051961012012e+06   3.1090319582021073e+06   3.2295925669098566e+06   3.6028417671410986e+06   2.9816054285129402e+06   4.1490479054742232e+06   2.9655565860391785e+06   4.3422676575200614e+06   2.6764995760386316e+06   4.3976156778665697e+06   3.4004615207842565e+06   4.9366601982812695e+06   3.6476454293642882e+06   5.2501027786181951e+06   6.6029681479899790e+06   2.1500054759615276e+04   5.0380533016569978e+04   3.9987753956128902e+00   6.5764804857806885e+04   8.5447295392817608e+00   4.1910513648278058e+04   9.2652156827475967e+00   1.9929523285675023e+04   6.6638903386428963e+00   2.2109382529486917e+04   7.1196432108026304e+00   6.1523734369261388e+05   6.5545058985085504e+01   5.1300356824554661e+06   7.8877412315624257e+04   3.7127654727070229e+06   1.7244342778390490e+06   3.7001970798987993e+06   9.8210262200840609e+05   3.7868669028915251e+06   4.5991892538407148e+05   3.5883731709937011e+06   3.3132154293557577e+05   2.9261453099231552e+06   1.1587087655524376e+06   2.3220306099069347e+06   5.1376589120130809e+06   5.8872661896454794e+06   7.3655564996809717e+06   5.3661902310077669e+06   1.7098878832958519e+07   1.4963546987742488e+06   3.2998951847202764e+06   2.7624174012963881e+05   2.7899582407451277e+02   3.8487106170606744e+03   1.4722980175563032e+00   9.3737879116100032e+02   1.8147911926343616e-01   3.7371919030192985e+03   2.4897095111898207e-01   7.3322898660344142e+05   5.9840816260690648e+00   1.1325660484095600e+07   1.6448746842929908e+04   8.8784099261517208e+06   8.9873059507974703e+06   5.0810521316660093e+06   4.5647016819240982e+06   3.1793131911066826e+06   2.3611495260410528e+06   2.6758975414764052e+06   1.4754873390870215e+06   3.0719108238809695e+06   1.5868476887412453e+06   2.9913674264129577e+06   1.8350393030758072e+06   2.8372001642503599e+06   2.1599737640000209e+06   2.7873434379117808e+05   1.2645574034369969e+04   2.9749005255319089e+03   8.7916169082169588e+00   0.0000000000000000e+00   0.0000000000000000e+00   0.0000000000000000e+00   0.0000000000000000e+00   0.0000000000000000e+00   0.0000000000000000e+00   0.0000000000000000e+00   1.8143549943441257e-09   0.0000000000000000e+00   2.6067844766296620e-06   4.7737379991340210e-10   1.4254277601250875e+00   1.5022584393897605e-05   1.9395112880664449e+06   6.3794517800463200e+03   1.5181291597990377e+06   1.8036380880280284e+06   7.0278819285611634e+05   1.3730418836059638e+06   1.1587668255584389e+06   1.0049212005496076e+06   4.5999882468242114e+06   2.8611087415061817e+06   9.4816310395428352e+06   9.2889100024887491e+06   7.1875762123059575e+06   9.5083830936378185e+06   1.4127770890668119e+00   1.0401024178761670e-01   8.9980476676842308e-07   2.3790656912023066e-08   0.0000000000000000e+00   0.0000000000000000e+00   0.0000000000000000e+00   0.0000000000000000e+00   0.0000000000000000e+00   0.0000000000000000e+00   0.0000000000000000e+00   0.0000000000000000e+00   9.1278802346697221e-10   0.0000000000000000e+00   1.0020250225924205e-04   0.0000000000000000e+00   1.7804571998991571e+04   5.7419262376803490e-04   5.6886811785936560e+06   3.2236501970392023e+06   3.4026772593611479e+06   3.4154505305823246e+06   1.7688560261213589e+06   1.6196592327582478e+06   1.9807569073520678e+06   4.4758182086757943e+05   5.5896059504038496e+06   1.7243388364840632e+06   1.2277348346432805e+03   9.3738923074457980e+03   2.7644013515548877e-04   3.5510612283549839e-04   3.0396979011347357e-08   6.4277395172633680e-09   0.0000000000000000e+00   0.0000000000000000e+00   0.0000000000000000e+00   0.0000000000000000e+00   0.0000000000000000e+00   0.0000000000000000e+00   0.0000000000000000e+00   0.0000000000000000e+00   0.0000000000000000e+00   2.1708477243068865e-05   1.0712576320042764e-07   1.1286072684274694e+05   6.9050181049231878e+02   1.1616688403298985e+06   2.4612630682652579e+06   1.2043146733768701e+06   1.3156888786017133e+06   3.2211888283662191e+06   1.4510965931656715e+06   6.0878337969609592e+06   4.5503192630378390e+06   9.5555585824026018e+06   6.0061577299346766e+06   8.5208284758862103e-04   1.8886804524159521e-03   0.0000000000000000e+00   0.0000000000000000e+00   0.0000000000000000e+00   0.0000000000000000e+00   0.0000000000000000e+00   0.0000000000000000e+00   0.0000000000000000e+00   0.0000000000000000e+00   0.0000000000000000e+00   0.0000000000000000e+00   0.0000000000000000e+00   0.0000000000000000e+00   0.0000000000000000e+00   0.0000000000000000e+00   0.0000000000000000e+00   0.0000000000000000e+00   7.0724699626809990e-07   0.0000000000000000e+00   1.5176801925411439e+06   2.9873896394997823e-01   4.5759929699812951e+06   5.0497869826562693e+06   2.6983393389528855e+06   2.8094634368823213e+06   2.3822241732662432e+06   1.3243015294884066e+06   5.2181951770723835e+06   1.0957036917511737e+06   5.8546861477269800e+00   2.1074729523714796e+04   5.5081230743644525e-08   6.1595917450838405e-06   0.0000000000000000e+00   0.0000000000000000e+00   0.0000000000000000e+00   0.0000000000000000e+00   0.0000000000000000e+00   0.0000000000000000e+00   0.0000000000000000e+00   0.0000000000000000e+00   0.0000000000000000e+00   1.4130706362839658e-03   1.1426628306440931e-04   1.1341022022897077e+06   1.0495295234084511e+06   1.4969390991319299e+06   1.7410840582598294e+06   2.6403185242399503e+06   1.6113867596114317e+06   4.7685685177710168e+06   2.0215641422464489e+06   8.9874842610072065e+06   4.1543202037145523e+06   8.9201222823811488e+00   1.1607303757360426e+03   0.0000000000000000e+00   0.0000000000000000e+00   0.0000000000000000e+00   0.0000000000000000e+00   0.0000000000000000e+00   0.0000000000000000e+00   0.0000000000000000e+00   0.0000000000000000e+00   0.0000000000000000e+00   0.0000000000000000e+00   0.0000000000000000e+00   0.0000000000000000e+00   0.0000000000000000e+00   0.0000000000000000e+00   0.0000000000000000e+00   0.0000000000000000e+00   0.0000000000000000e+00   0.0000000000000000e+00   0.0000000000000000e+00   0.0000000000000000e+00   3.4827903364095836e-01   1.7992899547260032e-07   4.4161658406876381e+06   3.3285191236967007e+06   3.0402135425092806e+06   3.3340432154971240e+06   2.5422258306960221e+06   2.0135258386434619e+06   1.3278164873146373e+06   9.6766920855586743e+05   1.3301590635813407e+04   6.2092792187894264e+05   1.3714939298660465e-06   2.9453121949947697e-01   0.0000000000000000e+00   0.0000000000000000e+00   0.0000000000000000e+00   0.0000000000000000e+00   0.0000000000000000e+00   8.5980592726456483e-07   3.5895744911115957e-07   4.4388610770363821e+03   1.2987034800670428e+03   7.9292969367025211e+05   1.1015039807034845e+06   1.8334689703414314e+06   1.7376838477153494e+06   2.8889569271152085e+06   2.0772921212700957e+06   3.7745124777007331e+06   2.2752250254470184e+06   5.3536871850569276e+06   2.4229429884374947e+06   1.1642349194816170e-04   2.1409814510019807e-02   0.0000000000000000e+00   0.0000000000000000e+00   0.0000000000000000e+00   0.0000000000000000e+00   0.0000000000000000e+00   0.0000000000000000e+00   0.0000000000000000e+00   0.0000000000000000e+00   0.0000000000000000e+00   0.0000000000000000e+00   0.0000000000000000e+00   0.0000000000000000e+00   0.0000000000000000e+00   0.0000000000000000e+00   0.0000000000000000e+00   0.0000000000000000e+00   0.0000000000000000e+00   0.0000000000000000e+00   0.0000000000000000e+00   0.0000000000000000e+00   2.3088092338388965e-07   0.0000000000000000e+00   2.5381204308088892e+06   3.5674155659330168e+01   2.4886871198402802e+06   2.4180604387304955e+06   2.4189936335645379e+06   2.1313636739753056e+06   1.6526561995505309e+06   1.5670982799355928e+06   1.0613268360680316e+06   1.2544296430457064e+06   4.0805614447731449e+00   1.0239197373246618e+06   1.3693805636212885e-09   6.4167350385348956e-03   8.3519645939906775e-07   7.0722404407560282e+02   1.1149122607628819e+03   1.5000616779103312e+06   1.8155853074606413e+06   1.3414807266669378e+06   1.7313844421885598e+06   1.8280150481419335e+06   1.8457056295071992e+06   2.3311689990787827e+06   2.0076684182920060e+06   2.2220553981102379e+06   2.1513098927488979e+06   6.3916057773533736e+04   4.7910412734578759e+05   2.0895383665792787e-09   1.0044780321950507e-07   0.0000000000000000e+00   0.0000000000000000e+00   0.0000000000000000e+00   0.0000000000000000e+00   0.0000000000000000e+00   0.0000000000000000e+00   0.0000000000000000e+00   0.0000000000000000e+00   0.0000000000000000e+00   0.0000000000000000e+00   0.0000000000000000e+00   0.0000000000000000e+00   0.0000000000000000e+00   0.0000000000000000e+00   0.0000000000000000e+00   0.0000000000000000e+00   0.0000000000000000e+00   0.0000000000000000e+00   0.0000000000000000e+00   0.0000000000000000e+00   0.0000000000000000e+00   0.0000000000000000e+00   1.2276668408011988e+01   1.7654062051542340e-07   2.0377512330684871e+06   1.1077067942630809e+06   2.0363724510980633e+06   1.8713799580434035e+06   1.7210838608801542e+06   1.6400190312986576e+06   1.4504698157110512e+06   1.5121482492203417e+06   1.4666631695436342e+06   1.6368147141996673e+06   7.1251320630721686e+00   1.4697953754430749e+06   2.4052305049131559e+06   1.8894769263144990e+06   2.0710615252660925e+06   1.5851788668018689e+06   1.7492744219168627e+06   1.8830676376319339e+06   1.7059109706544280e+06   2.2005699906497686e+06   1.8701648873808696e+06   2.2814523163728649e+06   1.2767930830223437e+06   1.5332734895359362e-01   2.4849884094621975e+00   0.0000000000000000e+00   0.0000000000000000e+00   0.0000000000000000e+00   0.0000000000000000e+00   0.0000000000000000e+00   0.0000000000000000e+00   0.0000000000000000e+00   0.0000000000000000e+00   0.0000000000000000e+00   0.0000000000000000e+00   0.0000000000000000e+00   0.0000000000000000e+00   0.0000000000000000e+00   0.0000000000000000e+00   0.0000000000000000e+00   0.0000000000000000e+00   0.0000000000000000e+00   0.0000000000000000e+00   0.0000000000000000e+00   0.0000000000000000e+00   0.0000000000000000e+00   0.0000000000000000e+00   0.0000000000000000e+00   0.0000000000000000e+00   3.1405319711190556e-08   0.0000000000000000e+00   4.7875884522394097e+05   1.2840526275847265e-03   1.8212646925615999e+06   1.5892412007487323e+06   1.6373606465567783e+06   1.5740466082644339e+06   1.5341818847703189e+06   1.5479439352514818e+06   1.6113557400867511e+06   1.6506072965248090e+06   1.7904051712090718e+06   1.9346662564426118e+06   1.7587241405328645e+06   1.5839573262931437e+06   1.4232154872189229e+06   1.6728150500222060e+06   1.4574137392521100e+06   1.5395327759857732e+06   1.4334594663952270e+06   1.5636109399130944e+03   2.4538479016626748e+03   0.0000000000000000e+00   2.5117078946227238e-09   0.0000000000000000e+00   0.0000000000000000e+00   0.0000000000000000e+00   0.0000000000000000e+00   0.0000000000000000e+00   0.0000000000000000e+00   0.0000000000000000e+00   0.0000000000000000e+00   0.0000000000000000e+00   0.0000000000000000e+00   0.0000000000000000e+00   0.0000000000000000e+00   0.0000000000000000e+00   0.0000000000000000e+00   0.0000000000000000e+00   0.0000000000000000e+00   0.0000000000000000e+00   0.0000000000000000e+00   0.0000000000000000e+00   0.0000000000000000e+00   0.0000000000000000e+00   0.0000000000000000e+00   0.0000000000000000e+00   0.0000000000000000e+00   0.0000000000000000e+00   0.0000000000000000e+00   9.9254774944384903e-06   0.0000000000000000e+00   9.0604848193267582e+05   6.9919039691228139e-03   1.4694038754238647e+06   1.2620147664239560e+06   1.4411248133070206e+06   1.4310374811163598e+06   1.5136349029290408e+06   1.5450379740331722e+06   1.6173677364528209e+06   1.6081198532555935e+06   1.2590944260470048e+06   8.8277578074939107e+05   1.0783405507172474e+06   1.3356029339063830e+03   3.2668297671828958e+02   1.0754200586208263e-08   1.1593796298284792e-08   0.0000000000000000e+00   0.0000000000000000e+00   0.0000000000000000e+00   0.0000000000000000e+00   0.0000000000000000e+00   0.0000000000000000e+00   0.0000000000000000e+00   0.0000000000000000e+00   0.0000000000000000e+00   0.0000000000000000e+00   0.0000000000000000e+00   0.0000000000000000e+00   0.0000000000000000e+00   0.0000000000000000e+00   0.0000000000000000e+00   0.0000000000000000e+00   0.0000000000000000e+00   0.0000000000000000e+00   0.0000000000000000e+00   0.0000000000000000e+00   0.0000000000000000e+00   0.0000000000000000e+00   0.0000000000000000e+00   0.0000000000000000e+00   0.0000000000000000e+00   0.0000000000000000e+00   0.0000000000000000e+00   0.0000000000000000e+00   0.0000000000000000e+00   0.0000000000000000e+00   2.9882978309061493e-06   0.0000000000000000e+00   4.0195953985765656e+04   3.4079951510837249e-04   1.1205536301892963e+06   5.3777044748559082e+05   1.4152635527808433e+06   1.4605646245625468e+06   1.5601607948381335e+06   1.5726478533466565e+06   2.0495925012449994e+00   0.0000000000000000e+00   0.0000000000000000e+00   0.0000000000000000e+00   0.0000000000000000e+00   0.0000000000000000e+00   0.0000000000000000e+00   0.0000000000000000e+00   0.0000000000000000e+00   0.0000000000000000e+00   0.0000000000000000e+00   0.0000000000000000e+00   0.0000000000000000e+00   0.0000000000000000e+00   0.0000000000000000e+00   0.0000000000000000e+00   0.0000000000000000e+00   0.0000000000000000e+00   0.0000000000000000e+00   0.0000000000000000e+00   0.0000000000000000e+00   0.0000000000000000e+00   0.0000000000000000e+00   0.0000000000000000e+00   0.0000000000000000e+00   0.0000000000000000e+00   0.0000000000000000e+00   0.0000000000000000e+00   0.0000000000000000e+00   0.0000000000000000e+00   0.0000000000000000e+00   0.0000000000000000e+00   0.0000000000000000e+00   0.0000000000000000e+00   0.0000000000000000e+00   0.0000000000000000e+00   0.0000000000000000e+00   1.8768287179415546e-08   0.0000000000000000e+00   8.1946016638930405e+02   6.5664626485111151e-07   1.4393333029516635e+06   3.1430954209822510e+04   1.7178656890081412e+06   1.6360461688164547e+06   0.0000000000000000e+00   0.0000000000000000e+00   0.0000000000000000e+00   0.0000000000000000e+00   0.0000000000000000e+00   0.0000000000000000e+00   0.0000000000000000e+00   0.0000000000000000e+00   0.0000000000000000e+00   0.0000000000000000e+00   0.0000000000000000e+00   0.0000000000000000e+00   0.0000000000000000e+00   0.0000000000000000e+00   0.0000000000000000e+00   0.0000000000000000e+00   0.0000000000000000e+00   0.0000000000000000e+00   0.0000000000000000e+00   0.0000000000000000e+00   0.0000000000000000e+00   0.0000000000000000e+00   0.0000000000000000e+00   0.0000000000000000e+00   0.0000000000000000e+00   0.0000000000000000e+00   0.0000000000000000e+00   0.0000000000000000e+00   0.0000000000000000e+00   0.0000000000000000e+00   0.0000000000000000e+00   0.0000000000000000e+00   0.0000000000000000e+00   0.0000000000000000e+00   0.0000000000000000e+00   0.0000000000000000e+00   0.0000000000000000e+00   0.0000000000000000e+00   0.0000000000000000e+00   1.6804178988522425e-01   0.0000000000000000e+00   1.3085329928530315e+06   5.0306748390812439e+00   0.0000000000000000e+00   0.0000000000000000e+00   0.0000000000000000e+00   0.0000000000000000e+00   0.0000000000000000e+00   0.0000000000000000e+00   0.0000000000000000e+00   0.0000000000000000e+00   0.0000000000000000e+00   0.0000000000000000e+00   0.0000000000000000e+00   0.0000000000000000e+00   0.0000000000000000e+00   0.0000000000000000e+00   0.0000000000000000e+00   0.0000000000000000e+00   0.0000000000000000e+00   0.0000000000000000e+00   0.0000000000000000e+00   0.0000000000000000e+00   0.0000000000000000e+00   0.0000000000000000e+00   0.0000000000000000e+00   0.0000000000000000e+00   0.0000000000000000e+00   0.0000000000000000e+00   0.0000000000000000e+00   0.0000000000000000e+00   0.0000000000000000e+00   0.0000000000000000e+00   0.0000000000000000e+00   0.0000000000000000e+00   0.0000000000000000e+00   0.0000000000000000e+00   0.0000000000000000e+00   0.0000000000000000e+00   0.0000000000000000e+00   0.0000000000000000e+00   0.0000000000000000e+00   2.6115736814427911e-05   0.0000000000000000e+00   0.0000000000000000e+00   0.0000000000000000e+00   0.0000000000000000e+00   0.0000000000000000e+00   0.0000000000000000e+00   0.0000000000000000e+00   0.0000000000000000e+00   0.0000000000000000e+00   0.0000000000000000e+00   0.0000000000000000e+00   0.0000000000000000e+00   0.0000000000000000e+00   0.0000000000000000e+00   0.0000000000000000e+00   0.0000000000000000e+00   0.0000000000000000e+00   0.0000000000000000e+00   0.0000000000000000e+00   0.0000000000000000e+00   0.0000000000000000e+00   0.0000000000000000e+00   0.0000000000000000e+00   0.0000000000000000e+00   0.0000000000000000e+00   0.0000000000000000e+00   0.0000000000000000e+00   0.0000000000000000e+00   0.0000000000000000e+00   0.0000000000000000e+00   0.0000000000000000e+00   0.0000000000000000e+00   0.0000000000000000e+00   0.0000000000000000e+00   0.0000000000000000e+00   0.0000000000000000e+00   0.0000000000000000e+00   0.0000000000000000e+00   0.0000000000000000e+00   0.0000000000000000e+00   0.0000000000000000e+00   0.00000000