<?xml version="1.0"?>
<VTKFile type="UnstructuredGrid"  version="0.1"  >
<UnstructuredGrid>
<Piece  NumberOfPoints="640" NumberOfCells="1181">
<Points>
<DataArray  type="Float64"  NumberOfComponents="3"  format="ascii">2.973913043478261 0 0  2.990434782608696 0 0  2.990434782608696 0.01666666666666667 0  2.973913043478261 0.01666666666666667 0  3.006956521739131 0 0  3.006956521739131 0.01666666666666667 0  3.023478260869565 0 0  3.023478260869565 0.01666666666666667 0  3.04 0 0  3.04 0.01666666666666667 0  3.056521739130435 0 0  3.056521739130435 0.01666666666666667 0  3.073043478260869 0 0  3.073043478260869 0.01666666666666667 0  3.089565217391304 0 0  3.089565217391304 0.01666666666666667 0  3.106086956521739 0 0  3.106086956521739 0.01666666666666667 0  3.122608695652174 0 0  3.122608695652174 0.01666666666666667 0  3.139130434782609 0 0  3.139130434782609 0.01666666666666667 0  3.155652173913043 0 0  3.155652173913043 0.01666666666666667 0  3.172173913043478 0 0  3.172173913043478 0.01666666666666667 0  3.188695652173913 0 0  3.188695652173913 0.01666666666666667 0  3.205217391304347 0 0  3.205217391304347 0.01666666666666667 0  3.221739130434782 0 0  3.221739130434782 0.01666666666666667 0  3.238260869565217 0 0  3.238260869565217 0.01666666666666667 0  2.990434782608696 0.03333333333333333 0  2.973913043478261 0.03333333333333333 0  3.006956521739131 0.03333333333333333 0  3.023478260869565 0.03333333333333333 0  3.04 0.03333333333333333 0  3.056521739130435 0.03333333333333333 0  3.073043478260869 0.03333333333333333 0  3.089565217391304 0.03333333333333333 0  3.106086956521739 0.03333333333333333 0  3.122608695652174 0.03333333333333333 0  3.139130434782609 0.03333333333333333 0  3.155652173913043 0.03333333333333333 0  3.172173913043478 0.03333333333333333 0  3.188695652173913 0.03333333333333333 0  3.205217391304347 0.03333333333333333 0  3.221739130434782 0.03333333333333333 0  3.238260869565217 0.03333333333333333 0  3.254782608695652 0.03333333333333333 0  2.990434782608696 0.05 0  3.006956521739131 0.05 0  3.023478260869565 0.05 0  3.04 0.05 0  3.056521739130435 0.05 0  3.073043478260869 0.05 0  3.089565217391304 0.05 0  3.106086956521739 0.05 0  3.122608695652174 0.05 0  3.139130434782609 0.05 0  3.155652173913043 0.05 0  3.172173913043478 0.05 0  3.188695652173913 0.05 0  3.205217391304347 0.05 0  3.221739130434782 0.05 0  3.238260869565217 0.05 0  3.254782608695652 0.05 0  3.271304347826087 0.05 0  3.006956521739131 0.06666666666666667 0  2.990434782608696 0.06666666666666667 0  3.023478260869565 0.06666666666666667 0  3.04 0.06666666666666667 0  3.056521739130435 0.06666666666666667 0  3.073043478260869 0.06666666666666667 0  3.089565217391304 0.06666666666666667 0  3.106086956521739 0.06666666666666667 0  3.122608695652174 0.06666666666666667 0  3.139130434782609 0.06666666666666667 0  3.155652173913043 0.06666666666666667 0  3.172173913043478 0.06666666666666667 0  3.188695652173913 0.06666666666666667 0  3.205217391304347 0.06666666666666667 0  3.221739130434782 0.06666666666666667 0  3.238260869565217 0.06666666666666667 0  3.254782608695652 0.06666666666666667 0  3.271304347826087 0.06666666666666667 0  3.287826086956521 0.06666666666666667 0  3.006956521739131 0.08333333333333333 0  3.023478260869565 0.08333333333333333 0  3.04 0.08333333333333333 0  3.056521739130435 0.08333333333333333 0  3.073043478260869 0.08333333333333333 0  3.089565217391304 0.08333333333333333 0  3.106086956521739 0.08333333333333333 0  3.122608695652174 0.08333333333333333 0  3.139130434782609 0.08333333333333333 0  3.155652173913043 0.08333333333333333 0  3.172173913043478 0.08333333333333333 0  3.188695652173913 0.08333333333333333 0  3.205217391304347 0.08333333333333333 0  3.221739130434782 0.08333333333333333 0  3.238260869565217 0.08333333333333333 0  3.254782608695652 0.08333333333333333 0  3.271304347826087 0.08333333333333333 0  3.287826086956521 0.08333333333333333 0  3.304347826086957 0.08333333333333333 0  3.023478260869565 0.1 0  3.006956521739131 0.1 0  3.04 0.1 0  3.056521739130435 0.1 0  3.073043478260869 0.1 0  3.089565217391304 0.1 0  3.106086956521739 0.1 0  3.122608695652174 0.1 0  3.139130434782609 0.1 0  3.155652173913043 0.1 0  3.172173913043478 0.1 0  3.188695652173913 0.1 0  3.205217391304347 0.1 0  3.221739130434782 0.1 0  3.238260869565217 0.1 0  3.254782608695652 0.1 0  3.271304347826087 0.1 0  3.287826086956521 0.1 0  3.304347826086957 0.1 0  3.320869565217391 0.1 0  3.023478260869565 0.1166666666666667 0  3.04 0.1166666666666667 0  3.056521739130435 0.1166666666666667 0  3.073043478260869 0.1166666666666667 0  3.089565217391304 0.1166666666666667 0  3.106086956521739 0.1166666666666667 0  3.122608695652174 0.1166666666666667 0  3.139130434782609 0.1166666666666667 0  3.155652173913043 0.1166666666666667 0  3.172173913043478 0.1166666666666667 0  3.188695652173913 0.1166666666666667 0  3.205217391304347 0.1166666666666667 0  3.221739130434782 0.1166666666666667 0  3.238260869565217 0.1166666666666667 0  3.254782608695652 0.1166666666666667 0  3.271304347826087 0.1166666666666667 0  3.287826086956521 0.1166666666666667 0  3.304347826086957 0.1166666666666667 0  3.320869565217391 0.1166666666666667 0  3.337391304347826 0.1166666666666667 0  3.04 0.1333333333333333 0  3.023478260869565 0.1333333333333333 0  3.056521739130435 0.1333333333333333 0  3.073043478260869 0.1333333333333333 0  3.089565217391304 0.1333333333333333 0  3.106086956521739 0.1333333333333333 0  3.122608695652174 0.1333333333333333 0  3.139130434782609 0.1333333333333333 0  3.155652173913043 0.1333333333333333 0  3.172173913043478 0.1333333333333333 0  3.188695652173913 0.1333333333333333 0  3.205217391304347 0.1333333333333333 0  3.221739130434782 0.1333333333333333 0  3.238260869565217 0.1333333333333333 0  3.254782608695652 0.1333333333333333 0  3.271304347826087 0.1333333333333333 0  3.287826086956521 0.1333333333333333 0  3.304347826086957 0.1333333333333333 0  3.320869565217391 0.1333333333333333 0  3.337391304347826 0.1333333333333333 0  3.353913043478261 0.1333333333333333 0  3.04 0.15 0  3.056521739130435 0.15 0  3.073043478260869 0.15 0  3.089565217391304 0.15 0  3.106086956521739 0.15 0  3.122608695652174 0.15 0  3.139130434782609 0.15 0  3.155652173913043 0.15 0  3.172173913043478 0.15 0  3.188695652173913 0.15 0  3.205217391304347 0.15 0  3.221739130434782 0.15 0  3.238260869565217 0.15 0  3.254782608695652 0.15 0  3.271304347826087 0.15 0  3.287826086956521 0.15 0  3.304347826086957 0.15 0  3.320869565217391 0.15 0  3.337391304347826 0.15 0  3.353913043478261 0.15 0  3.370434782608696 0.15 0  3.056521739130435 0.1666666666666667 0  3.073043478260869 0.1666666666666667 0  3.089565217391304 0.1666666666666667 0  3.106086956521739 0.1666666666666667 0  3.122608695652174 0.1666666666666667 0  3.139130434782609 0.1666666666666667 0  3.155652173913043 0.1666666666666667 0  3.172173913043478 0.1666666666666667 0  3.188695652173913 0.1666666666666667 0  3.205217391304347 0.1666666666666667 0  3.221739130434782 0.1666666666666667 0  3.238260869565217 0.1666666666666667 0  3.254782608695652 0.1666666666666667 0  3.271304347826087 0.1666666666666667 0  3.287826086956521 0.1666666666666667 0  3.304347826086957 0.1666666666666667 0  3.320869565217391 0.1666666666666667 0  3.337391304347826 0.1666666666666667 0  3.353913043478261 0.1666666666666667 0  3.370434782608696 0.1666666666666667 0  3.386956521739131 0.1666666666666667 0  3.073043478260869 0.1833333333333333 0  3.089565217391304 0.1833333333333333 0  3.106086956521739 0.1833333333333333 0  3.122608695652174 0.1833333333333333 0  3.139130434782609 0.1833333333333333 0  3.155652173913043 0.1833333333333333 0  3.172173913043478 0.1833333333333333 0  3.188695652173913 0.1833333333333333 0  3.205217391304347 0.1833333333333333 0  3.221739130434782 0.1833333333333333 0  3.238260869565217 0.1833333333333333 0  3.254782608695652 0.1833333333333333 0  3.271304347826087 0.1833333333333333 0  3.287826086956521 0.1833333333333333 0  3.304347826086957 0.1833333333333333 0  3.320869565217391 0.1833333333333333 0  3.337391304347826 0.1833333333333333 0  3.353913043478261 0.1833333333333333 0  3.370434782608696 0.1833333333333333 0  3.386956521739131 0.1833333333333333 0  3.403478260869565 0.1833333333333333 0  3.089565217391304 0.2 0  3.106086956521739 0.2 0  3.122608695652174 0.2 0  3.139130434782609 0.2 0  3.155652173913043 0.2 0  3.172173913043478 0.2 0  3.188695652173913 0.2 0  3.205217391304347 0.2 0  3.221739130434782 0.2 0  3.238260869565217 0.2 0  3.254782608695652 0.2 0  3.271304347826087 0.2 0  3.287826086956521 0.2 0  3.304347826086957 0.2 0  3.320869565217391 0.2 0  3.337391304347826 0.2 0  3.353913043478261 0.2 0  3.370434782608696 0.2 0  3.386956521739131 0.2 0  3.403478260869565 0.2 0  3.419999999999999 0.2 0  3.106086956521739 0.2166666666666667 0  3.122608695652174 0.2166666666666667 0  3.139130434782609 0.2166666666666667 0  3.155652173913043 0.2166666666666667 0  3.172173913043478 0.2166666666666667 0  3.188695652173913 0.2166666666666667 0  3.205217391304347 0.2166666666666667 0  3.221739130434782 0.2166666666666667 0  3.238260869565217 0.2166666666666667 0  3.254782608695652 0.2166666666666667 0  3.271304347826087 0.2166666666666667 0  3.287826086956521 0.2166666666666667 0  3.304347826086957 0.2166666666666667 0  3.320869565217391 0.2166666666666667 0  3.337391304347826 0.2166666666666667 0  3.353913043478261 0.2166666666666667 0  3.370434782608696 0.2166666666666667 0  3.386956521739131 0.2166666666666667 0  3.403478260869565 0.2166666666666667 0  3.419999999999999 0.2166666666666667 0  3.436521739130435 0.2166666666666667 0  3.122608695652174 0.2333333333333333 0  3.139130434782609 0.2333333333333333 0  3.155652173913043 0.2333333333333333 0  3.172173913043478 0.2333333333333333 0  3.188695652173913 0.2333333333333333 0  3.205217391304347 0.2333333333333333 0  3.221739130434782 0.2333333333333333 0  3.238260869565217 0.2333333333333333 0  3.254782
[...]
<PointData  Vectors="Displacement"> 
<DataArray  type="Float64"  Name="Displacement"  NumberOfComponents="3" format="ascii">4.3964795429958460e-04 4.4538228737493833e-03 0.0000000000000000e+00  4.4022735591498093e-04 4.4850545552435912e-03 0.0000000000000000e+00  4.0932824783602013e-04 4.4846797728534116e-03 0.0000000000000000e+00  4.0773386071899843e-04 4.4534447549708011e-03 0.0000000000000000e+00  4.4075320795994419e-04 4.5152329389026016e-03 0.0000000000000000e+00  4.1095825497252227e-04 4.5148642151248714e-03 0.0000000000000000e+00  4.4121880640149978e-04 4.5442514037214079e-03 0.0000000000000000e+00  4.1262060180614305e-04 4.5439110534654459e-03 0.0000000000000000e+00  4.4156796675616137e-04 4.5719000043322492e-03 0.0000000000000000e+00  4.1427628994404614e-04 4.5717523969218011e-03 0.0000000000000000e+00  4.4194920572923179e-04 4.5983361174256332e-03 0.0000000000000000e+00  4.1535130679511975e-04 4.5981519396068914e-03 0.0000000000000000e+00  4.4246427765628257e-04 4.6243570608723930e-03 0.0000000000000000e+00  4.1618167465550530e-04 4.6241089879340480e-03 0.0000000000000000e+00  4.4294215653947240e-04 4.6504382394489041e-03 0.0000000000000000e+00  4.1687579718136946e-04 4.6502496066642713e-03 0.0000000000000000e+00  4.4307791419305535e-04 4.6765153406465127e-03 0.0000000000000000e+00  4.1732379927028135e-04 4.6766564567149631e-03 0.0000000000000000e+00  4.4841650261579559e-04 4.7060007129852682e-03 0.0000000000000000e+00  4.1780400273758547e-04 4.7039933133481418e-03 0.0000000000000000e+00  4.5344031397730032e-04 4.7369903439851970e-03 0.0000000000000000e+00  4.2290593287167520e-04 4.7355700664702240e-03 0.0000000000000000e+00  4.5801382743121643e-04 4.7677407375725216e-03 0.0000000000000000e+00  4.2707280710419827e-04 4.7663978721384330e-03 0.0000000000000000e+00  4.6210725230559738e-04 4.7994233709146138e-03 0.0000000000000000e+00  4.3039517520272779e-04 4.7982601361657327e-03 0.0000000000000000e+00  4.6562411437716842e-04 4.8319697018739931e-03 0.0000000000000000e+00  4.3316462054568476e-04 4.8309978230204696e-03 0.0000000000000000e+00  4.6859127748650824e-04 4.8651303387336579e-03 0.0000000000000000e+00  4.3549949716278539e-04 4.8643109947629007e-03 0.0000000000000000e+00  4.7106008780811899e-04 4.8988022925514005e-03 0.0000000000000000e+00  4.3745368118930801e-04 4.8981220518192316e-03 0.0000000000000000e+00  4.7308145514725206e-04 4.9328603199396640e-03 0.0000000000000000e+00  4.3907869274216238e-04 4.9323038728981009e-03 0.0000000000000000e+00  3.7798218295565390e-04 4.4841067414327744e-03 0.0000000000000000e+00  3.7541047001490911e-04 4.4528873053343862e-03 0.0000000000000000e+00  3.8069331207753643e-04 4.5142748094025836e-03 0.0000000000000000e+00  3.8356798028950107e-04 4.5433032595628446e-03 0.0000000000000000e+00  3.8671146557407677e-04 4.5711420832868516e-03 0.0000000000000000e+00  3.8962138264147638e-04 4.5978899891010640e-03 0.0000000000000000e+00  3.9042204411181638e-04 4.6237453769239836e-03 0.0000000000000000e+00  3.9095873662295958e-04 4.6498409182106990e-03 0.0000000000000000e+00  3.9157633455048088e-04 4.6767864479638046e-03 0.0000000000000000e+00  3.9229554431891890e-04 4.7045535743819138e-03 0.0000000000000000e+00  3.9435587970568502e-04 4.7343715420506312e-03 0.0000000000000000e+00  3.9854470567335035e-04 4.7654672292661675e-03 0.0000000000000000e+00  3.9999334780887791e-04 4.7974043073478467e-03 0.0000000000000000e+00  4.0172761835599743e-04 4.8303312540949129e-03 0.0000000000000000e+00  4.0331477301213889e-04 4.8637502867685430e-03 0.0000000000000000e+00  4.0462412584036007e-04 4.8976578630033248e-03 0.0000000000000000e+00  4.0574280526018688e-04 4.9319233711522630e-03 0.0000000000000000e+00  4.0669420499696160e-04 4.9664391499961817e-03 0.0000000000000000e+00  3.5134429361422572e-04 4.4787569836143700e-03 0.0000000000000000e+00  3.5434267270118073e-04 4.5089811847167848e-03 0.0000000000000000e+00  3.5733161962626833e-04 4.5382346650532949e-03 0.0000000000000000e+00  3.6016277086354766e-04 4.5666131403345632e-03 0.0000000000000000e+00  3.6243343851627424e-04 4.5943512960401585e-03 0.0000000000000000e+00  3.6413817149717688e-04 4.6227669209888298e-03 0.0000000000000000e+00  3.6443195045609287e-04 4.6493182383173168e-03 0.0000000000000000e+00  3.6468280472778106e-04 4.6766721341245090e-03 0.0000000000000000e+00  3.6514282603497972e-04 4.7047380900090861e-03 0.0000000000000000e+00  3.6603258817683148e-04 4.7340508712026275e-03 0.0000000000000000e+00  3.6749016778331496e-04 4.7649961802085378e-03 0.0000000000000000e+00  3.6867103821993009e-04 4.7969097158371936e-03 0.0000000000000000e+00  3.7019597828008951e-04 4.8298138459003702e-03 0.0000000000000000e+00  3.7187347011234618e-04 4.8635844739865017e-03 0.0000000000000000e+00  3.7225668304803828e-04 4.8974865146598602e-03 0.0000000000000000e+00  3.7278334241122081e-04 4.9317724492834378e-03 0.0000000000000000e+00  3.7330224824294876e-04 4.9663360939533937e-03 0.0000000000000000e+00  3.7379207464491640e-04 5.0009834597469311e-03 0.0000000000000000e+00  3.2769187966957337e-04 4.5038859209252068e-03 0.0000000000000000e+00  3.2448859611343374e-04 4.4735351261909100e-03 0.0000000000000000e+00  3.3078878864862713e-04 4.5334116651636717e-03 0.0000000000000000e+00  3.3366277084422995e-04 4.5623499362972154e-03 0.0000000000000000e+00  3.3610430053505913e-04 4.5912002576949384e-03 0.0000000000000000e+00  3.3660398775067096e-04 4.6194848827655908e-03 0.0000000000000000e+00  3.3663624361500558e-04 4.6485843975396426e-03 0.0000000000000000e+00  3.3656641533095935e-04 4.6766247989620969e-03 0.0000000000000000e+00  3.3646978494725931e-04 4.7048691371478508e-03 0.0000000000000000e+00  3.3651075165439458e-04 4.7340975735580375e-03 0.0000000000000000e+00  3.3679380521098009e-04 4.7647613109929009e-03 0.0000000000000000e+00  3.3731591364497064e-04 4.7967124128573983e-03 0.0000000000000000e+00  3.3801500236590917e-04 4.8295803170690758e-03 0.0000000000000000e+00  3.3882722783551672e-04 4.8633683920101837e-03 0.0000000000000000e+00  3.3947906954837911e-04 4.8975693830077280e-03 0.0000000000000000e+00  3.3978378250591783e-04 4.9318353121772934e-03 0.0000000000000000e+00  3.3997508521218487e-04 4.9664421010622121e-03 0.0000000000000000e+00  3.4018902112774644e-04 5.0010651118932341e-03 0.0000000000000000e+00  3.4043821087025716e-04 5.0357033667248188e-03 0.0000000000000000e+00  3.0089760295062205e-04 4.4989882465664727e-03 0.0000000000000000e+00  3.0403906653637876e-04 4.5288534325067450e-03 0.0000000000000000e+00  3.0661280074605274e-04 4.5584024115541940e-03 0.0000000000000000e+00  3.0815973212007216e-04 4.5885542418739730e-03 0.0000000000000000e+00  3.0799058183281750e-04 4.6188237538876825e-03 0.0000000000000000e+00  3.0786952007287583e-04 4.6481701035483089e-03 0.0000000000000000e+00  3.0768008834943043e-04 4.6767200856490995e-03 0.0000000000000000e+00  3.0727165996166303e-04 4.7051282144068354e-03 0.0000000000000000e+00  3.0648737884663422e-04 4.7342852442498178e-03 0.0000000000000000e+00  3.0574017176375988e-04 4.7647997723942502e-03 0.0000000000000000e+00  3.0531348687681196e-04 4.7966640019873235e-03 0.0000000000000000e+00  3.0529521400451926e-04 4.8296002665656626e-03 0.0000000000000000e+00  3.0550594422889442e-04 4.8633190109669631e-03 0.0000000000000000e+00  3.0586612608426951e-04 4.8975521532542421e-03 0.0000000000000000e+00  3.0626104412702349e-04 4.9320605397800144e-03 0.0000000000000000e+00  3.0659948175648671e-04 4.9667313419623832e-03 0.0000000000000000e+00  3.0657824643440126e-04 5.0012909219230147e-03 0.0000000000000000e+00  3.0665804584279252e-04 5.0358542866971228e-03 0.0000000000000000e+00  3.0678983998039662e-04 5.0704589616581922e-03 0.0000000000000000e+00  2.7758075573630967e-04 4.5244197080746267e-03 0.0000000000000000e+00  2.7426145973275266e-04 4.4942033486206614e-03 0.0000000000000000e+00  2.8006010968203721e-04 4.5550606305708539e-03 0.0000000000000000e+00  2.7948863299506185e-04 4.5872203093581653e-03 0.0000000000000000e+00  2.7916423237970151e-04 4.6182718035176797e-03 0.0000000000000000e+00  2.7897249484837690e-04 4.6480100637026744e-03 0.0000000000000000e+00  2.7884214557061167e-04 4.6768350472221575e-03 0.0000000000000000e+00  2.7864005836552663e-04 4.7053473638450118e-03 0.0000000000000000e+00  2.7729816675365433e-04 4.7345770056444495e-03 0.0000000000000000e+00  2.7484662534470595e-04 4.7650906796358810e-03 0.0000000000000000e+00  2.7252734472825256e-04 4.7968548340781786e-03 0.0000000000000000e+00  2.7184843751919475e-04 4.8296864244685858e-03 0.0000000000000000e+00  2.7178441625929506e-04 4.8633687680416206e-03 0.0000000000000000e+00  2.7192772131075693e-04 4.8976175508909708e-03 0.0000000000000000e+00  2.7216519336366860e-04 4.9321392475898326e-03 0.0000000000000000e+00  2.7246367690441996e-04 4.9668361875587945e-03 0.0000000000000000e+00  2.7276782473899627e-04 5.0015812147897448e-03 0.0000000000000000e+00  2.7288670193174869e-04 5.0361008792045676e-03 0.0000000000000000e+00  2.7286066563154986e-04 5.0706138872275213e-03 0.0000000000000000e+00  2.7293341474001739e-04 5.1052378433647187e-03 0.0000000000000000e+00  2.5049521522280425e-04 4.5208636488783486e-03 0.0000000000000000e+00  2.4974858756924819e-04 4.5543281490704763e-03 0.0000000000000000e+00  2.4938465978221721e-04 4.5867433041682807e-03 0.0000000000000000e+00  2.4916888486715884e-04 4.6179810398869021e-03 0.0000000000000000e+00  2.4917424575514189e-04 4.6480918532800673e-03 0.0000000000000000e+00  2.4930858237474224e-04 4.6770618569774670e-03 0.0000000000000000e+00  2.4945894136168189e-04 4.7055742361739638e-03 0.0000000000000000e+00  2.4658409299459764e-04 4.7353484753468794e-03 0.0000000000000000e+00  2.4402736996002527e-04 4.7662063185228100e-03 0.0000000000000000e+00  2.4170576491328225e-04 4.7978711371527262e-03 0.0000000000000000e+00  2.3968464197793722e-04 4.8302648547672144e-03 0.0000000000000000e+00  2.3761392703372601e-04 4.8634358959031418e-03 0.0000000000000000e+00  2.3765157067825088e-04 4.8976713124936873e-03 0.0000000000000000e+00  2.3786367549576652e-04 4.9322292948460762e-03 0.0000000000000000e+00  2.3810769424556367e-04 4.9669331947398464e-03 0.0000000000000000e+00  2.3834266897155459e-04 5.0016208618058455e-03 0.0000000000000000e+00  2.3855536695649519e-04 5.0362274392677150e-03 0.0000000000000000e+00  2.3872262543115304e-04 5.0707723896180170e-03 0.0000000000000000e+00  2.3882977830559955e-04 5.1053969139794120e-03 0.0000000000000000e+00  2.3893886398418168e-04 5.1400069485052517e-03 0.0000000000000000e+00  2.1827170405220160e-04 4.5539297526875746e-03 0.0000000000000000e+00  2.1861188038505171e-04 4.5204216688844532e-03 0.0000000000000000e+00  2.1806229376331688e-04 4.5864495395565750e-03 0.0000000000000000e+00  2.1808749839093361e-04 4.6179699127147341e-03 0.0000000000000000e+00  2.1824495359766582e-04 4.6482942430158226e-03 0.0000000000000000e+00  2.1853424296958737e-04 4.6776526380462435e-03 0.0000000000000000e+00  2.1640562910628958e-04 4.7058424369613569e-03 0.0000000000000000e+00  2.1435207744398510e-04 4.7361290431391975e-03 0.0000000000000000e+00  2.1219985825641062e-04 4.7669931844727996e-03 0.0000000000000000e+00  2.1014345254809184e-04 4.7986075131543895e-03 0.0000000000000000e+00  2.0821839787638885e-04 4.8309287461265416e-03 0.0000000000000000e+00  2.0644645127687575e-04 4.8639928734895404e-03 0.0000000000000000e+00  2.0493549597141653e-04 4.8976734347356225e-03 0.0000000000000000e+00  2.0351139046977882e-04 4.9322976093122859e-03 0.0000000000000000e+00  2.0381004697126435e-04 4.9670559055872768e-03 0.0000000000000000e+00  2.0403935388594823e-04 5.0017057894181718e-03 0.0000000000000000e+00  2.0427254574056569e-04 5.0363189303746945e-03 0.0000000000000000e+00  2.0448884495411773e-04 5.0709138080637980e-03 0.0000000000000000e+00  2.0470536816956183e-04 5.1055461595899652e-03 0.0000000000000000e+00  2.0482406886114849e-04 5.1401705098518746e-03 0.0000000000000000e+00  2.0494097313152935e-04 5.1747118216011233e-03 0.0000000000000000e+00  1.8572612507361977e-04 4.5536653567841952e-03 0.0000000000000000e+00  1.8574827291728034e-04 4.5864036943406815e-03 0.0000000000000000e+00  1.8589257971352919e-04 4.6180920464484387e-03 0.0000000000000000e+00  1.8621809618667211e-04 4.6487818692404143e-03 0.0000000000000000e+00  1.8475335984924308e-04 4.6767316414948893e-03 0.0000000000000000e+00  1.8347513841462216e-04 4.7060434079350772e-03 0.0000000000000000e+00  1.8176989224352361e-04 4.7363021941517567e-03 0.0000000000000000e+00  1.8002032665117963e-04 4.7673030505952013e-03 0.0000000000000000e+00  1.7821907045982154e-04 4.7989719751624048e-03 0.0000000000000000e+00  1.7641916145756073e-04 4.8313068120488844e-03 0.0000000000000000e+00  1.7464825128798596e-04 4.8643114880534246e-03 0.0000000000000000e+00  1.7292265846279972e-04 4.8979370821679285e-03 0.0000000000000000e+00  1.7122280125038023e-04 4.9323041587052896e-03 0.0000000000000000e+00  1.6956939653780943e-04 4.9671891949623764e-03 0.0000000000000000e+00  1.6978182150813740e-04 5.0018092122136992e-03 0.0000000000000000e+00  1.7000286987097900e-04 5.0364026390361848e-03 0.0000000000000000e+00  1.7024047383060802e-04 5.0710290808185969e-03 0.0000000000000000e+00  1.7048201774963638e-04 5.1056889283119522e-03 0.0000000000000000e+00  1.7073791097730432e-04 5.1403693256320800e-03 0.0000000000000000e+00  1.7082449059602130e-04 5.1748731701434869e-03 0.0000000000000000e+00  1.7095062939122477e-04 5.2093322062674741e-03 0.0000000000000000e+00  1.5244413704754471e-04 4.5864771495345343e-03 0.0000000000000000e+00  1.5277030615391560e-04 4.6184351543095900e-03 0.0000000000000000e+00  1.5194540519020310e-04 4.6467661358139626e-03 0.0000000000000000e+00  1.5148189661753702e-04 4.6758476770281587e-03 0.0000000000000000e+00  1.5046302278685252e-04 4.7054934115108938e-03 0.0000000000000000e+00  1.4918378332242081e-04 4.7360073043201086e-03 0.0000000000000000e+00  1.4772710548062806e-04 4.7671743602872583e-03 0.0000000000000000e+00  1.4615169762506928e-04 4.7989769422169702e-03 0.0000000000000000e+00  1.4449162086770356e-04 4.8313959090983283e-03 0.0000000000000000e+00  1.4277629167125616e-04 4.8644271464013435e-03 0.0000000000000000e+00  1.4102367500167822e-04 4.8980483715596228e-03 0.0000000000000000e+00  1.3923907984665933e-04 4.9322786233251727e-03 0.0000000000000000e+00  1.3743065148959533e-04 4.9669753362592620e-03 0.0000000000000000e+00  1.3553699304475080e-04 5.0019559633488839e-03 0.0000000000000000e+00  1.3567740531943232e-04 5.0364724486880400e-03 0.0000000000000000e+00  1.3593409516995356e-04 5.0711232423387960e-03 0.0000000000000000e+00  1.3618332317257727e-04 5.1057975073879576e-03 0.0000000000000000e+00  1.3643098668601143e-04 5.1404583205414446e-03 0.0000000000000000e+00  1.3668454127005320e-04 5.1750620599706676e-03 0.0000000000000000e+00  1.3680449275882157e-04 5.2094614320816373e-03 0.0000000000000000e+00  1.3696120302515287e-04 5.2439011157531315e-03 0.0000000000000000e+00  1.1821579233840794e-04 4.6155464440533105e-03 0.0000000000000000e+00  1.1852186928838818e-04 4.6448127795245065e-03 0.0000000000000000e+00  1.1825997267277852e-04 4.6743086332120551e-03 0.0000000000000000e+00  1.1761948107998203e-04 4.7044580439442683e-03 0.0000000000000000e+00  1.1664560474072813e-04 4.7352595276356716e-03 0.0000000000000000e+00  1.1544929512570672e-04 4.7666619366007112e-03 0.0000000000000000e+00  1.1407912828589602e-04 4.7986431423879356e-03 0.0000000000000000e+00  1.1257672445333529e-04 4.8311905189829087e-03 0.0000000000000000e+00  1.1097725203437363e-04 4.8642926282274138e-03 0.0000000000000000e+00  1.0931528418437234e-04 4.8979275891760914e-03 0.0000000000000000e+00  1.0763061561932061e-04 4.9320688735593676e-03 0.0000000000000000e+00  1.0598204487056122e-04 4.9665999278114418e-03 0.0000000000000000e+00  1.0443649101178729e-04 5.0013381767191195e-03 0.0000000000000000e+00  1.0306027532297368e-04 5.0358587798073253e-03 0.0000000000000000e+00  1.0159659312325027e-04 5.0711930453874454e-03 0.0000000000000000e+00  1.0188258409538646e-04 5.1059025242167263e-03 0.0000000000000000e+00  1.0214685588332311e-04 5.1405557085102502e-03 0.0000000000000000e+00  1.0238606030357391e-04 5.1751187442685602e-03 0.0000000000000000e+00  1.0259215672983047e-04 5.2095866438618254e-03 0.0000000000000000e+00  1.0276826241992969e-04 5.2440070524251321e-03 0.0000000000000000e+00  1.0298759507245904e-04 5.2784621624684530e-03 0.0000000000000000e+00  8.5288678132327704e-05 4.6423004436948996e-03 0.0000000000000000e+00  8.5329054083028972e-05 4.6723940104307880e-03 0.0000000000000000e+00  8.4942441993981062e-05 4.7029870843380154e-03 0.0000000000000000e+00  8.4226104205183724e-05 4.7341300521572061e-03 0.0000000000000000e+00  8.3251661030454190e-05 4.7658011800556996e-03 0.0000000000000000e+00  8.2071369847617505e-05 4.7979944217115215e-03 0.0000000000000000e+00  8.0727187967987354e-05 4.8306996379423395e-03 0.0000000000000000e+00  7.9257389458355299e-05 4.8639025551734496e-03 0.0000000000000000e+00  7.7699900189186894e-05 4.8975771703983952e-03 0.0000000000000000e+00  7.6094607842438933e-05 4.9316806994172489e-03 0.0000000000000000e+00  7.4481913744555071e-05 4.9661188374247808e-03 0.0000000000000000e+00  7.2880995192799270e-05 5.0007616625175957e-03 0.0000000000000000e+00  7.1254832467396346e-05 5.0354653171986747e-03 0.0000000000000000e+00  6.9516534334700648e-05 5.0706425228944970e-03 0.0000000000000000e+00  6.7737308162508212e-05 5.1060520970871029e-03 0.0000000000000000e+00  6.7986677580648812e-05 5.1406801020025487e-03 0.0000000000000000e+00  6.8220383166628167e-05 5.1752030224321895e-03 0.0000000000000000e+00  6.8456343665764598e-05 5.2096828963603603e-03 0.0000000000000000e+00  6.8672368261121463e-05 5.2441457913717689e-03 0.0000000000000000e+00  6.8898906825145469e-05 5.2786317958996402e-03 0.0000000000000000e+00  6.9091615226264566e-05 5.3129382670269584e-03 0.0000000000000000e+00  5.2654128301100160e-05 4.6701396822196308e-03 0.0000000000000000e+00  5.2470352569683989e-05 4.7011748075189022e-03 0.0000000000000000e+00  5.1958838616294923e-05 4.7326697720760239e-03 0.0000000000000000e+00  5.1176307612998515e-05 4.7646304360817798e-03 0.0000000000000000e+00  5.0167682307716148e-05 4.7970573524109350e-03 0.0000000000000000e+00  4.8972948908006517e-05 4.8299438192290324e-03 0.0000000000000000e+00  4.7628962999965285e-05 4.8632748261425180e-03 0.0000000000000000e+00  4.6170925972582790e-05 4.8970233558912517e-03 0.0000000000000000e+00  4.4631622850722204e-05 4.9311459579795165e-03 0.0000000000000000e+00  4.3036441272531040e-05 4.9655713754546138e-03 0.0000000000000000e+00  4.1389488996153709e-05 5.0002168002011719e-03 0.0000000000000000e+00  3.9662500536668856e-05 5.0350285568770588e-03 0.0000000000000000e+00  3.7821939052071978e-05 5.0701500724620553e-03 0.0000000000000000e+00  3.5908025432760501e-05 5.1054558934877110e-03 0.0000000000000000e+00  3.3920784854333753e-05 5.1408439108295411e-03 0.0000000000000000e+00  3.4109322481113781e-05 5.1753078537367042e-03 0.0000000000000000e+00  3.4333170587252113e-05 5.2097664827934730e-03 0.0000000000000000e+00  3.4574376229504871e-05 5.2442652550371725e-03 0.0000000000000000e+00  3.4821393845574539e-05 5.2787599728473930e-03 0.0000000000000000e+00  3.5060669176413358e-05 5.3131521867906635e-03 0.0000000000000000e+00  3.5192539882816680e-05 5.3472700756081936e-03 0.0000000000000000e+00  2.0198474741555562e-05 4.6990784327672914e-03 0.0000000000000000e+00  1.9863763775748216e-05 4.7309257082151501e-03 0.0000000000000000e+00  1.9249155633542110e-05 4.7631846374104718e-03 0.0000000000000000e+00  1.8394778342175864e-05 4.7958599479205983e-03 0.0000000000000000e+00  1.7337466458105394e-05 4.8289467524034006e-03 0.0000000000000000e+00  1.6111469804680156e-05 4.8624307169090148e-03 0.0000000000000000e+00  1.4748376731038286e-05 4.8962863812702121e-03 0.0000000000000000e+00  1.3275497866175123e-05 4.9304753293125548e-03 0.0000000000000000e+00  1.1711688249042309e-05 4.9649444761353028e-03 0.0000000000000000e+00  1.0060449441092594e-05 4.9996391190770331e-03 0.0000000000000000e+