<?xml version="1.0"?>
<VTKFile type="UnstructuredGrid"  version="0.1"  >
<UnstructuredGrid>
<Piece  NumberOfPoints="639" NumberOfCells="1174">
<Points>
<DataArray  type="Float64"  NumberOfComponents="3"  format="ascii">1.024347826086957 0 0  1.040869565217391 0 0  1.040869565217391 0.01666666666666667 0  1.024347826086957 0.01666666666666667 0  1.057391304347826 0 0  1.057391304347826 0.01666666666666667 0  1.073913043478261 0 0  1.073913043478261 0.01666666666666667 0  1.090434782608696 0 0  1.090434782608696 0.01666666666666667 0  1.10695652173913 0 0  1.10695652173913 0.01666666666666667 0  1.123478260869565 0 0  1.123478260869565 0.01666666666666667 0  1.14 0 0  1.14 0.01666666666666667 0  1.156521739130435 0 0  1.156521739130435 0.01666666666666667 0  1.17304347826087 0 0  1.17304347826087 0.01666666666666667 0  1.189565217391304 0 0  1.189565217391304 0.01666666666666667 0  1.206086956521739 0 0  1.206086956521739 0.01666666666666667 0  1.222608695652174 0 0  1.222608695652174 0.01666666666666667 0  1.239130434782609 0 0  1.239130434782609 0.01666666666666667 0  1.255652173913044 0 0  1.255652173913044 0.01666666666666667 0  1.272173913043478 0 0  1.272173913043478 0.01666666666666667 0  1.288695652173913 0 0  1.288695652173913 0.01666666666666667 0  1.305217391304348 0 0  1.305217391304348 0.01666666666666667 0  1.321739130434783 0 0  1.321739130434783 0.01666666666666667 0  1.338260869565217 0.01666666666666667 0  1.040869565217391 0.03333333333333333 0  1.057391304347826 0.03333333333333333 0  1.073913043478261 0.03333333333333333 0  1.090434782608696 0.03333333333333333 0  1.10695652173913 0.03333333333333333 0  1.123478260869565 0.03333333333333333 0  1.14 0.03333333333333333 0  1.156521739130435 0.03333333333333333 0  1.17304347826087 0.03333333333333333 0  1.189565217391304 0.03333333333333333 0  1.206086956521739 0.03333333333333333 0  1.222608695652174 0.03333333333333333 0  1.239130434782609 0.03333333333333333 0  1.255652173913044 0.03333333333333333 0  1.272173913043478 0.03333333333333333 0  1.288695652173913 0.03333333333333333 0  1.305217391304348 0.03333333333333333 0  1.321739130434783 0.03333333333333333 0  1.338260869565217 0.03333333333333333 0  1.354782608695652 0.03333333333333333 0  1.057391304347826 0.05 0  1.073913043478261 0.05 0  1.090434782608696 0.05 0  1.10695652173913 0.05 0  1.123478260869565 0.05 0  1.14 0.05 0  1.156521739130435 0.05 0  1.17304347826087 0.05 0  1.189565217391304 0.05 0  1.206086956521739 0.05 0  1.222608695652174 0.05 0  1.239130434782609 0.05 0  1.255652173913044 0.05 0  1.272173913043478 0.05 0  1.288695652173913 0.05 0  1.305217391304348 0.05 0  1.321739130434783 0.05 0  1.338260869565217 0.05 0  1.354782608695652 0.05 0  1.371304347826087 0.05 0  1.073913043478261 0.06666666666666667 0  1.090434782608696 0.06666666666666667 0  1.10695652173913 0.06666666666666667 0  1.123478260869565 0.06666666666666667 0  1.14 0.06666666666666667 0  1.156521739130435 0.06666666666666667 0  1.17304347826087 0.06666666666666667 0  1.189565217391304 0.06666666666666667 0  1.206086956521739 0.06666666666666667 0  1.222608695652174 0.06666666666666667 0  1.239130434782609 0.06666666666666667 0  1.255652173913044 0.06666666666666667 0  1.272173913043478 0.06666666666666667 0  1.288695652173913 0.06666666666666667 0  1.305217391304348 0.06666666666666667 0  1.321739130434783 0.06666666666666667 0  1.338260869565217 0.06666666666666667 0  1.354782608695652 0.06666666666666667 0  1.371304347826087 0.06666666666666667 0  1.387826086956522 0.06666666666666667 0  1.090434782608696 0.08333333333333333 0  1.10695652173913 0.08333333333333333 0  1.123478260869565 0.08333333333333333 0  1.14 0.08333333333333333 0  1.156521739130435 0.08333333333333333 0  1.17304347826087 0.08333333333333333 0  1.189565217391304 0.08333333333333333 0  1.206086956521739 0.08333333333333333 0  1.222608695652174 0.08333333333333333 0  1.239130434782609 0.08333333333333333 0  1.255652173913044 0.08333333333333333 0  1.272173913043478 0.08333333333333333 0  1.288695652173913 0.08333333333333333 0  1.305217391304348 0.08333333333333333 0  1.321739130434783 0.08333333333333333 0  1.338260869565217 0.08333333333333333 0  1.354782608695652 0.08333333333333333 0  1.371304347826087 0.08333333333333333 0  1.387826086956522 0.08333333333333333 0  1.404347826086957 0.08333333333333333 0  1.10695652173913 0.1 0  1.123478260869565 0.1 0  1.14 0.1 0  1.156521739130435 0.1 0  1.17304347826087 0.1 0  1.189565217391304 0.1 0  1.206086956521739 0.1 0  1.222608695652174 0.1 0  1.239130434782609 0.1 0  1.255652173913044 0.1 0  1.272173913043478 0.1 0  1.288695652173913 0.1 0  1.305217391304348 0.1 0  1.321739130434783 0.1 0  1.338260869565217 0.1 0  1.354782608695652 0.1 0  1.371304347826087 0.1 0  1.387826086956522 0.1 0  1.404347826086957 0.1 0  1.420869565217391 0.1 0  1.123478260869565 0.1166666666666667 0  1.14 0.1166666666666667 0  1.156521739130435 0.1166666666666667 0  1.17304347826087 0.1166666666666667 0  1.189565217391304 0.1166666666666667 0  1.206086956521739 0.1166666666666667 0  1.222608695652174 0.1166666666666667 0  1.239130434782609 0.1166666666666667 0  1.255652173913044 0.1166666666666667 0  1.272173913043478 0.1166666666666667 0  1.288695652173913 0.1166666666666667 0  1.305217391304348 0.1166666666666667 0  1.321739130434783 0.1166666666666667 0  1.338260869565217 0.1166666666666667 0  1.354782608695652 0.1166666666666667 0  1.371304347826087 0.1166666666666667 0  1.387826086956522 0.1166666666666667 0  1.404347826086957 0.1166666666666667 0  1.420869565217391 0.1166666666666667 0  1.437391304347826 0.1166666666666667 0  1.14 0.1333333333333333 0  1.156521739130435 0.1333333333333333 0  1.17304347826087 0.1333333333333333 0  1.189565217391304 0.1333333333333333 0  1.206086956521739 0.1333333333333333 0  1.222608695652174 0.1333333333333333 0  1.239130434782609 0.1333333333333333 0  1.255652173913044 0.1333333333333333 0  1.272173913043478 0.1333333333333333 0  1.288695652173913 0.1333333333333333 0  1.305217391304348 0.1333333333333333 0  1.321739130434783 0.1333333333333333 0  1.338260869565217 0.1333333333333333 0  1.354782608695652 0.1333333333333333 0  1.371304347826087 0.1333333333333333 0  1.387826086956522 0.1333333333333333 0  1.404347826086957 0.1333333333333333 0  1.420869565217391 0.1333333333333333 0  1.437391304347826 0.1333333333333333 0  1.453913043478261 0.1333333333333333 0  1.156521739130435 0.15 0  1.17304347826087 0.15 0  1.189565217391304 0.15 0  1.206086956521739 0.15 0  1.222608695652174 0.15 0  1.239130434782609 0.15 0  1.255652173913044 0.15 0  1.272173913043478 0.15 0  1.288695652173913 0.15 0  1.305217391304348 0.15 0  1.321739130434783 0.15 0  1.338260869565217 0.15 0  1.354782608695652 0.15 0  1.371304347826087 0.15 0  1.387826086956522 0.15 0  1.404347826086957 0.15 0  1.420869565217391 0.15 0  1.437391304347826 0.15 0  1.453913043478261 0.15 0  1.470434782608696 0.15 0  1.17304347826087 0.1666666666666667 0  1.189565217391304 0.1666666666666667 0  1.206086956521739 0.1666666666666667 0  1.222608695652174 0.1666666666666667 0  1.239130434782609 0.1666666666666667 0  1.255652173913044 0.1666666666666667 0  1.272173913043478 0.1666666666666667 0  1.288695652173913 0.1666666666666667 0  1.305217391304348 0.1666666666666667 0  1.321739130434783 0.1666666666666667 0  1.338260869565217 0.1666666666666667 0  1.354782608695652 0.1666666666666667 0  1.371304347826087 0.1666666666666667 0  1.387826086956522 0.1666666666666667 0  1.404347826086957 0.1666666666666667 0  1.420869565217391 0.1666666666666667 0  1.437391304347826 0.1666666666666667 0  1.453913043478261 0.1666666666666667 0  1.470434782608696 0.1666666666666667 0  1.486956521739131 0.1666666666666667 0  1.189565217391304 0.1833333333333333 0  1.206086956521739 0.1833333333333333 0  1.222608695652174 0.1833333333333333 0  1.239130434782609 0.1833333333333333 0  1.255652173913044 0.1833333333333333 0  1.272173913043478 0.1833333333333333 0  1.288695652173913 0.1833333333333333 0  1.305217391304348 0.1833333333333333 0  1.321739130434783 0.1833333333333333 0  1.338260869565217 0.1833333333333333 0  1.354782608695652 0.1833333333333333 0  1.371304347826087 0.1833333333333333 0  1.387826086956522 0.1833333333333333 0  1.404347826086957 0.1833333333333333 0  1.420869565217391 0.1833333333333333 0  1.437391304347826 0.1833333333333333 0  1.453913043478261 0.1833333333333333 0  1.470434782608696 0.1833333333333333 0  1.486956521739131 0.1833333333333333 0  1.503478260869565 0.1833333333333333 0  1.206086956521739 0.2 0  1.222608695652174 0.2 0  1.239130434782609 0.2 0  1.255652173913044 0.2 0  1.272173913043478 0.2 0  1.288695652173913 0.2 0  1.305217391304348 0.2 0  1.321739130434783 0.2 0  1.338260869565217 0.2 0  1.354782608695652 0.2 0  1.371304347826087 0.2 0  1.387826086956522 0.2 0  1.404347826086957 0.2 0  1.420869565217391 0.2 0  1.437391304347826 0.2 0  1.453913043478261 0.2 0  1.470434782608696 0.2 0  1.486956521739131 0.2 0  1.503478260869565 0.2 0  1.52 0.2 0  1.222608695652174 0.2166666666666667 0  1.239130434782609 0.2166666666666667 0  1.255652173913044 0.2166666666666667 0  1.272173913043478 0.2166666666666667 0  1.288695652173913 0.2166666666666667 0  1.305217391304348 0.2166666666666667 0  1.321739130434783 0.2166666666666667 0  1.338260869565217 0.2166666666666667 0  1.354782608695652 0.2166666666666667 0  1.371304347826087 0.2166666666666667 0  1.387826086956522 0.2166666666666667 0  1.404347826086957 0.2166666666666667 0  1.420869565217391 0.2166666666666667 0  1.437391304347826 0.2166666666666667 0  1.453913043478261 0.2166666666666667 0  1.470434782608696 0.2166666666666667 0  1.486956521739131 0.2166666666666667 0  1.503478260869565 0.2166666666666667 0  1.52 0.2166666666666667 0  1.536521739130435 0.2166666666666667 0  1.239130434782609 0.2333333333333333 0  1.255652173913044 0.2333333333333333 0  1.272173913043478 0.2333333333333333 0  1.288695652173913 0.2333333333333333 0  1.305217391304348 0.23333
[...]
<CellData  Scalars="rho"> 
<DataArray  type="Float64"  Name="rho"  format="ascii">8.3473081110239966e-01   8.2644529905813724e-01   8.3159308020425704e-01   8.2340804957890346e-01   8.2833934198122727e-01   8.2024789001376264e-01   8.2499940842358788e-01   8.1699438912188083e-01   8.2160069615915465e-01   8.1367524942014391e-01   8.1816711500790129e-01   8.1031466934067775e-01   8.1471986529345064e-01   8.0693414105135708e-01   8.1127669610355146e-01   8.0355176977778187e-01   8.0785284002674262e-01   8.0018312532847502e-01   8.0446042912485161e-01   7.9684071094566011e-01   8.0110939407830428e-01   7.9353485254535816e-01   7.9780685364685600e-01   7.9027313706115898e-01   7.9455802378681140e-01   7.8706124252018894e-01   7.9136566180822387e-01   7.8390241057259502e-01   7.8823094111429537e-01   7.8079831030679170e-01   7.8515306022050679e-01   7.7774856798537173e-01   7.8213054850011143e-01   7.7475195012217646e-01   7.7916102378900509e-01   7.7180618963521463e-01   7.6890911985839061e-01   7.8992807215777017e-01   7.8705428373293651e-01   7.6146896333733161e-01   7.8408039758838044e-01   7.5868439857293690e-01   7.8103254515536724e-01   7.5582636180729268e-01   7.7793409517001266e-01   7.5291679902207775e-01   7.7480564150923681e-01   7.4997512307630354e-01   7.7166461353682791e-01   7.4701747806003016e-01   7.6852599477832639e-01   7.4405782988376423e-01   7.6540185223570523e-01   7.4110722398475326e-01   7.6230222784427915e-01   7.3817489329164532e-01   7.5923474548656245e-01   7.3526774773682391e-01   7.5620530650869544e-01   7.3239131486575559e-01   7.5321758053801768e-01   7.2954897614877101e-01   7.5027376424013470e-01   7.2674289303347273e-01   7.4737413450990697e-01   7.2397335440307520e-01   7.4451794942759464e-01   7.2123978432055480e-01   7.4170323147067185e-01   7.1854024650780379e-01   7.3892785672386530e-01   7.1587268795464365e-01   7.3618936263265300e-01   7.1323455915773115e-01   7.1062398868466803e-01   6.9400130163432161e-01   6.9158286270183611e-01   6.5190692231006531e-01   6.8912068433616791e-01   6.4970022569959585e-01   6.8663019526398483e-01   6.4747287349343685e-01   6.8412384317682429e-01   6.4523460380186470e-01   6.8161185816059178e-01   6.4299306375090937e-01   6.7910203083878995e-01   6.4075346105537767e-01   6.7660047446948801e-01   6.3851962661030537e-01   6.7411151629827226e-01   6.3629368799427022e-01   6.7163850596215413e-01   6.3407719794570694e-01   6.6918337557650254e-01   6.3187055174181272e-01   6.6674717355842261e-01   6.2967372186774073e-01   6.6432964901935265e-01   6.2748557649575365e-01   6.6192990002249108e-01   6.2530472687443905e-01   6.5954594948920731e-01   6.2312881629879391e-01   6.5717557381275526e-01   6.2095544225020249e-01   6.5481615732559140e-01   6.1878174468135461e-01   6.5246555829897179e-01   6.1660548090094036e-01   6.5012185915666254e-01   6.1442452375287138e-01   6.1223776042909861e-01   5.6117219450945766e-01   5.5949016245987981e-01   5.1864192414504429e-01   5.5781968889610256e-01   5.1717427335406652e-01   5.5616179932746113e-01   5.1572752867110305e-01   5.5451533846978796e-01   5.1429830468155779e-01   5.5287782452837397e-01   5.1288244651895110e-01   5.5124566206928549e-01   5.1147480515678123e-01   5.4961501780904531e-01   5.1007029265648784e-01   5.4798189337083314e-01   5.0866364515333073e-01   5.4634249379647570e-01   5.0725017764408009e-01   5.4469293684949616e-01   5.0582515911602921e-01   5.4302957690953269e-01   5.0438443456333049e-01   5.4134867180149115e-01   5.0292378701937135e-01   5.3964671775019746e-01   5.0143958052571880e-01   5.3792021122357303e-01   4.9992817306682275e-01   5.3893369398457369e-01   4.9838667030005984e-01   5.3721576887146938e-01   4.9681246893302899e-01   5.3547559330252825e-01   4.9520397876769312e-01   5.3371222771840821e-01   4.9356003924093800e-01   4.9188040358014173e-01   4.3589193116845287e-01   4.3486720577822202e-01   3.9094924504731549e-01   4.3388165710982018e-01   3.9016349804448203e-01   4.3292572702774540e-01   3.8942225108636808e-01   4.3198927152203725e-01   3.8871197452838629e-01   4.3106222043071796e-01   3.8801947110232948e-01   4.3013494626719068e-01   3.8733196937526876e-01   4.2919861554524458e-01   3.8663789980279800e-01   4.2824540195615535e-01   3.8592680940680985e-01   4.2726839021193141e-01   3.8518981364648408e-01   4.2626146132296733e-01   3.8441897822030513e-01   4.2521927806346899e-01   3.8360766629107906e-01   4.2413726767047555e-01   3.8275009759882872e-01   4.2301162084754473e-01   3.8184175158136369e-01   4.2183922878090047e-01   3.8087882135084455e-01   4.2061781463473896e-01   3.7985864309117112e-01   4.1934596416256448e-01   3.7877935376107691e-01   4.1802311248758073e-01   3.7764031583506846e-01   4.1664915370187905e-01   3.7644136391852745e-01   3.7518290874430149e-01   3.1420855987881507e-01   3.1385802515594852e-01   2.8006803379940920e-01   3.1356626215276728e-01   2.7997816658948782e-01   3.1331350575564565e-01   2.7994391020887882e-01   3.1308095648620626e-01   2.7994236405319400e-01   3.1285127113279237e-01   2.7995240803616189e-01   3.1260887629377171e-01   2.7995489329197282e-01   3.1234030521087364e-01   2.7993311430984102e-01   3.1203416332944317e-01   2.7987284281046676e-01   3.1168090621363714e-01   2.7976227903046724e-01   3.1127267751928062e-01   2.7959170341269468e-01   3.1080324080457800e-01   2.7935345701989445e-01   3.1026790061567161e-01   2.7904172324938292e-01   3.0966324742140772e-01   2.7865245132420963e-01   3.0898709409779601e-01   2.7818300225534681e-01   3.0823849546532478e-01   2.7763225442684686e-01   3.1076747757235307e-01   2.7700036163720160e-01   3.0988510451020279e-01   2.7628868448716665e-01   3.0893266609002995e-01   2.7549906834954357e-01   2.7463371076166126e-01   2.0984419486646272e-01   2.1014739539430405e-01   1.8483244330485521e-01   2.1052321972635207e-01   1.8540328528277661e-01   2.1094164799313420e-01   1.8603741546963740e-01   2.1137530235360630e-01   1.8670263922835348e-01   2.1179972420057885e-01   1.8737005913321336e-01   2.1219367225072006e-01   1.8801424867591543e-01   2.1253925096079646e-01   1.8861360220437137e-01   2.1282175448751456e-01   1.8915019568135438e-01   2.1302940397389369e-01   1.8960966397049156e-01   2.1315314195400914e-01   1.8998083956354395e-01   2.1318637088498457e-01   1.9025554636168346e-01   2.1312483405635282e-01   1.9042833810321419e-01   2.1296627090743853e-01   1.9049629441511137e-01   2.1271031279889357e-01   1.9045866422713434e-01   2.1235824914962428e-01   1.9031675973581888e-01   2.1191274240444063e-01   1.9007354122133724e-01   2.1137724661861493e-01   1.8973328603875042e-01   2.1075547266032019e-01   1.8930074895780616e-01   1.8878091233490493e-01   1.3022524570610289e-01   1.3116539574236341e-01   1.0719979746963400e-01   1.3218068963632965e-01   1.0835763164924338e-01   1.3323219784550661e-01   1.0957413908781888e-01   1.3428525492846025e-01   1.1080947126610341e-01   1.3530972376044134e-01   1.1202872506994906e-01   1.3628009332750637e-01   1.1320204749237514e-01   1.3717547048172027e-01   1.1430470379075065e-01   1.3797938762595152e-01   1.1531692991381526e-01   1.3867936385712909e-01   1.1622359775375711e-01   1.3926664326273525e-01   1.1701381012028479e-01   1.3973583897379502e-01   1.1768055954889561e-01   1.4008473127619181e-01   1.1822044337126279e-01   1.4031384842633082e-01   1.1863332763585054e-01   1.4042620641747841e-01   1.1892195382142913e-01   1.4042687134895576e-01   1.1909159242677494e-01   1.4032244075334377e-01   1.1914946952349637e-01   1.4012030703845543e-01   1.1910417284810978e-01   1.3982803896012413e-01   1.1896477078946188e-01   1.1874039005242053e-01   6.8830012275413868e-02   7.0316548499024231e-02   5.4946566469475912e-02   7.1865149507478271e-02   5.6619901181236651e-02   7.3430496001088766e-02   5.8330753588558458e-02   7.4973138111749965e-02   6.0034509847056154e-02   7.6459720305554243e-02   6.1693062288927347e-02   7.7862878892376572e-02   6.3274806540354375e-02   7.9161049071443543e-02   6.4754465239123496e-02   8.0338179550869498e-02   6.6112855727716247e-02   8.1383173419725202e-02   6.7336392122306743e-02   8.2289574822515171e-02   6.8416653165829261e-02   8.3055122027412040e-02   6.9349939181919354e-02   8.3681489302507336e-02   7.0136945771297171e-02   8.4173782875978750e-02   7.0782355182753248e-02   8.4540113492481486e-02   7.1294342561091198e-02   8.4790901187909662e-02   7.1683980547058476e-02   8.4938180492827212e-02   7.1964455768758595e-02   8.4994728548087789e-02   7.2150288667232637e-02   8.4973342787225223e-02   7.2256372715021305e-02   7.2297375064718658e-02   4.9348588467332893e-02   5.1330898489057655e-02   4.6166719013248522e-02   5.3342515452210061e-02   4.8284761641893520e-02   5.5335293614997616e-02   5.0400963645925077e-02   5.7268371582785763e-02   5.2469676360368707e-02   5.9108333312391806e-02   5.4453048815279917e-02   6.0828887315742486e-02   5.6320907539052924e-02   6.2410606046186125e-02   5.8050412454739179e-02   6.3840444768727356e-02   5.9625737444771440e-02   6.5111187394350872e-02   6.1037432158334723e-02   6.6221001531991383e-02   6.2281964032868044e-02   6.7173039089889919e-02   6.3361229176930031e-02   6.7975068299249236e-02   6.4282253841047812e-02   6.8638846255277552e-02   6.5056624717891531e-02   6.9179409010549753e-02   6.5699802083153597e-02   6.9614200225811690e-02   6.6230251205261256e-02   6.9962134843595286e-02   6.6668496391478996e-02   7.0242614552990496e-02   6.7036096486605481e-02   7.0474648960032929e-02   6.7354604931120499e-02   6.7644799413666842e-02   4.4404432885434254e-02   4.6719083169249782e-02   4.8039157344540021e-02   4.9015481760399909e-02   5.0426817234050729e-02   5.1246759304318691e-02   5.2761958676789060e-02   5.3374348444023736e-02   5.5001759761960083e-02   5.5368133754068995e-02   5.7112110029504073e-02   5.7205936013306362e-02   5.9067401858849344e-02   5.8873161349218411e-02   6.0850059426406845e-02   6.0362116325307913e-02   6.2449986471106687e-02   6.1671548850392756e-02   6.3863956537567587e-02   6.2806195731319084e-02   6.5095206130859784e-02   6.3776396333658628e-02   6.6152990762903693e-02   6.4597514717098084e-02   7.1531951912658209e-02   6.5289144308159963e-02   7.2252205227446617e-02   6.5874164401285476e-02   7.2888303623951947e-02   6.6377645915390318e-02   7.3462036648572454e-02   6.6825679246374350e-02   7.3996626358908288e-02   6.7244357281943168e-02   7.4515809108037692e-02   6.7658765878464242e-02   7.5042928313261814e-02   7.5600170708629053e-02   5.9593661214299223e-02   6.1651887419757939e-02   6.4569604256509996e-02   6.3661133006197967e-02   6.6651979748885454e-02   6.5587056808111471e-02   6.8658154700895660e-02   6.7402583297266574e-02   7.0557980044070628e-02   6.9087976794843700e-02   7.2328892946821793e-02   7.0630241463697188e-02   7.3955493844023598e-02   7.2022858759597463e-02   7.5429158712941230e-02   7.3265234918340069e-02   6.7183537452450495e-02   7.4362495925151248e-02   6.7907652613966085e-02   7.5325046952251173e-02   6.8581391104333755e-02   7.6168216894763496e-02   6.9211925275919739e-02   7.6911599134585396e-02   6.9809045399675501e-02   7.7578301171050301e-02   7.0384791069547800e-02   7.8193871602735665e-02   7.0953040108510820e-02   7.8785281769627555e-02   7.1528928323091906e-02   7.9379887614292641e-02   7.2128361075398981e-02   8.0004621512665255e-02   7.2767583878238729e-02   8.0684849953509330e-02   8.6376221539078868e-02   8.7179193322971082e-02   7.8976346435206332e-02   8.0718133046096804e-02   8.2768127430203398e-02   8.2391288701567852e-02   8.4502144077070823e-02   8.3973601736980666e-02   8.6149071130951257e-02   8.5448886628384957e-02   8.7690555069787832e-02   8.6806813947163441e-02   8.9114327138578198e-02   8.8042390307079929e-02   9.0413725895954214e-02   8.9155821613318434e-02   9.1587470050591716e-02   9.0152076315515833e-02   9.2639294507469924e-02   9.1040790905739466e-02   9.3577744576145289e-02   9.1835849592447158e-02   9.4415884610735579e-02   9.2555073385545236e-02   9.5170945477484975e-02   9.3219467228356390e-02   9.5863739575996171e-02   9.3852477533449150e-02   9.6517883256857062e-02   9.4478981240877724e-02   9.7158847905080614e-02   9.5124549289273108e-02   9.7813088587403396e-02   9.5814602087317055e-02   9.8507195006846154e-02   9.6573658730502623e-02   9.9267154015839215e-02   9.7423946421237487e-02   1.0011718681988252e-01   1.0107837322927152e-01   8.7951756723057925e-02   8.9712423918588649e-02   9.1345606904762913e-02   9.1373731492331675e-02   9.3058276204074933e-02   9.2919283707830785e-02   9.4657443782217410e-02   9.4338698982542879e-02   9.6130781380348668e-02   9.5627445257412846e-02   9.7471976458495840e-02   9.6786342122563249e-02   9.8680277888913634e-02   9.7821457861808514e-02   9.9760326363402152e-02   9.8743673699153670e-02   1.0072177059942045e-01   9.9568539321646249e-02   1.0157907422613031e-01   1.0031571408609059e-01   1.0235105262648979e-01   1.0100843872223744e-01   1.0306039231010269e-01   1.0167253889561927e-01   1.0373275639498934e-01   1.0233555076466080e-01   1.0439587498094872e-01   1.0302568875185068e-01   1.0507846746594632e-01   1.0377114516144084e-01   1.0580946836937992e-01   1.0459909446703894e-01   1.0661709666519670e-01   1.0553458154157223e-01   1.0752789574446334e-01   1.0659895194313149e-01   1.0856521339577879e-01   1.0974794503371418e-01   9.4623893551469718e-02   9.6319838486988996e-02   9.6399145241949022e-02   9.7893649562432405e-02   9.8016883507021493e-02   9.9335201572866308e-02   9.9503726577662405e-02   1.0064022452204453e-01   1.0085356021825728e-01   1.0181019108670476e-01   1.0206613339075171e-01   1.0285184643641508e-01   1.0314661593893219e-01   1.0377711522535778e-01   1.0410547170511311e-01   1.0460258101819411e-01   1.0495799911665406e-01   1.0534921704627997e-01   1.0572404094415215e-01   1.0604160497503314e-01   1.0642732815617929e-01   1.0670716256377831e-01   1.0709476253201895e-01   1.0737494293473616e-01   1.0775526203284325e-01   1.0807474559953392e-01   1.0843877105420051e-01   1.0883614989999039e-01   1.0917523653938753e-01   1.0968774367383209e-01   1.0999386489750650e-01   1.1065584213116818e-01   1.1092198240958401e-01   1.1176321229290430e-01   1.1198383199092428e-01   1.1302762878879978e-01   1.1319906172910864e-01   1.1458173037161336e-01   9.6271471969882796e-02   9.7840430516750704e-02   9.5998881722451454e-02   9.9274605910336475e-02   9.7470616572249300e-02   1.0057001057357573e-01   9.8804428846276687e-02   1.0172830235416860e-01   1.0000010729101001e-01   1.0275668586385467e-01   1.0106309198070111e-01   1.0366742579669147e-01   1.0200398269492912e-01   1.0447768386471565e-01   1.0283838728037493e-01   1.0520886739029224e-01   1.0358633090009968e-01   1.0588618407814428e-01   1.0427183816561257e-01   1.0653757950333428e-01   1.0492201204740191e-01   1.0719269831534357e-01   1.0556604049555796e-01   1.0788166326845798e-01   1.0623388022377563e-01   1.0863429519676984e-01   1.0695538233095028e-01   1.0947911873992022e-01   1.0775931322362629e-01   1.1044238080870387e-01   1.0867249353736631e-01   1.1154660768251691e-01   1.0971842995701185e-01   1.1280941865750563e-01   1.1091612725716307e-01   1.1424235260052652e-01   1.1227878579184827e-01   1.1381309551479524e-01   9.2493684671457493e-02   9.3894441367554052e-02   9.0587969706683064e-02   9.5158217333098968e-02   9.1881692673077137e-02   9.6286625025892442e-02   9.3040416353687330e-02   9.7286606579533447e-02   9.4069133671886587e-02   9.8170308544858628e-02   9.4978113946043510e-02   9.8954493597957091e-02   9.5782326361602638e-02   9.9660313905898565e-02   9.6501224231106505e-02   1.0031249587706718e-01   9.7158040556731051e-02   1.0093861995334402e-01   9.7779153632243904e-02   1.0156772568095433e-01   9.8392811888061038e-02   1.0222921765064431e-01   9.9027957389275292e-02   1.0295181245937395e-01   9.9713015985555792e-02   1.0376279039510732e-01   1.0047517993358381e-01   1.0468683115349460e-01   1.0133932297184854e-01   1.0574490097771792e-01   1.0232699011974870e-01   1.0695290459885450e-01   1.0345503276562054e-01   1.0832075467775004e-01   1.0473465442055850e-01   1.0985148396264893e-01   1.0617040857012340e-01   1.0775972212720747e-01   8.5255731065722679e-02   8.6461628418027736e-02   6.9043464935070520e-02   8.7537560480036122e-02   7.0107689444940169e-02   8.8489768441519429e-02   7.1048371768653334e-02   8.9329350474704305e-02   7.1874491346608796e-02   9.0072008352117455e-02   7.2599733475172387e-02   9.0737465478617330e-02   7.3241830685012888e-02   9.1349038499686952e-02   7.3822277314323240e-02   9.1932656562308243e-02   8.8430474617889318e-02   9.2515688107101438e-02   8.8990168110337373e-02   9.3125522107456615e-02   8.9565023640574809e-02   9.3788656302003851e-02   9.0180966503447077e-02   9.4529786779132444e-02   9.0862266168566602e-02   9.5370929930559747e-02   9.1630833422244401e-02   9.6330164507044735e-02   9.2504993879531011e-02   9.7420651277557141e-02   9.3498539397573438e-02   9.8649575994546240e-02   9.4619635052939494e-02   1.0001750144268583e-01   9.5870169912783368e-02   1.0151779168969183e-01   9.7245096510568507e-02   9.8732204439816298e-02   6.8947994175052318e-02   7.0147332294332468e-02   6.5688580424519083e-02   7.1193333427996039e-02   6.6762322069064392e-02   7.2098156030541247e-02   6.7693986243510459e-02   7.2879258570848940e-02   6.8498277360431861e-02   7.3558836293690949e-02   6.9194776969357524e-02   7.4162973889887948e-02   6.9807024052173802e-02   7.4720657375582464e-02   7.0361750524659705e-02   7.5262299141092476e-02   7.0887466082720438e-02   7.5818145800417361e-02   7.1413055463259031e-02   7.6416889502178398e-02   7.1966149702522256e-02   7.7084647255129327e-02   7.2572123983632428e-02   7.7843799077655165e-02   7.3252928269700548e-02   7.8711808789150184e-02   7.4026124811143013e-02   7.9699891456183530e-02   7.4903506446325388e-02   8.0812133195051997e-02   7.5890246895769647e-02   8.2044691003410303e-02   7.6984043175316028e-02   7.6745375022539752e-02   7.8174760257689380e-02   7.8028283334674084e-02   7.9444060995314286e-02   8.0765509699434371e-02   5.5562820543934216e-02   5.6668426638742310e-02   5.3858763979417010e-02   5.7602044550208696e-02   5.4819408982988010e-02   5.8381009928895916e-02   5.5623453625423175e-02   5.9027629163203192e-02   5.6289987721706514e-02   5.9568198687859869e-02   5.6842248126545647e-02   6.0031786265611772e-02   5.7306440436247205e-02   6.0448731029667656e-02   5.7710443116641585e-02   6.0848954781954553e-02   5.8082193182252641e-02   6.1260306193405188e-02   5.8448105650555318e-02   6.1707401851055520e-02   5.8831679720244036e-02   6.2210459426774653e-02   5.9252538016702154e-02   6.2784157219977349e-02   5.9725235576366137e-02   6.3436566113273946e-02   6.0258402313753491e-02   6.4168219479300390e-02   6.0853731409983777e-02   6.4971741410092598e-02   6.1505595574359535e-02   6.5831604580557521e-02   6.2200803507715292e-02   6.6724237843427930e-02   6.2918760060017093e-02   7.4521014634713306e-02   6.3631700727936003e-02   6.4305430496207974e-02   5.5989378818401284e-02   5.6810676490645272e-02   6.0763818055712557e-02   5.7489872260351245e-02   6.1433447306762617e-02   5.8043926851792368e-02   6.1975099303672877e-02   5.8493054407015674e-02   6.2405958079998138e-02   5.8859676516616298e-02   6.2745558340969829e-02   5.9167154902205046e-02   6.3014693345915931e-02   5.9438189118885251e-02   6.3233970535643461e-02   5.9693601953644183e-02   6.3422516390077621e-02   5.9951034114467922e-02   6.3596787244684191e-02   6.0224173532874820e-02   6.3769665865473349e-02   6.0521784119682537e-02   6.3949709091714824e-02   6.0847072636132017e-02   6.4140445558125092e-02   6.1197141051380757e-02   6.4339996188881171e-02   6.1562739590510694e-02   6.4540740554545895e-02   6.1928441897534416e-02   6.4729503190331578e-02   6.2272963456611499e-02   6.4887884213232994e-02   6.2569746618024641e-02   6.4992884290830791e-02   6.2787771023374350e-02   6.5017602249670028e-02   6.4932426740158644