<?xml version="1.0"?>
<VTKFile type="UnstructuredGrid"  version="0.1"  >
<UnstructuredGrid>
<Piece  NumberOfPoints="607" NumberOfCells="1112">
<Points>
<DataArray  type="Float64"  NumberOfComponents="3"  format="ascii">0.4130434782608696 0 0  0.4295652173913043 0 0  0.4295652173913043 0.01666666666666667 0  0.4460869565217391 0 0  0.4460869565217391 0.01666666666666667 0  0.4626086956521739 0 0  0.4626086956521739 0.01666666666666667 0  0.4791304347826086 0 0  0.4791304347826086 0.01666666666666667 0  0.4956521739130435 0 0  0.4956521739130435 0.01666666666666667 0  0.5121739130434783 0 0  0.5121739130434783 0.01666666666666667 0  0.528695652173913 0 0  0.528695652173913 0.01666666666666667 0  0.5452173913043478 0 0  0.5452173913043478 0.01666666666666667 0  0.5617391304347825 0 0  0.5617391304347825 0.01666666666666667 0  0.5782608695652174 0 0  0.5782608695652174 0.01666666666666667 0  0.5947826086956521 0 0  0.5947826086956521 0.01666666666666667 0  0.6113043478260869 0 0  0.6113043478260869 0.01666666666666667 0  0.6278260869565218 0 0  0.6278260869565218 0.01666666666666667 0  0.6443478260869565 0 0  0.6443478260869565 0.01666666666666667 0  0.6608695652173913 0 0  0.6608695652173913 0.01666666666666667 0  0.677391304347826 0 0  0.677391304347826 0.01666666666666667 0  0.6939130434782609 0 0  0.6939130434782609 0.01666666666666667 0  0.7104347826086956 0 0  0.7104347826086956 0.01666666666666667 0  0.4460869565217391 0.03333333333333333 0  0.4626086956521739 0.03333333333333333 0  0.4791304347826086 0.03333333333333333 0  0.4956521739130435 0.03333333333333333 0  0.5121739130434783 0.03333333333333333 0  0.528695652173913 0.03333333333333333 0  0.5452173913043478 0.03333333333333333 0  0.5617391304347825 0.03333333333333333 0  0.5782608695652174 0.03333333333333333 0  0.5947826086956521 0.03333333333333333 0  0.6113043478260869 0.03333333333333333 0  0.6278260869565218 0.03333333333333333 0  0.6443478260869565 0.03333333333333333 0  0.6608695652173913 0.03333333333333333 0  0.677391304347826 0.03333333333333333 0  0.6939130434782609 0.03333333333333333 0  0.7104347826086956 0.03333333333333333 0  0.4626086956521739 0.05 0  0.4791304347826086 0.05 0  0.4956521739130435 0.05 0  0.5121739130434783 0.05 0  0.528695652173913 0.05 0  0.5452173913043478 0.05 0  0.5617391304347825 0.05 0  0.5782608695652174 0.05 0  0.5947826086956521 0.05 0  0.6113043478260869 0.05 0  0.6278260869565218 0.05 0  0.6443478260869565 0.05 0  0.6608695652173913 0.05 0  0.677391304347826 0.05 0  0.6939130434782609 0.05 0  0.7104347826086956 0.05 0  0.7269565217391304 0.05 0  0.4791304347826086 0.06666666666666667 0  0.4956521739130435 0.06666666666666667 0  0.5121739130434783 0.06666666666666667 0  0.528695652173913 0.06666666666666667 0  0.5452173913043478 0.06666666666666667 0  0.5617391304347825 0.06666666666666667 0  0.5782608695652174 0.06666666666666667 0  0.5947826086956521 0.06666666666666667 0  0.6113043478260869 0.06666666666666667 0  0.6278260869565218 0.06666666666666667 0  0.6443478260869565 0.06666666666666667 0  0.6608695652173913 0.06666666666666667 0  0.677391304347826 0.06666666666666667 0  0.6939130434782609 0.06666666666666667 0  0.7104347826086956 0.06666666666666667 0  0.7269565217391304 0.06666666666666667 0  0.7434782608695653 0.06666666666666667 0  0.4956521739130435 0.08333333333333333 0  0.5121739130434783 0.08333333333333333 0  0.528695652173913 0.08333333333333333 0  0.5452173913043478 0.08333333333333333 0  0.5617391304347825 0.08333333333333333 0  0.5782608695652174 0.08333333333333333 0  0.5947826086956521 0.08333333333333333 0  0.6113043478260869 0.08333333333333333 0  0.6278260869565218 0.08333333333333333 0  0.6443478260869565 0.08333333333333333 0  0.6608695652173913 0.08333333333333333 0  0.677391304347826 0.08333333333333333 0  0.6939130434782609 0.08333333333333333 0  0.7104347826086956 0.08333333333333333 0  0.7269565217391304 0.08333333333333333 0  0.7434782608695653 0.08333333333333333 0  0.7599999999999999 0.08333333333333333 0  0.5121739130434783 0.1 0  0.528695652173913 0.1 0  0.5452173913043478 0.1 0  0.5617391304347825 0.1 0  0.5782608695652174 0.1 0  0.5947826086956521 0.1 0  0.6113043478260869 0.1 0  0.6278260869565218 0.1 0  0.6443478260869565 0.1 0  0.6608695652173913 0.1 0  0.677391304347826 0.1 0  0.6939130434782609 0.1 0  0.7104347826086956 0.1 0  0.7269565217391304 0.1 0  0.7434782608695653 0.1 0  0.7599999999999999 0.1 0  0.7765217391304348 0.1 0  0.528695652173913 0.1166666666666667 0  0.5452173913043478 0.1166666666666667 0  0.5617391304347825 0.1166666666666667 0  0.5782608695652174 0.1166666666666667 0  0.5947826086956521 0.1166666666666667 0  0.6113043478260869 0.1166666666666667 0  0.6278260869565218 0.1166666666666667 0  0.6443478260869565 0.1166666666666667 0  0.6608695652173913 0.1166666666666667 0  0.677391304347826 0.1166666666666667 0  0.6939130434782609 0.1166666666666667 0  0.7104347826086956 0.1166666666666667 0  0.7269565217391304 0.1166666666666667 0  0.7434782608695653 0.1166666666666667 0  0.7599999999999999 0.1166666666666667 0  0.7765217391304348 0.1166666666666667 0  0.7930434782608695 0.1166666666666667 0  0.5452173913043478 0.1333333333333333 0  0.5617391304347825 0.1333333333333333 0  0.5782608695652174 0.1333333333333333 0  0.5947826086956521 0.1333333333333333 0  0.6113043478260869 0.1333333333333333 0  0.6278260869565218 0.1333333333333333 0  0.6443478260869565 0.1333333333333333 0  0.6608695652173913 0.1333333333333333 0  0.677391304347826 0.1333333333333333 0  0.6939130434782609 0.1333333333333333 0  0.7104347826086956 0.1333333333333333 0  0.7269565217391304 0.1333333333333333 0  0.7434782608695653 0.1333333333333333 0  0.7599999999999999 0.1333333333333333 0  0.7765217391304348 0.1333333333333333 0  0.7930434782608695 0.1333333333333333 0  0.8095652173913043 0.1333333333333333 0  0.5617391304347825 0.15 0  0.5782608695652174 0.15 0  0.5947826086956521 0.15 0  0.6113043478260869 0.15 0  0.6278260869565218 0.15 0  0.6443478260869565 0.15 0  0.6608695652173913 0.15 0  0.677391304347826 0.15 0  0.6939130434782609 0.15 0  0.7104347826086956 0.15 0  0.7269565217391304 0.15 0  0.7434782608695653 0.15 0  0.7599999999999999 0.15 0  0.7765217391304348 0.15 0  0.7930434782608695 0.15 0  0.8095652173913043 0.15 0  0.8260869565217391 0.15 0  0.5782608695652174 0.1666666666666667 0  0.5947826086956521 0.1666666666666667 0  0.6113043478260869 0.1666666666666667 0  0.6278260869565218 0.1666666666666667 0  0.6443478260869565 0.1666666666666667 0  0.6608695652173913 0.1666666666666667 0  0.677391304347826 0.1666666666666667 0  0.6939130434782609 0.1666666666666667 0  0.7104347826086956 0.1666666666666667 0  0.7269565217391304 0.1666666666666667 0  0.7434782608695653 0.1666666666666667 0  0.7599999999999999 0.1666666666666667 0  0.7765217391304348 0.1666666666666667 0  0.7930434782608695 0.1666666666666667 0  0.8095652173913043 0.1666666666666667 0  0.8260869565217391 0.1666666666666667 0  0.8426086956521739 0.1666666666666667 0  0.5947826086956521 0.1833333333333333 0  0.5782608695652174 0.1833333333333333 0  0.6113043478260869 0.1833333333333333 0  0.6278260869565218 0.1833333333333333 0  0.6443478260869565 0.1833333333333333 0  0.6608695652173913 0.1833333333333333 0  0.677391304347826 0.1833333333333333 0  0.6939130434782609 0.1833333333333333 0  0.7104347826086956 0.1833333333333333 0  0.7269565217391304 0.1833333333333333 0  0.7434782608695653 0.1833333333333333 0  0.7599999999999999 0.1833333333333333 0  0.7765217391304348 0.1833333333333333 0  0.7930434782608695 0.1833333333333333 0  0.8095652173913043 0.1833333333333333 0  0.8260869565217391 0.1833333333333333 0  0.8426086956521739 0.1833333333333333 0  0.8591304347826086 0.1833333333333333 0  0.5947826086956521 0.2 0  0.5782608695652174 0.2 0  0.6113043478260869 0.2 0  0.6278260869565218 0.2 0  0.6443478260869565 0.2 0  0.6608695652173913 0.2 0  0.677391304347826 0.2 0  0.6939130434782609 0.2 0  0.7104347826086956 0.2 0  0.7269565217391304 0.2 0  0.7434782608695653 0.2 0  0.7599999999999999 0.2 0  0.7765217391304348 0.2 0  0.7930434782608695 0.2 0  0.8095652173913043 0.2 0  0.8260869565217391 0.2 0  0.8426086956521739 0.2 0  0.8591304347826086 0.2 0  0.8756521739130434 0.2 0  0.5947826086956521 0.2166666666666667 0  0.5782608695652174 0.2166666666666667 0  0.6113043478260869 0.2166666666666667 0  0.6278260869565218 0.2166666666666667 0  0.6443478260869565 0.2166666666666667 0  0.6608695652173913 0.2166666666666667 0  0.677391304347826 0.2166666666666667 0  0.6939130434782609 0.2166666666666667 0  0.7104347826086956 0.2166666666666667 0  0.7269565217391304 0.2166666666666667 0  0.7434782608695653 0.2166666666666667 0  0.7599999999999999 0.2166666666666667 0  0.7765217391304348 0.2166666666666667 0  0.7930434782608695 0.2166666666666667 0  0.8095652173913043 0.2166666666666667 0  0.8260869565217391 0.2166666666666667 0  0.8426086956521739 0.2166666666666667 0  0.8591304347826086 0.2166666666666667 0  0.8756521739130434 0.2166666666666667 0  0.8921739130434783 0.2166666666666667 0  0.5947826086956521 0.2333333333333333 0  0.5782608695652174 0.2333333333333333 0  0.6113043478260869 0.2333333333333333 0  0.6278260869565218 0.2333333333333333 0  0.6443478260869565 0.2333333333333333 0  0.6608695652173913 0.2333333333333333 0  0.677391304347826 0.2333333333333333 0  0.6939130434782609 0.2333333333333333 0  0.7104347826086956 0.2333333333333333 0  0.7269565217391304 0.2333333333333333 0  0.7434782608695653 0.2333333333333333 0  0.7599999999999999 0.2333333333333333 0  0.7765217391304348 0.2333333333333333 0  0.7930434782608695 0.2333333333333333 0  0.8095652173913043 0.2333333333333333 0  0.8260869565217391 0.2333333333333333 0  0.8426086956521739 0.2333333333333333 0  0.8591304347826086 0.2333333333333333 0  0.8756521739130434 0.2333333333333333 0  0.8921739130434783 0.2333333333333333 0  0.908695652173913 0.2333333333333333 0  0.5947826086956521 0.25 0  0.6113043478260869 0.25 0  0.6278260869565218 0.25 0  0.6443
[...]
<PointData  Vectors="Displacement"> 
<DataArray  type="Float64"  Name="Displacement"  NumberOfComponents="3" format="ascii">9.2993081312686573e-05 6.5817180226195840e-04 0.0000000000000000e+00  9.3502664628204238e-05 6.8247016017031182e-04 0.0000000000000000e+00  6.8305159571587962e-05 6.8228367853796388e-04 0.0000000000000000e+00  9.4701245469083089e-05 7.0646663292915418e-04 0.0000000000000000e+00  6.9365461582374981e-05 7.0607220527511003e-04 0.0000000000000000e+00  9.6703447989821061e-05 7.3082084443568097e-04 0.0000000000000000e+00  7.0773443737816519e-05 7.3015456189790722e-04 0.0000000000000000e+00  9.9392795461633655e-05 7.5630011886504043e-04 0.0000000000000000e+00  7.2549353420911175e-05 7.5538517777448656e-04 0.0000000000000000e+00  1.0232698182751689e-04 7.8353206676557222e-04 0.0000000000000000e+00  7.4530017956337324e-05 7.8250203974353141e-04 0.0000000000000000e+00  1.0524905326081809e-04 8.1151004748832879e-04 0.0000000000000000e+00  7.7237746791196773e-05 8.1044831126368872e-04 0.0000000000000000e+00  1.0815995137351268e-04 8.3907832323921289e-04 0.0000000000000000e+00  8.0627716551086572e-05 8.3802809745704796e-04 0.0000000000000000e+00  1.1106371299342522e-04 8.6611832804655794e-04 0.0000000000000000e+00  8.4045571707805431e-05 8.6506752668936667e-04 0.0000000000000000e+00  1.1396970974290286e-04 8.9263866430557026e-04 0.0000000000000000e+00  8.7465438697500721e-05 8.9158752553970973e-04 0.0000000000000000e+00  1.1688031276364332e-04 9.1865233755335934e-04 0.0000000000000000e+00  9.0880913782789681e-05 9.1760105675245483e-04 0.0000000000000000e+00  1.1979604019979986e-04 9.4417100753508827e-04 0.0000000000000000e+00  9.4291182749500871e-05 9.4311915260884133e-04 0.0000000000000000e+00  1.2271701288594703e-04 9.6920418735058544e-04 0.0000000000000000e+00  9.7698428443834866e-05 9.6815158058890572e-04 0.0000000000000000e+00  1.2564301610381307e-04 9.9375902284257016e-04 0.0000000000000000e+00  1.0110421554470977e-04 9.9270586170369991e-04 0.0000000000000000e+00  1.2857372996980890e-04 1.0178414497658359e-03 0.0000000000000000e+00  1.0450851570518008e-04 1.0167879823240336e-03 0.0000000000000000e+00  1.3150904588726564e-04 1.0414573572576288e-03 0.0000000000000000e+00  1.0791071704761737e-04 1.0404037440634667e-03 0.0000000000000000e+00  1.3444910198232571e-04 1.0646136374609253e-03 0.0000000000000000e+00  1.1130995467807547e-04 1.0635599186536754e-03 0.0000000000000000e+00  1.3739409199436310e-04 1.0873186166104670e-03 0.0000000000000000e+00  1.1470540920593741e-04 1.0862647758862810e-03 0.0000000000000000e+00  1.4034411563342751e-04 1.1095815520149744e-03 0.0000000000000000e+00  1.1809661017552689e-04 1.1085275640245508e-03 0.0000000000000000e+00  4.3513248915851149e-05 7.0582263795215187e-04 0.0000000000000000e+00  4.4328992201543880e-05 7.2957390087112419e-04 0.0000000000000000e+00  4.5276812184540337e-05 7.5447392432562046e-04 0.0000000000000000e+00  4.6242796656466139e-05 7.8164682918371441e-04 0.0000000000000000e+00  4.8019368970360845e-05 8.0950101747759274e-04 0.0000000000000000e+00  5.2636009874021409e-05 8.3690523245022528e-04 0.0000000000000000e+00  5.6775985032386547e-05 8.6391729255787361e-04 0.0000000000000000e+00  6.0761684195484831e-05 8.9043256197311857e-04 0.0000000000000000e+00  6.4692471838226703e-05 9.1644667672204810e-04 0.0000000000000000e+00  6.8599958372414589e-05 9.4196653926901348e-04 0.0000000000000000e+00  7.2492884620899695e-05 9.6700014078773952e-04 0.0000000000000000e+00  7.6376942010943807e-05 9.9155513605134280e-04 0.0000000000000000e+00  8.0255573574291466e-05 1.0156380423338104e-03 0.0000000000000000e+00  8.4129629681840612e-05 1.0392548805013022e-03 0.0000000000000000e+00  8.7995602209277562e-05 1.0624124383797969e-03 0.0000000000000000e+00  9.1848241422850209e-05 1.0851188761681881e-03 0.0000000000000000e+00  9.5685246525168744e-05 1.1073833486229443e-03 0.0000000000000000e+00  1.8777615990692604e-05 7.2892234439984210e-04 0.0000000000000000e+00  1.9361489650830153e-05 7.5286078814977109e-04 0.0000000000000000e+00  1.9743621038385713e-05 7.8017988862142524e-04 0.0000000000000000e+00  2.2398072062969363e-05 8.0349156285866184e-04 0.0000000000000000e+00  2.6253543026105060e-05 8.2832666478070672e-04 0.0000000000000000e+00  3.0536644930912481e-05 8.5373459796455763e-04 0.0000000000000000e+00  3.4962546934645619e-05 8.7891690348477461e-04 0.0000000000000000e+00  3.9485211511415532e-05 9.0376554988568555e-04 0.0000000000000000e+00  4.4087423769236099e-05 9.2825555088393537e-04 0.0000000000000000e+00  4.8759428281999883e-05 9.5237414161416362e-04 0.0000000000000000e+00  5.3493199692027966e-05 9.7611936958994828e-04 0.0000000000000000e+00  5.8280894022034020e-05 9.9949177776396622e-04 0.0000000000000000e+00  6.3114832250106524e-05 1.0224929763319637e-03 0.0000000000000000e+00  6.7986201656640221e-05 1.0451280884703309e-03 0.0000000000000000e+00  7.2884589013963596e-05 1.0674041057775160e-03 0.0000000000000000e+00  7.7798707843200452e-05 1.0893284114000951e-03 0.0000000000000000e+00  8.2717298217991372e-05 1.1109079203833760e-03 0.0000000000000000e+00  -4.4775300169032297e-06 7.5046454325659265e-04 0.0000000000000000e+00  -3.6936862225540719e-06 7.7409820845117741e-04 0.0000000000000000e+00  -5.7430502422138907e-07 7.9679858233589200e-04 0.0000000000000000e+00  2.8926392373588446e-06 8.1988681628399128e-04 0.0000000000000000e+00  6.9411375134656000e-06 8.4354866320853134e-04 0.0000000000000000e+00  1.1462891066574860e-05 8.6726130593536193e-04 0.0000000000000000e+00  1.6301679100915200e-05 8.9085272331448874e-04 0.0000000000000000e+00  2.1367307894016069e-05 9.1424563893960766e-04 0.0000000000000000e+00  2.6613272664048164e-05 9.3739215633769030e-04 0.0000000000000000e+00  3.2008760567057911e-05 9.6027967156014481e-04 0.0000000000000000e+00  3.7529926803517340e-05 9.8290068531678887e-04 0.0000000000000000e+00  4.3158278541913875e-05 1.0052498904116864e-03 0.0000000000000000e+00  4.8876419349800860e-05 1.0273301505419055e-03 0.0000000000000000e+00  5.4665572352664252e-05 1.0491481431061025e-03 0.0000000000000000e+00  6.0504900072657501e-05 1.0707114307545043e-03 0.0000000000000000e+00  6.6372470497943971e-05 1.0920255457457545e-03 0.0000000000000000e+00  7.2246698235215115e-05 1.1130933727744082e-03 0.0000000000000000e+00  -2.5732054696381949e-05 7.6968238502733266e-04 0.0000000000000000e+00  -2.2530120737646304e-05 7.8974493189520607e-04 0.0000000000000000e+00  -1.8847021620324222e-05 8.1137469586566415e-04 0.0000000000000000e+00  -1.4777522940610810e-05 8.3339980476026892e-04 0.0000000000000000e+00  -1.0183330472248820e-05 8.5554820882910410e-04 0.0000000000000000e+00  -5.1457585449977416e-06 8.7779630599119736e-04 0.0000000000000000e+00  2.3359202665338306e-07 9.0002430021228746e-04 0.0000000000000000e+00  5.8969094651648150e-06 9.2213635224094176e-04 0.0000000000000000e+00  1.1798029949331355e-05 9.4411428620211726e-04 0.0000000000000000e+00  1.7899333514821858e-05 9.6593959088761788e-04 0.0000000000000000e+00  2.4173579395244646e-05 9.8759601808662886e-04 0.0000000000000000e+00  3.0595355513805075e-05 1.0090852132946843e-03 0.0000000000000000e+00  3.7136963284832168e-05 1.0304149249233815e-03 0.0000000000000000e+00  4.3767269976266572e-05 1.0515944622690519e-03 0.0000000000000000e+00  5.0453526781648311e-05 1.0726284229054077e-03 0.0000000000000000e+00  5.7163743911463925e-05 1.0935160913483617e-03 0.0000000000000000e+00  6.3867592479304730e-05 1.1142539893779506e-03 0.0000000000000000e+00  -4.2147066095249826e-05 7.8223130626584058e-04 0.0000000000000000e+00  -3.8768016711609058e-05 8.0270312509146983e-04 0.0000000000000000e+00  -3.4841104399705515e-05 8.2319799956813563e-04 0.0000000000000000e+00  -3.0235370562713297e-05 8.4373824990152777e-04 0.0000000000000000e+00  -2.5082780706817158e-05 8.6461321544276765e-04 0.0000000000000000e+00  -1.9504122964917449e-05 8.8563906827523705e-04 0.0000000000000000e+00  -1.3548062964592626e-05 9.0666024776376241e-04 0.0000000000000000e+00  -7.2711871896976832e-06 9.2768136490383195e-04 0.0000000000000000e+00  -7.2276774226084451e-07 9.4866881984238707e-04 0.0000000000000000e+00  6.0662400472757691e-06 9.6958902708325673e-04 0.0000000000000000e+00  1.3064865558922198e-05 9.9044713820717312e-04 0.0000000000000000e+00  2.0237018191743359e-05 1.0112547159516093e-03 0.0000000000000000e+00  2.7540516767955370e-05 1.0320255475044786e-03 0.0000000000000000e+00  3.4931169941155130e-05 1.0527632691041968e-03 0.0000000000000000e+00  4.2366757547830761e-05 1.0734623044394882e-03 0.0000000000000000e+00  4.9807474347721956e-05 1.0941140699179796e-03 0.0000000000000000e+00  5.7216005206714396e-05 1.1147072961831305e-03 0.0000000000000000e+00  -5.7564434336568054e-05 7.9413543344029143e-04 0.0000000000000000e+00  -5.3666606789167548e-05 8.1300291095174671e-04 0.0000000000000000e+00  -4.8984429213162479e-05 8.3177737762777650e-04 0.0000000000000000e+00  -4.3733642775086747e-05 8.5130002730342323e-04 0.0000000000000000e+00  -3.8035489674346147e-05 8.7112180178782351e-04 0.0000000000000000e+00  -3.1880343679966891e-05 8.9099527203617657e-04 0.0000000000000000e+00  -2.5333052687463655e-05 9.1102262907575041e-04 0.0000000000000000e+00  -1.8452939862111673e-05 9.3113696406766494e-04 0.0000000000000000e+00  -1.1264311052057886e-05 9.5127427880353928e-04 0.0000000000000000e+00  -3.7997984247844103e-06 9.7145682727083245e-04 0.0000000000000000e+00  3.8970088983864241e-06 9.9170402621445958e-04 0.0000000000000000e+00  1.1771476107138775e-05 1.0120392608955905e-03 0.0000000000000000e+00  1.9766927335489329e-05 1.0324641259486947e-03 0.0000000000000000e+00  2.7831318922384295e-05 1.0529654043461769e-03 0.0000000000000000e+00  3.5915791066094294e-05 1.0735290186360946e-03 0.0000000000000000e+00  4.3974051497593817e-05 1.0941378007817268e-03 0.0000000000000000e+00  5.1963587912752854e-05 1.1147700008323504e-03 0.0000000000000000e+00  -7.1142962772685134e-05 8.0285754152147428e-04 0.0000000000000000e+00  -6.6485399362056999e-05 8.1953229473905823e-04 0.0000000000000000e+00  -6.1224141458464078e-05 8.3784908725685777e-04 0.0000000000000000e+00  -5.5517513521845283e-05 8.5650698970735160e-04 0.0000000000000000e+00  -4.9243585061960761e-05 8.7515002798618574e-04 0.0000000000000000e+00  -4.2514338001762307e-05 8.9416752978623091e-04 0.0000000000000000e+00  -3.5407609579166314e-05 9.1338639024492142e-04 0.0000000000000000e+00  -2.7921951110847028e-05 9.3268627906882291e-04 0.0000000000000000e+00  -2.0088370386255539e-05 9.5214264085263518e-04 0.0000000000000000e+00  -1.1957566623567930e-05 9.7178526706940009e-04 0.0000000000000000e+00  -3.5998800276031960e-06 9.9165704738030710e-04 0.0000000000000000e+00  4.9139093400078216e-06 1.0117532653146307e-03 0.0000000000000000e+00  1.3523320340092107e-05 1.0320474040718920e-03 0.0000000000000000e+00  2.2171086958524388e-05 1.0525206953784984e-03 0.0000000000000000e+00  3.0801614265957922e-05 1.0731503558493239e-03 0.0000000000000000e+00  3.9363680877947938e-05 1.0939060717281978e-03 0.0000000000000000e+00  4.7811777815007315e-05 1.1147537563587274e-03 0.0000000000000000e+00  -8.2955148882069306e-05 8.0675602123031747e-04 0.0000000000000000e+00  -7.7754500528424183e-05 8.2431103854839645e-04 0.0000000000000000e+00  -7.2145330573513341e-05 8.4186464287927152e-04 0.0000000000000000e+00  -6.5782678476336340e-05 8.5909727415828837e-04 0.0000000000000000e+00  -5.8934139691388125e-05 8.7714069239878945e-04 0.0000000000000000e+00  -5.1702005349529427e-05 8.9546362950519655e-04 0.0000000000000000e+00  -4.4011963899725210e-05 9.1384990306105855e-04 0.0000000000000000e+00  -3.5893944481794515e-05 9.3252120709250608e-04 0.0000000000000000e+00  -2.7405502997281748e-05 9.5150587698814286e-04 0.0000000000000000e+00  -1.8639542157949163e-05 9.7088775606888657e-04 0.0000000000000000e+00  -9.6830600969454003e-06 9.9064254612795722e-04 0.0000000000000000e+00  -6.0102050951803552e-07 1.0107194949957397e-03 0.0000000000000000e+00  8.5417321586408404e-06 1.0311001292248865e-03 0.0000000000000000e+00  1.7679085289967449e-05 1.0517572090173659e-03 0.0000000000000000e+00  2.6750313805797817e-05 1.0726499032541661e-03 0.0000000000000000e+00  3.5701816792323992e-05 1.0937332880316568e-03 0.0000000000000000e+00  4.4486159169562547e-05 1.1149627437392435e-03 0.0000000000000000e+00  -9.3724220391546483e-05 8.1079627334411809e-04 0.0000000000000000e+00  -8.8122421446137247e-05 8.2731229620707631e-04 0.0000000000000000e+00  -8.1604411707635323e-05 8.4271331790324586e-04 0.0000000000000000e+00  -7.4681209497656865e-05 8.5997654220634106e-04 0.0000000000000000e+00  -6.7443077956099703e-05 8.7743787591314725e-04 0.0000000000000000e+00  -5.9635755413624070e-05 8.9477819239302365e-04 0.0000000000000000e+00  -5.1310192742459202e-05 9.1259902698543444e-04 0.0000000000000000e+00  -4.2528046369377437e-05 9.3085608872500258e-04 0.0000000000000000e+00  -3.3419136744804654e-05 9.4972896921948706e-04 0.0000000000000000e+00  -2.4088710558372504e-05 9.6913589359303549e-04 0.0000000000000000e+00  -1.4596369517259019e-05 9.8898225997654768e-04 0.0000000000000000e+00  -5.0145474448091864e-06 1.0092670550431503e-03 0.0000000000000000e+00  4.5766899408902495e-06 1.0299601891510144e-03 0.0000000000000000e+00  1.4105717836849283e-05 1.0510059709566795e-03 0.0000000000000000e+00  2.3510315371974643e-05 1.0723468028274875e-03 0.0000000000000000e+00  3.2734021975057050e-05 1.0939291461562820e-03 0.0000000000000000e+00  4.1729213542302181e-05 1.1156921690668624e-03 0.0000000000000000e+00  -1.0283699777066493e-04 8.1326194296885417e-04 0.0000000000000000e+00  -1.0738989366869001e-04 7.9791555480410636e-04 0.0000000000000000e+00  -9.6675004524276575e-05 8.2565990750522371e-04 0.0000000000000000e+00  -8.9803933888739988e-05 8.4277522041184040e-04 0.0000000000000000e+00  -8.2730993420665217e-05 8.5943771395583391e-04 0.0000000000000000e+00  -7.4882969452209338e-05 8.7546017073591412e-04 0.0000000000000000e+00  -6.6428722346352785e-05 8.9237856372039489e-04 0.0000000000000000e+00  -5.7408190199390102e-05 9.0980351653889178e-04 0.0000000000000000e+00  -4.8018030490917937e-05 9.2817053955938499e-04 0.0000000000000000e+00  -3.8381850482592830e-05 9.4723392693471693e-04 0.0000000000000000e+00  -2.8531507121211955e-05 9.6682455466600271e-04 0.0000000000000000e+00  -1.8552010399817768e-05 9.8700831906049801e-04 0.0000000000000000e+00  -8.5458067147866488e-06 1.0077499339332249e-03 0.0000000000000000e+00  1.4029270997476007e-06 1.0289684751641050e-03 0.0000000000000000e+00  1.1223206153740955e-05 1.0505918512815928e-03 0.0000000000000000e+00  2.0846889617041603e-05 1.0725610416440589e-03 0.0000000000000000e+00  3.0216369797756876e-05 1.0947992962918993e-03 0.0000000000000000e+00  3.9292272360832295e-05 1.1172190932793842e-03 0.0000000000000000e+00  -1.1288197713820952e-04 8.0263877162040445e-04 0.0000000000000000e+00  -1.1297689899436971e-04 7.9794705632648365e-04 0.0000000000000000e+00  -1.1289211123730640e-04 8.0666073301539280e-04 0.0000000000000000e+00  -1.0465849684152879e-04 8.2577292246290891e-04 0.0000000000000000e+00  -9.7666561832288859e-05 8.4170304609077103e-04 0.0000000000000000e+00  -8.9794376331013933e-05 8.5582090742793268e-04 0.0000000000000000e+00  -8.1333682315045530e-05 8.7188254939975891e-04 0.0000000000000000e+00  -7.2135161399424099e-05 8.8827858700240778e-04 0.0000000000000000e+00  -6.2532596447406618e-05 9.0620332333178437e-04 0.0000000000000000e+00  -5.2666678526068197e-05 9.2494194402572226e-04 0.0000000000000000e+00  -4.2495171876464001e-05 9.4421805688713696e-04 0.0000000000000000e+00  -3.2138501073459752e-05 9.6429421319890849e-04 0.0000000000000000e+00  -2.1739322614233833e-05 9.8510479928695638e-04 0.0000000000000000e+00  -1.1393747447521348e-05 1.0065201486452627e-03 0.0000000000000000e+00  -1.1797940059992311e-06 1.0284542514893277e-03 0.0000000000000000e+00  8.8175519676670029e-06 1.0508530960516458e-03 0.0000000000000000e+00  1.8526780802144472e-05 1.0736177597811521e-03 0.0000000000000000e+00  2.7904495361912821e-05 1.0966295360160579e-03 0.0000000000000000e+00  3.6932654726359376e-05 1.1197808456539459e-03 0.0000000000000000e+00  -1.1710365583082096e-04 8.0266563131149932e-04 0.0000000000000000e+00  -1.1756078173359487e-04 7.9791795056137808e-04 0.0000000000000000e+00  -1.1689713912972687e-04 8.0667316083629431e-04 0.0000000000000000e+00  -1.1682391761292582e-04 8.0985981310407757e-04 0.0000000000000000e+00  -1.1120768283891297e-04 8.2487439032129109e-04 0.0000000000000000e+00  -1.0411374106539301e-04 8.3566131395853855e-04 0.0000000000000000e+00  -9.6101488125856867e-05 8.5125076838392887e-04 0.0000000000000000e+00  -8.6844509082504651e-05 8.6612807978929363e-04 0.0000000000000000e+00  -7.7108559760564948e-05 8.8383830028959383e-04 0.0000000000000000e+00  -6.7096235999968722e-05 9.0228154204525938e-04 0.0000000000000000e+00  -5.6602358756110551e-05 9.2109984542242530e-04 0.0000000000000000e+00  -4.5854374727415634e-05 9.4107209081496616e-04 0.0000000000000000e+00  -3.5064229539095063e-05 9.6199054324065290e-04 0.0000000000000000e+00  -2.4327661529277788e-05 9.8363077624853386e-04 0.0000000000000000e+00  -1.3722868623579511e-05 1.0059044672390061e-03 0.0000000000000000e+00  -3.3626674693816727e-06 1.0287896510409243e-03 0.0000000000000000e+00  6.6609701422151173e-06 1.0521494736718670e-03 0.0000000000000000e+00  1.6302687237749226e-05 1.0758166249178554e-03 0.0000000000000000e+00  2.5553118531062706e-05 1.0996502362525282e-03 0.0000000000000000e+00  3.4421697375646049e-05 1.1235511975035380e-03 0.0000000000000000e+00  -1.2059513678913119e-04 8.0267633649311158e-04 0.0000000000000000e+00  -1.2146843460245602e-04 7.9795427299731217e-04 0.0000000000000000e+00  -1.1997144757400212e-04 8.0668342046034069e-04 0.0000000000000000e+00  -1.1956954938820574e-04 8.0991548484798807e-04 0.0000000000000000e+00  -1.1932536953415440e-04 8.1230417456189859e-04 0.0000000000000000e+00  -1.1923775190140411e-04 8.1410566056485626e-04 0.0000000000000000e+00  -1.1116617325329546e-04 8.3104363448819533e-04 0.0000000000000000e+00  -1.0200299049818710e-04 8.4291326876289436e-04 0.0000000000000000e+00  -9.2031665697999546e-05 8.6113764307573133e-04 0.0000000000000000e+00  -8.1897088895530577e-05 8.7930361949276493e-04 0.0000000000000000e+00  -7.0984168692098386e-05 8.9732715062001099e-04 0.0000000000000000e+00  -5.9780117263262550e-05 9.1726055269454349e-04 0.0000000000000000e+00  -4.8585704833028148e-05 9.3836461144967802e-04 0.0000000000000000e+00  -3.7448197165992806e-05 9.6025585013551952e-04 0.0000000000000000e+00  -2.6430602792168671e-05 9.8289083976301102e-04 0.0000000000000000e+00  -1.5699849271001645e-05 1.0063429574706643e-03 0.0000000000000000e+00  -5.3788647838513546e-06 1.0303943085561934e-03 0.0000000000000000e+00  4.4913794909613416e-06 1.0547988178479051e-03 0.0000000000000000e+00  1.3919495403108833e-05 1.0793734157531160e-03 0.0000000000000000e+00  2.2933259644965534e-05 1.1040043489547763e-03 0.0000000000000000e+00  3.1561453932435455e-05 1.1286325722978639e-03 0.0000000000000000e+00  -1.2330761989584192e-04 8.0268183797634572e-04 0.0000000000000000e+00  -1.2235813397668899e-04 8.0669382474613395e-04 0.0000000000000000e+00  -1.2158615673617859e-04 8.0991247943320102e-04 0.0000000000000000e+00  -1.2102793289203927e-04 8.1231256818091978e-04 0.0000000000000000e+00  -1.2068686361645995e-04 8.1416161816760140e-04 0.0000000000000000e+00  -1.2041607717791950e-04 8.1542252636568921e-04 0.0000000000000000e+00  -1.1983360269030093e-04 8.1682426497971760e-04 0.0000000000000000e+00  -1.0765814221321217e-04 8.3827330519490760e-04 0.0000000000000000e+00  -9.7211595746856701e-05 8.5613233428689743e-04 0.0000000000000000e+00  -8.5699668434013348e-05 8.7258473016396101e-04 0.0000000000000000e+00  -7.3964662523425429e-05 8.9276291659063723e-04 0.0000000000000000e+00  -6.2370612716048147e-05 9.1419354365709861e-04 0.0000000000000000e+00  -5.0812177681673181e-05 9.3633492474897080e-04 0.0000000000000000e+00  -3.9323615282649614e-05 9.5932585616659402e-04 0.0000000000000000e+00