<?xml version="1.0"?>
<VTKFile type="UnstructuredGrid"  version="0.1"  >
<UnstructuredGrid>
<Piece  NumberOfPoints="639" NumberOfCells="1174">
<Points>
<DataArray  type="Float64"  NumberOfComponents="3"  format="ascii">1.024347826086957 0 0  1.040869565217391 0 0  1.040869565217391 0.01666666666666667 0  1.024347826086957 0.01666666666666667 0  1.057391304347826 0 0  1.057391304347826 0.01666666666666667 0  1.073913043478261 0 0  1.073913043478261 0.01666666666666667 0  1.090434782608696 0 0  1.090434782608696 0.01666666666666667 0  1.10695652173913 0 0  1.10695652173913 0.01666666666666667 0  1.123478260869565 0 0  1.123478260869565 0.01666666666666667 0  1.14 0 0  1.14 0.01666666666666667 0  1.156521739130435 0 0  1.156521739130435 0.01666666666666667 0  1.17304347826087 0 0  1.17304347826087 0.01666666666666667 0  1.189565217391304 0 0  1.189565217391304 0.01666666666666667 0  1.206086956521739 0 0  1.206086956521739 0.01666666666666667 0  1.222608695652174 0 0  1.222608695652174 0.01666666666666667 0  1.239130434782609 0 0  1.239130434782609 0.01666666666666667 0  1.255652173913044 0 0  1.255652173913044 0.01666666666666667 0  1.272173913043478 0 0  1.272173913043478 0.01666666666666667 0  1.288695652173913 0 0  1.288695652173913 0.01666666666666667 0  1.305217391304348 0 0  1.305217391304348 0.01666666666666667 0  1.321739130434783 0 0  1.321739130434783 0.01666666666666667 0  1.338260869565217 0.01666666666666667 0  1.040869565217391 0.03333333333333333 0  1.057391304347826 0.03333333333333333 0  1.073913043478261 0.03333333333333333 0  1.090434782608696 0.03333333333333333 0  1.10695652173913 0.03333333333333333 0  1.123478260869565 0.03333333333333333 0  1.14 0.03333333333333333 0  1.156521739130435 0.03333333333333333 0  1.17304347826087 0.03333333333333333 0  1.189565217391304 0.03333333333333333 0  1.206086956521739 0.03333333333333333 0  1.222608695652174 0.03333333333333333 0  1.239130434782609 0.03333333333333333 0  1.255652173913044 0.03333333333333333 0  1.272173913043478 0.03333333333333333 0  1.288695652173913 0.03333333333333333 0  1.305217391304348 0.03333333333333333 0  1.321739130434783 0.03333333333333333 0  1.338260869565217 0.03333333333333333 0  1.354782608695652 0.03333333333333333 0  1.057391304347826 0.05 0  1.073913043478261 0.05 0  1.090434782608696 0.05 0  1.10695652173913 0.05 0  1.123478260869565 0.05 0  1.14 0.05 0  1.156521739130435 0.05 0  1.17304347826087 0.05 0  1.189565217391304 0.05 0  1.206086956521739 0.05 0  1.222608695652174 0.05 0  1.239130434782609 0.05 0  1.255652173913044 0.05 0  1.272173913043478 0.05 0  1.288695652173913 0.05 0  1.305217391304348 0.05 0  1.321739130434783 0.05 0  1.338260869565217 0.05 0  1.354782608695652 0.05 0  1.371304347826087 0.05 0  1.073913043478261 0.06666666666666667 0  1.090434782608696 0.06666666666666667 0  1.10695652173913 0.06666666666666667 0  1.123478260869565 0.06666666666666667 0  1.14 0.06666666666666667 0  1.156521739130435 0.06666666666666667 0  1.17304347826087 0.06666666666666667 0  1.189565217391304 0.06666666666666667 0  1.206086956521739 0.06666666666666667 0  1.222608695652174 0.06666666666666667 0  1.239130434782609 0.06666666666666667 0  1.255652173913044 0.06666666666666667 0  1.272173913043478 0.06666666666666667 0  1.288695652173913 0.06666666666666667 0  1.305217391304348 0.06666666666666667 0  1.321739130434783 0.06666666666666667 0  1.338260869565217 0.06666666666666667 0  1.354782608695652 0.06666666666666667 0  1.371304347826087 0.06666666666666667 0  1.387826086956522 0.06666666666666667 0  1.090434782608696 0.08333333333333333 0  1.10695652173913 0.08333333333333333 0  1.123478260869565 0.08333333333333333 0  1.14 0.08333333333333333 0  1.156521739130435 0.08333333333333333 0  1.17304347826087 0.08333333333333333 0  1.189565217391304 0.08333333333333333 0  1.206086956521739 0.08333333333333333 0  1.222608695652174 0.08333333333333333 0  1.239130434782609 0.08333333333333333 0  1.255652173913044 0.08333333333333333 0  1.272173913043478 0.08333333333333333 0  1.288695652173913 0.08333333333333333 0  1.305217391304348 0.08333333333333333 0  1.321739130434783 0.08333333333333333 0  1.338260869565217 0.08333333333333333 0  1.354782608695652 0.08333333333333333 0  1.371304347826087 0.08333333333333333 0  1.387826086956522 0.08333333333333333 0  1.404347826086957 0.08333333333333333 0  1.10695652173913 0.1 0  1.123478260869565 0.1 0  1.14 0.1 0  1.156521739130435 0.1 0  1.17304347826087 0.1 0  1.189565217391304 0.1 0  1.206086956521739 0.1 0  1.222608695652174 0.1 0  1.239130434782609 0.1 0  1.255652173913044 0.1 0  1.272173913043478 0.1 0  1.288695652173913 0.1 0  1.305217391304348 0.1 0  1.321739130434783 0.1 0  1.338260869565217 0.1 0  1.354782608695652 0.1 0  1.371304347826087 0.1 0  1.387826086956522 0.1 0  1.404347826086957 0.1 0  1.420869565217391 0.1 0  1.123478260869565 0.1166666666666667 0  1.14 0.1166666666666667 0  1.156521739130435 0.1166666666666667 0  1.17304347826087 0.1166666666666667 0  1.189565217391304 0.1166666666666667 0  1.206086956521739 0.1166666666666667 0  1.222608695652174 0.1166666666666667 0  1.239130434782609 0.1166666666666667 0  1.255652173913044 0.1166666666666667 0  1.272173913043478 0.1166666666666667 0  1.288695652173913 0.1166666666666667 0  1.305217391304348 0.1166666666666667 0  1.321739130434783 0.1166666666666667 0  1.338260869565217 0.1166666666666667 0  1.354782608695652 0.1166666666666667 0  1.371304347826087 0.1166666666666667 0  1.387826086956522 0.1166666666666667 0  1.404347826086957 0.1166666666666667 0  1.420869565217391 0.1166666666666667 0  1.437391304347826 0.1166666666666667 0  1.14 0.1333333333333333 0  1.156521739130435 0.1333333333333333 0  1.17304347826087 0.1333333333333333 0  1.189565217391304 0.1333333333333333 0  1.206086956521739 0.1333333333333333 0  1.222608695652174 0.1333333333333333 0  1.239130434782609 0.1333333333333333 0  1.255652173913044 0.1333333333333333 0  1.272173913043478 0.1333333333333333 0  1.288695652173913 0.1333333333333333 0  1.305217391304348 0.1333333333333333 0  1.321739130434783 0.1333333333333333 0  1.338260869565217 0.1333333333333333 0  1.354782608695652 0.1333333333333333 0  1.371304347826087 0.1333333333333333 0  1.387826086956522 0.1333333333333333 0  1.404347826086957 0.1333333333333333 0  1.420869565217391 0.1333333333333333 0  1.437391304347826 0.1333333333333333 0  1.453913043478261 0.1333333333333333 0  1.156521739130435 0.15 0  1.17304347826087 0.15 0  1.189565217391304 0.15 0  1.206086956521739 0.15 0  1.222608695652174 0.15 0  1.239130434782609 0.15 0  1.255652173913044 0.15 0  1.272173913043478 0.15 0  1.288695652173913 0.15 0  1.305217391304348 0.15 0  1.321739130434783 0.15 0  1.338260869565217 0.15 0  1.354782608695652 0.15 0  1.371304347826087 0.15 0  1.387826086956522 0.15 0  1.404347826086957 0.15 0  1.420869565217391 0.15 0  1.437391304347826 0.15 0  1.453913043478261 0.15 0  1.470434782608696 0.15 0  1.17304347826087 0.1666666666666667 0  1.189565217391304 0.1666666666666667 0  1.206086956521739 0.1666666666666667 0  1.222608695652174 0.1666666666666667 0  1.239130434782609 0.1666666666666667 0  1.255652173913044 0.1666666666666667 0  1.272173913043478 0.1666666666666667 0  1.288695652173913 0.1666666666666667 0  1.305217391304348 0.1666666666666667 0  1.321739130434783 0.1666666666666667 0  1.338260869565217 0.1666666666666667 0  1.354782608695652 0.1666666666666667 0  1.371304347826087 0.1666666666666667 0  1.387826086956522 0.1666666666666667 0  1.404347826086957 0.1666666666666667 0  1.420869565217391 0.1666666666666667 0  1.437391304347826 0.1666666666666667 0  1.453913043478261 0.1666666666666667 0  1.470434782608696 0.1666666666666667 0  1.486956521739131 0.1666666666666667 0  1.189565217391304 0.1833333333333333 0  1.206086956521739 0.1833333333333333 0  1.222608695652174 0.1833333333333333 0  1.239130434782609 0.1833333333333333 0  1.255652173913044 0.1833333333333333 0  1.272173913043478 0.1833333333333333 0  1.288695652173913 0.1833333333333333 0  1.305217391304348 0.1833333333333333 0  1.321739130434783 0.1833333333333333 0  1.338260869565217 0.1833333333333333 0  1.354782608695652 0.1833333333333333 0  1.371304347826087 0.1833333333333333 0  1.387826086956522 0.1833333333333333 0  1.404347826086957 0.1833333333333333 0  1.420869565217391 0.1833333333333333 0  1.437391304347826 0.1833333333333333 0  1.453913043478261 0.1833333333333333 0  1.470434782608696 0.1833333333333333 0  1.486956521739131 0.1833333333333333 0  1.503478260869565 0.1833333333333333 0  1.206086956521739 0.2 0  1.222608695652174 0.2 0  1.239130434782609 0.2 0  1.255652173913044 0.2 0  1.272173913043478 0.2 0  1.288695652173913 0.2 0  1.305217391304348 0.2 0  1.321739130434783 0.2 0  1.338260869565217 0.2 0  1.354782608695652 0.2 0  1.371304347826087 0.2 0  1.387826086956522 0.2 0  1.404347826086957 0.2 0  1.420869565217391 0.2 0  1.437391304347826 0.2 0  1.453913043478261 0.2 0  1.470434782608696 0.2 0  1.486956521739131 0.2 0  1.503478260869565 0.2 0  1.52 0.2 0  1.222608695652174 0.2166666666666667 0  1.239130434782609 0.2166666666666667 0  1.255652173913044 0.2166666666666667 0  1.272173913043478 0.2166666666666667 0  1.288695652173913 0.2166666666666667 0  1.305217391304348 0.2166666666666667 0  1.321739130434783 0.2166666666666667 0  1.338260869565217 0.2166666666666667 0  1.354782608695652 0.2166666666666667 0  1.371304347826087 0.2166666666666667 0  1.387826086956522 0.2166666666666667 0  1.404347826086957 0.2166666666666667 0  1.420869565217391 0.2166666666666667 0  1.437391304347826 0.2166666666666667 0  1.453913043478261 0.2166666666666667 0  1.470434782608696 0.2166666666666667 0  1.486956521739131 0.2166666666666667 0  1.503478260869565 0.2166666666666667 0  1.52 0.2166666666666667 0  1.536521739130435 0.2166666666666667 0  1.239130434782609 0.2333333333333333 0  1.255652173913044 0.2333333333333333 0  1.272173913043478 0.2333333333333333 0  1.288695652173913 0.2333333333333333 0  1.305217391304348 0.23333
[...]
<PointData  Vectors="Displacement"> 
<DataArray  type="Float64"  Name="Displacement"  NumberOfComponents="3" format="ascii">1.9729742926277518e-04 1.4596554455587024e-03 0.0000000000000000e+00  2.0034062654966959e-04 1.4747830945842674e-03 0.0000000000000000e+00  1.8521328873057647e-04 1.4737240772949333e-03 0.0000000000000000e+00  1.8188730917539873e-04 1.4585966828359700e-03 0.0000000000000000e+00  2.0338825515294140e-04 1.4896342157794372e-03 0.0000000000000000e+00  1.8853624631433503e-04 1.4885749352413732e-03 0.0000000000000000e+00  2.0644027550982273e-04 1.5042161071563943e-03 0.0000000000000000e+00  1.9185629343535678e-04 1.5031565669723964e-03 0.0000000000000000e+00  2.0949665321721999e-04 1.5185359163309839e-03 0.0000000000000000e+00  1.9517349808233979e-04 1.5174761283011677e-03 0.0000000000000000e+00  2.1255736900655068e-04 1.5326007343035469e-03 0.0000000000000000e+00  1.9848786121107014e-04 1.5315407053135652e-03 0.0000000000000000e+00  2.1562241364050705e-04 1.5464176691990968e-03 0.0000000000000000e+00  2.0179935849895907e-04 1.5453574086562016e-03 0.0000000000000000e+00  2.1869177948033534e-04 1.5599938181355614e-03 0.0000000000000000e+00  2.0510796822891206e-04 1.5589333627453897e-03 0.0000000000000000e+00  2.2176547545235578e-04 1.5733362673112576e-03 0.0000000000000000e+00  2.0841359480441548e-04 1.5722756834808784e-03 0.0000000000000000e+00  2.2484355510571076e-04 1.5864523070649385e-03 0.0000000000000000e+00  2.1171595904809299e-04 1.5853916553967510e-03 0.0000000000000000e+00  2.2792610211910951e-04 1.5993498226199686e-03 0.0000000000000000e+00  2.1501459355503617e-04 1.5982891096942935e-03 0.0000000000000000e+00  2.3101316724139336e-04 1.6120374332341230e-03 0.0000000000000000e+00  2.1830908972686575e-04 1.6109765882113404e-03 0.0000000000000000e+00  2.3410474144701214e-04 1.6245239902368789e-03 0.0000000000000000e+00  2.2159951109834995e-04 1.6234628776710066e-03 0.0000000000000000e+00  2.3720077753981004e-04 1.6368178700804901e-03 0.0000000000000000e+00  2.2488648350942205e-04 1.6357563069923239e-03 0.0000000000000000e+00  2.4030117666473503e-04 1.6489266169368445e-03 0.0000000000000000e+00  2.2817094905670205e-04 1.6478643795677123e-03 0.0000000000000000e+00  2.4340565469284148e-04 1.6608565582076494e-03 0.0000000000000000e+00  2.3145409910656944e-04 1.6597935772768562e-03 0.0000000000000000e+00  2.4651364076140500e-04 1.6726120748587153e-03 0.0000000000000000e+00  2.3473698276594884e-04 1.6715487093053080e-03 0.0000000000000000e+00  2.4962473199674511e-04 1.6841951593750497e-03 0.0000000000000000e+00  2.3801982401432879e-04 1.6831320723612753e-03 0.0000000000000000e+00  2.5273953691981642e-04 1.6956078963901802e-03 0.0000000000000000e+00  2.4130110536412517e-04 1.6945453066185899e-03 0.0000000000000000e+00  2.4457771188469572e-04 1.7057954806922468e-03 0.0000000000000000e+00  1.6997949398267313e-04 1.4726071997875330e-03 0.0000000000000000e+00  1.7358019287332872e-04 1.4874593261345597e-03 0.0000000000000000e+00  1.7717067862498424e-04 1.5020421890787317e-03 0.0000000000000000e+00  1.8075133365030320e-04 1.5163629654522089e-03 0.0000000000000000e+00  1.8432222464915827e-04 1.5304287626937410e-03 0.0000000000000000e+00  1.8788314487952549e-04 1.5442466839161824e-03 0.0000000000000000e+00  1.9143416689301488e-04 1.5578238519428978e-03 0.0000000000000000e+00  1.9497565322795757e-04 1.5711674366756833e-03 0.0000000000000000e+00  1.9850729763473782e-04 1.5842848188342171e-03 0.0000000000000000e+00  2.0202714691410750e-04 1.5971838689753685e-03 0.0000000000000000e+00  2.0553267463574849e-04 1.6098730255104253e-03 0.0000000000000000e+00  2.0902357152451342e-04 1.6223609094702684e-03 0.0000000000000000e+00  2.1250164378217018e-04 1.6346557236037447e-03 0.0000000000000000e+00  2.1596846813653144e-04 1.6467648590729658e-03 0.0000000000000000e+00  2.1942542282364310e-04 1.6586946018483236e-03 0.0000000000000000e+00  2.2287719397409114e-04 1.6704496954491298e-03 0.0000000000000000e+00  2.2633535571594038e-04 1.6820331155981345e-03 0.0000000000000000e+00  2.2980496306157174e-04 1.6934477870394395e-03 0.0000000000000000e+00  2.3326141008091724e-04 1.7047006182719223e-03 0.0000000000000000e+00  2.3667908888205206e-04 1.7158042072070814e-03 0.0000000000000000e+00  1.7154842971311876e-04 1.4760061866554680e-03 0.0000000000000000e+00  1.7531107515226507e-04 1.4912134278907911e-03 0.0000000000000000e+00  1.7900615245645206e-04 1.5061607506113232e-03 0.0000000000000000e+00  1.8263462587317158e-04 1.5208519621144566e-03 0.0000000000000000e+00  1.8619784440274882e-04 1.5352908297734779e-03 0.0000000000000000e+00  1.8969762328104837e-04 1.5494811466965849e-03 0.0000000000000000e+00  1.9313620698432687e-04 1.5634269851900790e-03 0.0000000000000000e+00  1.9651605460397359e-04 1.5771330408335237e-03 0.0000000000000000e+00  1.9983966476526006e-04 1.5906047847848918e-03 0.0000000000000000e+00  2.0310974338883170e-04 1.6038481873367320e-03 0.0000000000000000e+00  2.0632958391632821e-04 1.6168693592040998e-03 0.0000000000000000e+00  2.0950303110705071e-04 1.6296746906397242e-03 0.0000000000000000e+00  2.1263392661924647e-04 1.6422708269200231e-03 0.0000000000000000e+00  2.1572566173419733e-04 1.6546639793491365e-03 0.0000000000000000e+00  2.1878100465269872e-04 1.6668592666796043e-03 0.0000000000000000e+00  2.2180122804617443e-04 1.6788614088056957e-03 0.0000000000000000e+00  2.2478324780788816e-04 1.6906783654099550e-03 0.0000000000000000e+00  2.2771719430249066e-04 1.7023231521761462e-03 0.0000000000000000e+00  2.3059055103750442e-04 1.7138067501055979e-03 0.0000000000000000e+00  2.3339439356695943e-04 1.7251372269255507e-03 0.0000000000000000e+00  1.7236903033219267e-04 1.4803782433097463e-03 0.0000000000000000e+00  1.7617526835671626e-04 1.4959872794400404e-03 0.0000000000000000e+00  1.7986392442901245e-04 1.5113383683729501e-03 0.0000000000000000e+00  1.8343758914647333e-04 1.5264315558067806e-03 0.0000000000000000e+00  1.8689974502920608e-04 1.5412670153175756e-03 0.0000000000000000e+00  1.9025472333745005e-04 1.5558453812010214e-03 0.0000000000000000e+00  1.9350759589203950e-04 1.5701681254664990e-03 0.0000000000000000e+00  1.9666404110560225e-04 1.5842377668474959e-03 0.0000000000000000e+00  1.9973018794009509e-04 1.5980577989561740e-03 0.0000000000000000e+00  2.0271236245686963e-04 1.6116325780423848e-03 0.0000000000000000e+00  2.0561667681076324e-04 1.6249674613169384e-03 0.0000000000000000e+00  2.0844850529118210e-04 1.6380688166921292e-03 0.0000000000000000e+00  2.1121184886880405e-04 1.6509435998777701e-03 0.0000000000000000e+00  2.1390856471696808e-04 1.6635989283904772e-03 0.0000000000000000e+00  2.1653740007439117e-04 1.6760427122607345e-03 0.0000000000000000e+00  2.1909311981511509e-04 1.6882856467489848e-03 0.0000000000000000e+00  2.2156655026328304e-04 1.7003415802760158e-03 0.0000000000000000e+00  2.2394592719772468e-04 1.7122227209098926e-03 0.0000000000000000e+00  2.2621713736420984e-04 1.7239394831265673e-03 0.0000000000000000e+00  2.2836209387098110e-04 1.7355060801728080e-03 0.0000000000000000e+00  1.7234621236077863e-04 1.4858441027723410e-03 0.0000000000000000e+00  1.7609555505329255e-04 1.5018871421750575e-03 0.0000000000000000e+00  1.7968521652414894e-04 1.5176657531052525e-03 0.0000000000000000e+00  1.8312019762058504e-04 1.5331760844773440e-03 0.0000000000000000e+00  1.8640679179611854e-04 1.5484149235662950e-03 0.0000000000000000e+00  1.8955244981372094e-04 1.5633801664811200e-03 0.0000000000000000e+00  1.9256554107895091e-04 1.5780711815594089e-03 0.0000000000000000e+00  1.9545498173471272e-04 1.5924890024762806e-03 0.0000000000000000e+00  1.9822970592816330e-04 1.6066364538128042e-03 0.0000000000000000e+00  2.0089801949800133e-04 1.6205183098534166e-03 0.0000000000000000e+00  2.0346690378242311e-04 1.6341412974200974e-03 0.0000000000000000e+00  2.0594123442115991e-04 1.6475138290314726e-03 0.0000000000000000e+00  2.0832297522204227e-04 1.6606455301481516e-03 0.0000000000000000e+00  2.1061034169987108e-04 1.6735474791528618e-03 0.0000000000000000e+00  2.1279722104570778e-04 1.6862330039200308e-03 0.0000000000000000e+00  2.1487312051187807e-04 1.6987176353586136e-03 0.0000000000000000e+00  2.1682444832617012e-04 1.7110150896820441e-03 0.0000000000000000e+00  2.1863452511894778e-04 1.7231387390753724e-03 0.0000000000000000e+00  2.2028113363040249e-04 1.7351069442660132e-03 0.0000000000000000e+00  2.2173301656035565e-04 1.7469467503988311e-03 0.0000000000000000e+00  1.7140381536847528e-04 1.4924992482182840e-03 0.0000000000000000e+00  1.7501272724436762e-04 1.5089925888886540e-03 0.0000000000000000e+00  1.7842819003686903e-04 1.5252057552913891e-03 0.0000000000000000e+00  1.8165833426751958e-04 1.5411312403628154e-03 0.0000000000000000e+00  1.8471285935090032e-04 1.5567630036793490e-03 0.0000000000000000e+00  1.8760267243370229e-04 1.5720970601458355e-03 0.0000000000000000e+00  1.9033932440884607e-04 1.5871319458851142e-03 0.0000000000000000e+00  1.9293427250798424e-04 1.6018690538323181e-03 0.0000000000000000e+00  1.9539806514988180e-04 1.6163128441018834e-03 0.0000000000000000e+00  1.9773953651297009e-04 1.6304708439453378e-03 0.0000000000000000e+00  1.9996495658531119e-04 1.6443534490656051e-03 0.0000000000000000e+00  2.0207732707195445e-04 1.6579730969034153e-03 0.0000000000000000e+00  2.0407551907093764e-04 1.6713442343204291e-03 0.0000000000000000e+00  2.0595330746515982e-04 1.6844834711850051e-03 0.0000000000000000e+00  2.0769854433531738e-04 1.6974095483090089e-03 0.0000000000000000e+00  2.0929595379008987e-04 1.7101367914506269e-03 0.0000000000000000e+00  2.1072886515533911e-04 1.7226791787599718e-03 0.0000000000000000e+00  2.1197740004798236e-04 1.7350590896979055e-03 0.0000000000000000e+00  2.1301083181247000e-04 1.7473105623381233e-03 0.0000000000000000e+00  2.1378050144089892e-04 1.7594870962353059e-03 0.0000000000000000e+00  1.6948188248980223e-04 1.5004132510656812e-03 0.0000000000000000e+00  1.7288312100308909e-04 1.5173558822016552e-03 0.0000000000000000e+00  1.7606604661566627e-04 1.5339927720738617e-03 0.0000000000000000e+00  1.7904260883631507e-04 1.5503134823208770e-03 0.0000000000000000e+00  1.8182633062311404e-04 1.5663103663892146e-03 0.0000000000000000e+00  1.8443153441805038e-04 1.5819793489473221e-03 0.0000000000000000e+00  1.8687235049337075e-04 1.5973204561873643e-03 0.0000000000000000e+00  1.8916170466650860e-04 1.6123380388935946e-03 0.0000000000000000e+00  1.9131047835934197e-04 1.6270407064470527e-03 0.0000000000000000e+00  1.9332674062791367e-04 1.6414412065827869e-03 0.0000000000000000e+00  1.9521549130249925e-04 1.6555548779490627e-03 0.0000000000000000e+00  1.9697772288332523e-04 1.6693998969893175e-03 0.0000000000000000e+00  1.9860848129164588e-04 1.6829975122158336e-03 0.0000000000000000e+00  2.0009364545474825e-04 1.6963723157242751e-03 0.0000000000000000e+00  2.0141628733496593e-04 1.7095363949975993e-03 0.0000000000000000e+00  2.0256246947875504e-04 1.7224988000121616e-03 0.0000000000000000e+00  2.0352096118278604e-04 1.7352797647317121e-03 0.0000000000000000e+00  2.0428242053952187e-04 1.7479246487082554e-03 0.0000000000000000e+00  2.0480054603174780e-04 1.7604959629755263e-03 0.0000000000000000e+00  2.0504818196121871e-04 1.7730886098500367e-03 0.0000000000000000e+00  1.6653485179894946e-04 1.5096285154806994e-03 0.0000000000000000e+00  1.6967750748791806e-04 1.5270004826533727e-03 0.0000000000000000e+00  1.7258682682560892e-04 1.5440311364496135e-03 0.0000000000000000e+00  1.7527922298494046e-04 1.5607086879646159e-03 0.0000000000000000e+00  1.7777218446115775e-04 1.5770262571074389e-03 0.0000000000000000e+00  1.8008288917935745e-04 1.5929826298713326e-03 0.0000000000000000e+00  1.8222680512708269e-04 1.6085823691555424e-03 0.0000000000000000e+00  1.8421676026711962e-04 1.6238354227732339e-03 0.0000000000000000e+00  1.8606245842919445e-04 1.6387571159547725e-03 0.0000000000000000e+00  1.8777168295612664e-04 1.6533650383188214e-03 0.0000000000000000e+00  1.8934969847850085e-04 1.6676811298072089e-03 0.0000000000000000e+00  1.9079536054749421e-04 1.6817333094882720e-03 0.0000000000000000e+00  1.9209287425385853e-04 1.6955591659323353e-03 0.0000000000000000e+00  1.9322168690276320e-04 1.7091629758166258e-03 0.0000000000000000e+00  1.9417090717542131e-04 1.7225384487440142e-03 0.0000000000000000e+00  1.9494455360891981e-04 1.7356937168016915e-03 0.0000000000000000e+00  1.9555813305354125e-04 1.7486551432208557e-03 0.0000000000000000e+00  1.9607594868748101e-04 1.7615671782306862e-03 0.0000000000000000e+00  1.9636756344401237e-04 1.7743306423159413e-03 0.0000000000000000e+00  1.9712046661415623e-04 1.7874225863258202e-03 0.0000000000000000e+00  1.6253112831447910e-04 1.5201577390224837e-03 0.0000000000000000e+00  1.6538176290500350e-04 1.5379181334300791e-03 0.0000000000000000e+00  1.6799540671163894e-04 1.5552922158689167e-03 0.0000000000000000e+00  1.7039339636730258e-04 1.5722699760271561e-03 0.0000000000000000e+00  1.7259668275959448e-04 1.5888492555080442e-03 0.0000000000000000e+00  1.7462363068973221e-04 1.6050356293932290e-03 0.0000000000000000e+00  1.7648848352654179e-04 1.6208410729534235e-03 0.0000000000000000e+00  1.7820090951703029e-04 1.6362838117709292e-03 0.0000000000000000e+00  1.7977116958237420e-04 1.6513811132918611e-03 0.0000000000000000e+00  1.8121140862088802e-04 1.6661570423207026e-03 0.0000000000000000e+00  1.8252910376209867e-04 1.6806493283500876e-03 0.0000000000000000e+00  1.8370443233994317e-04 1.6949226608764364e-03 0.0000000000000000e+00  1.8471993125883680e-04 1.7089744291890702e-03 0.0000000000000000e+00  1.8554387972444339e-04 1.7227618105653700e-03 0.0000000000000000e+00  1.8619057867639953e-04 1.7362718569201572e-03 0.0000000000000000e+00  1.8669651089512121e-04 1.7495219541034030e-03 0.0000000000000000e+00  1.8700599667679016e-04 1.7625451486179911e-03 0.0000000000000000e+00  1.8772691946498336e-04 1.7759990885794059e-03 0.0000000000000000e+00  1.8683069524806967e-04 1.7874807873306390e-03 0.0000000000000000e+00  1.8634881578551463e-04 1.7984092206853937e-03 0.0000000000000000e+00  1.5745456730980811e-04 1.5319794044811107e-03 0.0000000000000000e+00  1.5999995174530935e-04 1.5500639873926138e-03 0.0000000000000000e+00  1.6231827533834319e-04 1.5677102445420912e-03 0.0000000000000000e+00  1.6443554567909498e-04 1.5849155112688533e-03 0.0000000000000000e+00  1.6637407360608231e-04 1.6016880640302973e-03 0.0000000000000000e+00  1.6814924366741405e-04 1.6180442330673214e-03 0.0000000000000000e+00  1.6976655985784968e-04 1.6340072339919671e-03 0.0000000000000000e+00  1.7123466609384578e-04 1.6495868963474086e-03 0.0000000000000000e+00  1.7257490935912060e-04 1.6648032413715326e-03 0.0000000000000000e+00  1.7381097687081700e-04 1.6797050663672514e-03 0.0000000000000000e+00  1.7492025322859395e-04 1.6944215273154328e-03 0.0000000000000000e+00  1.7587953351044997e-04 1.7089059724329451e-03 0.0000000000000000e+00  1.7672747522040592e-04 1.7231647618357636e-03 0.0000000000000000e+00  1.7724589532158637e-04 1.7369897989390282e-03 0.0000000000000000e+00  1.7772617540225306e-04 1.7505026616106746e-03 0.0000000000000000e+00  1.7803435487627367e-04 1.7639417625996249e-03 0.0000000000000000e+00  1.7727768651547388e-04 1.7759380959976769e-03 0.0000000000000000e+00  1.7686700972420314e-04 1.7873269681959244e-03 0.0000000000000000e+00  1.7648638237130490e-04 1.7982994425137682e-03 0.0000000000000000e+00  1.7620694045803769e-04 1.8088813378025295e-03 0.0000000000000000e+00  1.5130880504152829e-04 1.5450303739639438e-03 0.0000000000000000e+00  1.5356066454690873e-04 1.5633498381776309e-03 0.0000000000000000e+00  1.5561154328362032e-04 1.5811782254330946e-03 0.0000000000000000e+00  1.5749016449712898e-04 1.5985291195342555e-03 0.0000000000000000e+00  1.5921460101572823e-04 1.6154282852223476e-03 0.0000000000000000e+00  1.6078189355524846e-04 1.6319141367762070e-03 0.0000000000000000e+00  1.6218769551013443e-04 1.6479758582062412e-03 0.0000000000000000e+00  1.6345322946160104e-04 1.6636075989064465e-03 0.0000000000000000e+00  1.6463742887901263e-04 1.6788696447088936e-03 0.0000000000000000e+00  1.6569223596161057e-04 1.6940160938012157e-03 0.0000000000000000e+00  1.6666806239350204e-04 1.7089557704766418e-03 0.0000000000000000e+00  1.6744900853989082e-04 1.7234902856359396e-03 0.0000000000000000e+00  1.6861512210711110e-04 1.7383051386859602e-03 0.0000000000000000e+00  1.6775990005832414e-04 1.7513052034481406e-03 0.0000000000000000e+00  1.6719156233473584e-04 1.7638216530162043e-03 0.0000000000000000e+00  1.6675682553027825e-04 1.7757780487256767e-03 0.0000000000000000e+00  1.6641334809532751e-04 1.7872254795397240e-03 0.0000000000000000e+00  1.6618910716014330e-04 1.7982552150339014e-03 0.0000000000000000e+00  1.6603636048582776e-04 1.8088517980630494e-03 0.0000000000000000e+00  1.6596181935724894e-04 1.8190146297969005e-03 0.0000000000000000e+00  1.4412567095248210e-04 1.5591957293679300e-03 0.0000000000000000e+00  1.4612707451384496e-04 1.5776372065556159e-03 0.0000000000000000e+00  1.4797224696243486e-04 1.5955472382400597e-03 0.0000000000000000e+00  1.4968781709399277e-04 1.6129690644553418e-03 0.0000000000000000e+00  1.5125865690442754e-04 1.6299800842520793e-03 0.0000000000000000e+00  1.5267137948604985e-04 1.6465468027416911e-03 0.0000000000000000e+00  1.5389367445786607e-04 1.6625908059412959e-03 0.0000000000000000e+00  1.5499510916799409e-04 1.6781215481165043e-03 0.0000000000000000e+00  1.5595892381077244e-04 1.6937685292707657e-03 0.0000000000000000e+00  1.5672870875201736e-04 1.7090225044292936e-03 0.0000000000000000e+00  1.5785440521132128e-04 1.7244200137569025e-03 0.0000000000000000e+00  1.5700123655712993e-04 1.7381063253357947e-03 0.0000000000000000e+00  1.5660935659557974e-04 1.7510327697464853e-03 0.0000000000000000e+00  1.5609662206641156e-04 1.7636715286080836e-03 0.0000000000000000e+00  1.5576043785613222e-04 1.7756808055009344e-03 0.0000000000000000e+00  1.5550910043488325e-04 1.7872070754477742e-03 0.0000000000000000e+00  1.5539650457019921e-04 1.7982547202662373e-03 0.0000000000000000e+00  1.5537397780524142e-04 1.8089091891708828e-03 0.0000000000000000e+00  1.4973710564421686e-04 1.8355422730289891e-03 0.0000000000000000e+00  1.4006639238145301e-04 1.8622140820501228e-03 0.0000000000000000e+00  1.3597771143167157e-04 1.5742982362886195e-03 0.0000000000000000e+00  1.3781011629300510e-04 1.5927332360551058e-03 0.0000000000000000e+00  1.3955481693428491e-04 1.6106325380968133e-03 0.0000000000000000e+00  1.4118625198569537e-04 1.6281654579402122e-03 0.0000000000000000e+00  1.4269094259471913e-04 1.6452352062042595e-03 0.0000000000000000e+00  1.4408739401146093e-04 1.6618154950922516e-03 0.0000000000000000e+00  1.4503377729101823e-04 1.6775470717327959e-03 0.0000000000000000e+00  1.4544459091123276e-04 1.6936614979886095e-03 0.0000000000000000e+00  1.4628582144887240e-04 1.7097836584382086e-03 0.0000000000000000e+00  1.4540135682236091e-04 1.7242899772892965e-03 0.0000000000000000e+00  1.4495561422597360e-04 1.7379221276200237e-03 0.0000000000000000e+00  1.4459771985721455e-04 1.7509432241958937e-03 0.0000000000000000e+00  1.4434687515226972e-04 1.7635998540923088e-03 0.0000000000000000e+00  1.4418899925600670e-04 1.7756710028415353e-03 0.0000000000000000e+00  1.4411121368038875e-04 1.7872546489231904e-03 0.0000000000000000e+00  1.4418332782125342e-04 1.7983183426042795e-03 0.0000000000000000e+00  1.3768772687814193e-04 1.8261688392950265e-03 0.0000000000000000e+00  1.2759807421603670e-04 1.8540601228835298e-03 0.0000000000000000e+00  1.1751679816153021e-04 1.8824069232140105e-03 0.0000000000000000e+00  1.0692022977247084e-04 1.9111237365067298e-03 0.0000000000000000e+00  1.2699091056847276e-04 1.5900878384271064e-03 0.0000000000000000e+00  1.2879016678763835e-04 1.6083845170802246e-03 0.0000000000000000e+00  1.3050097946648050e-04 1.6264144629601289e-03 0.0000000000000000e+00  1.3222611404537117e-04 1.6439589474840921e-03 0.0000000000000000e+00  1.3392270775858372e-04 1.6608483834709008e-03 0.0000000000000000e+