<?xml version="1.0"?>
<VTKFile type="UnstructuredGrid"  version="0.1"  >
<UnstructuredGrid>
<Piece  NumberOfPoints="611" NumberOfCells="1123">
<Points>
<DataArray  type="Float64"  NumberOfComponents="3"  format="ascii">1.883478260869565 0.01666666666666667 0  1.9 0.01666666666666667 0  1.9 0.03333333333333333 0  1.883478260869565 0.03333333333333333 0  1.916521739130435 0.03333333333333333 0  1.9 0.05 0  1.883478260869565 0.05 0  1.916521739130435 0.05 0  1.933043478260869 0.05 0  1.9 0.06666666666666667 0  1.883478260869565 0.06666666666666667 0  1.916521739130435 0.06666666666666667 0  1.933043478260869 0.06666666666666667 0  1.949565217391304 0.06666666666666667 0  1.9 0.08333333333333333 0  1.883478260869565 0.08333333333333333 0  1.916521739130435 0.08333333333333333 0  1.933043478260869 0.08333333333333333 0  1.949565217391304 0.08333333333333333 0  1.966086956521739 0.08333333333333333 0  1.9 0.1 0  1.883478260869565 0.1 0  1.916521739130435 0.1 0  1.933043478260869 0.1 0  1.949565217391304 0.1 0  1.966086956521739 0.1 0  1.982608695652174 0.1 0  1.9 0.1166666666666667 0  1.883478260869565 0.1166666666666667 0  1.916521739130435 0.1166666666666667 0  1.933043478260869 0.1166666666666667 0  1.949565217391304 0.1166666666666667 0  1.966086956521739 0.1166666666666667 0  1.982608695652174 0.1166666666666667 0  1.999130434782608 0.1166666666666667 0  1.9 0.1333333333333333 0  1.883478260869565 0.1333333333333333 0  1.916521739130435 0.1333333333333333 0  1.933043478260869 0.1333333333333333 0  1.949565217391304 0.1333333333333333 0  1.966086956521739 0.1333333333333333 0  1.982608695652174 0.1333333333333333 0  1.999130434782608 0.1333333333333333 0  2.015652173913043 0.1166666666666667 0  2.015652173913043 0.1333333333333333 0  2.032173913043478 0.1166666666666667 0  2.032173913043478 0.1333333333333333 0  2.048695652173913 0.1166666666666667 0  2.048695652173913 0.1333333333333333 0  2.065217391304348 0.1166666666666667 0  2.065217391304348 0.1333333333333333 0  2.081739130434782 0.1166666666666667 0  2.081739130434782 0.1333333333333333 0  2.098260869565217 0.1333333333333333 0  1.9 0.15 0  1.883478260869565 0.15 0  1.916521739130435 0.15 0  1.933043478260869 0.15 0  1.949565217391304 0.15 0  1.966086956521739 0.15 0  1.982608695652174 0.15 0  1.999130434782608 0.15 0  2.015652173913043 0.15 0  2.032173913043478 0.15 0  2.048695652173913 0.15 0  2.065217391304348 0.15 0  2.081739130434782 0.15 0  2.098260869565217 0.15 0  2.114782608695652 0.15 0  1.9 0.1666666666666667 0  1.883478260869565 0.1666666666666667 0  1.916521739130435 0.1666666666666667 0  1.933043478260869 0.1666666666666667 0  1.949565217391304 0.1666666666666667 0  1.966086956521739 0.1666666666666667 0  1.982608695652174 0.1666666666666667 0  1.999130434782608 0.1666666666666667 0  2.015652173913043 0.1666666666666667 0  2.032173913043478 0.1666666666666667 0  2.048695652173913 0.1666666666666667 0  2.065217391304348 0.1666666666666667 0  2.081739130434782 0.1666666666666667 0  2.098260869565217 0.1666666666666667 0  2.114782608695652 0.1666666666666667 0  2.131304347826087 0.1666666666666667 0  1.9 0.1833333333333333 0  1.883478260869565 0.1833333333333333 0  1.916521739130435 0.1833333333333333 0  1.933043478260869 0.1833333333333333 0  1.949565217391304 0.1833333333333333 0  1.966086956521739 0.1833333333333333 0  1.982608695652174 0.1833333333333333 0  1.999130434782608 0.1833333333333333 0  2.015652173913043 0.1833333333333333 0  2.032173913043478 0.1833333333333333 0  2.048695652173913 0.1833333333333333 0  2.065217391304348 0.1833333333333333 0  2.081739130434782 0.1833333333333333 0  2.098260869565217 0.1833333333333333 0  2.114782608695652 0.1833333333333333 0  2.131304347826087 0.1833333333333333 0  2.147826086956522 0.1833333333333333 0  1.9 0.2 0  1.883478260869565 0.2 0  1.916521739130435 0.2 0  1.933043478260869 0.2 0  1.949565217391304 0.2 0  1.966086956521739 0.2 0  1.982608695652174 0.2 0  1.999130434782608 0.2 0  2.015652173913043 0.2 0  2.032173913043478 0.2 0  2.048695652173913 0.2 0  2.065217391304348 0.2 0  2.081739130434782 0.2 0  2.098260869565217 0.2 0  2.114782608695652 0.2 0  2.131304347826087 0.2 0  2.147826086956522 0.2 0  2.164347826086956 0.2 0  1.9 0.2166666666666667 0  1.883478260869565 0.2166666666666667 0  1.916521739130435 0.2166666666666667 0  1.933043478260869 0.2166666666666667 0  1.949565217391304 0.2166666666666667 0  1.966086956521739 0.2166666666666667 0  1.982608695652174 0.2166666666666667 0  1.999130434782608 0.2166666666666667 0  2.015652173913043 0.2166666666666667 0  2.032173913043478 0.2166666666666667 0  2.048695652173913 0.2166666666666667 0  2.065217391304348 0.2166666666666667 0  2.081739130434782 0.2166666666666667 0  2.098260869565217 0.2166666666666667 0  2.114782608695652 0.2166666666666667 0  2.131304347826087 0.2166666666666667 0  2.147826086956522 0.2166666666666667 0  2.164347826086956 0.2166666666666667 0  2.180869565217391 0.2166666666666667 0  1.9 0.2333333333333333 0  1.883478260869565 0.2333333333333333 0  1.916521739130435 0.2333333333333333 0  1.933043478260869 0.2333333333333333 0  1.949565217391304 0.2333333333333333 0  1.966086956521739 0.2333333333333333 0  1.982608695652174 0.2333333333333333 0  1.999130434782608 0.2333333333333333 0  2.015652173913043 0.2333333333333333 0  2.032173913043478 0.2333333333333333 0  2.048695652173913 0.2333333333333333 0  2.065217391304348 0.2333333333333333 0  2.081739130434782 0.2333333333333333 0  2.098260869565217 0.2333333333333333 0  2.114782608695652 0.2333333333333333 0  2.131304347826087 0.2333333333333333 0  2.147826086956522 0.2333333333333333 0  2.164347826086956 0.2333333333333333 0  2.180869565217391 0.2333333333333333 0  2.197391304347826 0.2333333333333333 0  1.9 0.25 0  1.916521739130435 0.25 0  1.933043478260869 0.25 0  1.949565217391304 0.25 0  1.966086956521739 0.25 0  1.982608695652174 0.25 0  1.999130434782608 0.25 0  2.015652173913043 0.25 0  2.032173913043478 0.25 0  2.048695652173913 0.25 0  2.065217391304348 0.25 0  2.081739130434782 0.25 0  2.098260869565217 0.25 0  2.114782608695652 0.25 0  2.131304347826087 0.25 0  2.147826086956522 0.25 0  2.164347826086956 0.25 0  2.180869565217391 0.25 0  2.197391304347826 0.25 0  2.213913043478261 0.25 0  1.916521739130435 0.2666666666666667 0  1.9 0.2666666666666667 0  1.933043478260869 0.2666666666666667 0  1.949565217391304 0.2666666666666667 0  1.966086956521739 0.2666666666666667 0  1.982608695652174 0.2666666666666667 0  1.999130434782608 0.2666666666666667 0  2.015652173913043 0.2666666666666667 0  2.032173913043478 0.2666666666666667 0  2.048695652173913 0.2666666666666667 0  2.065217391304348 0.2666666666666667 0  2.081739130434782 0.2666666666666667 0  2.098260869565217 0.2666666666666667 0  2.114782608695652 0.2666666666666667 0  2.131304347826087 0.2666666666666667 0  2.147826086956522 0.2666666666666667 0  2.164347826086956 0.2666666666666667 0  2.180869565217391 0.2666666666666667 0  2.197391304347826 0.2666666666666667 0  2.213913043478261 0.2666666666666667 0  2.230434782608695 0.25 0  2.230434782608695 0.2666666666666667 0  2.24695652173913 0.2666666666666667 0  1.916521739130435 0.2833333333333333 0  1.9 0.2833333333333333 0  1.933043478260869 0.2833333333333333 0  1.949565217391304 0.2833333333333333 0  1.966086956521739 0.2833333333333333 0  1.982608695652174 0.2833333333333333 0  1.999130434782608 0.2833333333333333 0  2.015652173913043 0.2833333333333333 0  2.032173913043478 0.2833333333333333 0  2.048695652173913 0.2833333333333333 0  2.065217391304348 0.2833333333333333 0  2.081739130434782 0.2833333333333333 0  2.098260869565217 0.2833333333333333 0  2.114782608695652 0.2833333333333333 0  2.131304347826087 0.2833333333333333 0  2.147826086956522 0.2833333333333333 0  2.164347826086956 0.2833333333333333 0  2.180869565217391 0.2833333333333333 0  2.197391304347826 0.2833333333333333 0  2.213913043478261 0.2833333333333333 0  2.230434782608695 0.2833333333333333 0  2.24695652173913 0.2833333333333333 0  2.263478260869565 0.2833333333333333 0  1.916521739130435 0.3 0  1.9 0.3 0  1.933043478260869 0.3 0  1.949565217391304 0.3 0  1.966086956521739 0.3 0  1.982608695652174 0.3 0  1.999130434782608 0.3 0  2.015652173913043 0.3 0  2.032173913043478 0.3 0  2.048695652173913 0.3 0  2.065217391304348 0.3 0  2.081739130434782 0.3 0  2.098260869565217 0.3 0  2.114782608695652 0.3 0  2.131304347826087 0.3 0  2.147826086956522 0.3 0  2.164347826086956 0.3 0  2.180869565217391 0.3 0  2.197391304347826 0.3 0  2.213913043478261 0.3 0  2.230434782608695 0.3 0  2.24695652173913 0.3 0  2.263478260869565 0.3 0  2.28 0.3 0  1.916521739130435 0.3166666666666667 0  1.9 0.3166666666666667 0  1.933043478260869 0.3166666666666667 0  1.949565217391304 0.3166666666666667 0  1.966086956521739 0.3166666666666667 0  1.982608695652174 0.3166666666666667 0  1.999130434782608 0.3166666666666667 0  2.015652173913043 0.3166666666666667 0  2.032173913043478 0.3166666666666667 0  2.048695652173913 0.3166666666666667 0  2.065217391304348 0.3166666666666667 0  2.081739130434782 0.3166666666666667 0  2.098260869565217 0.3166666666666667 0  2.114782608695652 0.3166666666666667 0  2.131304347826087 0.3166666666666667 0  2.147826086956522 0.3166666666666667 0  2.164347826086956 0.3166666666666667 0  2.180869565217391 0.3166666666666667 0  2.197391304347826 0.3166666666666667 0  2.213913043478261 0.3166666666666667 0  2.230434782608695 0.3166666666666667 0  2.24695652173913 0.3166666666666667 0  2.263478260869565 0.3166666666666667 0  2.28 0.3166666666666667 0  2.296521739130434 0.3166666666666667 0  1.916521739130435 0.3333333333333333 0  1.9 0.3333333333333333 0  1.933043478260869 0.3333333333333333 0  1.949565217391304 0.3333333333333333 0  1.966086956521739 0.3333333333333333 0  1.982608695652174 0.3333333333333333 0  1.999130434782608 0.3333333333333333 0  2.015652173913043 0.3333333333333333 0  2.032173913043478 0.3333333333333333 0  2.048695652173913 0.3333333333333333 0  2.06521739
[...]
<CellData  Scalars="rho"> 
<DataArray  type="Float64"  Name="rho"  format="ascii">8.6927200059202703e-01   8.5174276415168204e-01   8.8270315603835647e-01   5.6591991641430550e-01   4.5585395834542719e-01   5.6361907471506034e-01   4.5191854912350976e-01   4.5090690073472312e-01   1.8426912534017803e-01   0.0000000000000000e+00   1.7164069308148824e-01   0.0000000000000000e+00   1.6234548343440935e-01   0.0000000000000000e+00   0.0000000000000000e+00   0.0000000000000000e+00   0.0000000000000000e+00   0.0000000000000000e+00   0.0000000000000000e+00   0.0000000000000000e+00   0.0000000000000000e+00   0.0000000000000000e+00   0.0000000000000000e+00   0.0000000000000000e+00   1.9050456107460575e-02   3.7166818821476814e-02   0.0000000000000000e+00   2.5010472902046634e-02   0.0000000000000000e+00   0.0000000000000000e+00   0.0000000000000000e+00   0.0000000000000000e+00   0.0000000000000000e+00   0.0000000000000000e+00   0.0000000000000000e+00   5.9184165222436413e-02   1.0221670558074729e-01   5.1679284378849048e-02   6.8542411959954516e-02   4.7700748902847374e-02   6.1646292678696923e-02   3.3922345512429002e-02   5.0530746344880258e-02   0.0000000000000000e+00   3.0935297785097501e-02   0.0000000000000000e+00   0.0000000000000000e+00   0.0000000000000000e+00   1.5253396445003312e-01   2.0379699345351682e-01   1.1489315199245374e-01   1.5304812750726832e-01   8.1694604290849071e-02   1.1840767331226787e-01   7.7717650727804885e-02   8.6390296825127069e-02   4.2268812535462441e-02   8.4351172492706752e-02   0.0000000000000000e+00   6.9151847549475731e-02   0.0000000000000000e+00   5.5497379817801416e-02   0.0000000000000000e+00   0.0000000000000000e+00   0.0000000000000000e+00   0.0000000000000000e+00   0.0000000000000000e+00   0.0000000000000000e+00   0.0000000000000000e+00   0.0000000000000000e+00   0.0000000000000000e+00   0.0000000000000000e+00   0.0000000000000000e+00   2.7725847938186815e-01   3.4367144970461933e-01   2.2823389810801906e-01   2.8377768808236192e-01   1.8420334664907048e-01   2.3040562976612261e-01   1.5081624654337142e-01   1.9587715034476516e-01   1.3973082411889834e-01   1.6505155678798519e-01   1.2414140496870173e-01   1.5778378261011389e-01   1.0244675989841019e-01   1.4419314463207084e-01   5.0911025024882067e-02   1.2411838996971514e-01   5.9751832830161493e-02   1.1577808112247362e-01   0.0000000000000000e+00   8.4504161066442277e-02   0.0000000000000000e+00   8.1763891348773113e-02   0.0000000000000000e+00   9.0481368636211937e-02   0.0000000000000000e+00   9.1776399977534479e-02   1.2993412818682779e-01   4.9342910881477192e-01   5.4975994586256083e-01   4.3126789114952524e-01   4.9847208323006748e-01   3.5210989471944010e-01   4.4045779129203105e-01   3.0355871054699535e-01   3.6097456519274601e-01   2.6874574370816268e-01   3.1200610151726260e-01   2.5361803786878201e-01   2.8704477624756347e-01   2.3890211222096958e-01   2.7080225245358736e-01   2.2828970848491420e-01   2.5870600206784305e-01   2.1172338209880892e-01   2.6223678725146432e-01   2.2887754636045188e-01   2.5631488699760252e-01   2.1886996826043834e-01   2.5536665237315048e-01   2.0631433403178132e-01   2.5427791974557917e-01   2.0543093686757050e-01   2.5837058877863522e-01   2.0456671960654288e-01   2.6196121038239700e-01   2.5405278803578896e-01   6.0930728679395374e-01   6.6137871322251518e-01   5.6400453008527429e-01   6.2576916537356542e-01   4.6347941532372794e-01   5.1921220421378789e-01   4.2562532025730504e-01   4.6780103646563148e-01   3.8319369765053890e-01   4.1880875378054755e-01   3.5420793052598759e-01   3.7847510553166813e-01   3.4534058325784356e-01   3.6746050375926775e-01   3.4214591705096831e-01   3.6284139492359396e-01   3.4194378109186124e-01   3.6149738281160504e-01   3.4159358181092853e-01   3.6239655133401694e-01   3.4409038931762737e-01   3.6009650073533539e-01   3.3113314216408846e-01   3.6007059942882863e-01   3.3362750676484182e-01   3.6044824120692459e-01   3.3605092551410615e-01   3.6085412808064143e-01   3.5271660221631912e-01   3.6117285691222833e-01   3.4876751341573969e-01   6.2529451865485774e-01   5.7253525026963459e-01   5.1239280617798189e-01   4.7202571409750554e-01   4.6950905946257043e-01   4.1205913283954460e-01   4.1402311891443733e-01   3.8035784379330329e-01   3.8885361938302793e-01   3.6832586314079085e-01   3.7915145119111848e-01   3.3945176669159566e-01   3.7266404018968058e-01   3.3279332509896459e-01   3.6922602594848392e-01   3.2169882730540328e-01   3.5647464429092823e-01   3.2792678338735326e-01   3.3254023152524315e-01   2.5990505845422279e-01   2.9612399296990655e-01   2.6193016621507320e-01   2.6780731577647870e-01   2.5684890969563029e-01   2.6958618959654662e-01   2.5820525296770219e-01   2.7101565755228041e-01   2.4401633778233681e-01   2.7222220408941905e-01   2.4546599080642401e-01   2.7333045383026383e-01   2.4683961005435862e-01   2.4259569728585864e-01   3.6322595525647450e-01   3.6462964847958002e-01   3.5742704976578649e-01   3.4798364591898689e-01   3.4851949547498595e-01   2.7130183527701901e-01   3.3572115168020711e-01   2.7477645513304000e-01   2.6233374342518545e-01   2.7046128784174162e-01   2.5858731071677854e-01   2.6482967252868495e-01   2.5790798788766067e-01   2.5330369702138561e-01   2.5842476748524884e-01   2.5298643491251233e-01   2.5795739498629083e-01   2.6231002835606571e-01   2.5129544999454489e-01   2.2935513249775194e-01   2.5031108376590544e-01   2.2426706840737021e-01   2.5060868102663042e-01   2.2071528751606226e-01   2.5198808328751732e-01   2.1531001670520394e-01   2.5000368430279529e-01   2.1196931802123095e-01   1.8745274589746666e-01   1.2513940101182455e-01   2.0382075053395696e-01   1.1779287669587568e-01   1.4343554878518683e-01   0.0000000000000000e+00   0.0000000000000000e+00   3.3131901934776220e-01   3.2458542479888164e-01   3.3125987531451995e-01   3.3232974970454815e-01   3.7404916377569097e-01   3.7692904668154031e-01   3.6759512417598700e-01   3.8331212956202942e-01   4.6940044671175440e-01   4.7262913414294527e-01   4.9468852246665923e-01   5.0320260526740379e-01   4.3924912422335682e-01   4.4097333064539918e-01   2.6809858139287740e-01   4.2545122476196412e-01   2.6353080555026565e-01   4.1314209778813926e-01   2.5686377917306463e-01   4.0499995836204761e-01   2.5658424348655146e-01   3.9662908461069435e-01   2.5191295358750609e-01   3.9577691496302103e-01   2.1448653473165497e-01   3.7700247837725659e-01   2.0974454903951195e-01   3.1980971461845675e-01   1.2649187149073043e-01   2.3136854342107763e-01   0.0000000000000000e+00   2.2429229350723165e-01   0.0000000000000000e+00   4.7495562552144363e-02   0.0000000000000000e+00   5.1382088204759223e-02   5.3987477494785434e-02   3.0864870818638201e-01   3.4033540580935284e-01   3.8713720879208269e-01   3.8395617845496971e-01   4.1444058467633837e-01   4.7895767690222801e-01   5.3773141739745611e-01   5.2237124619040232e-01   5.1949447414511196e-01   4.9298545616784795e-01   5.0203674468975035e-01   4.6242097191726533e-01   4.7320701984045999e-01   4.1592777894958682e-01   4.4570613679674165e-01   4.0427362179496162e-01   4.0711491363716074e-01   3.9462841842022628e-01   3.9604905615555785e-01   3.8494727113808974e-01   3.5903313734295411e-01   3.4520082430336230e-01   3.4937674240280214e-01   3.1657722440772745e-01   3.2174796196277466e-01   2.9464910807296130e-01   3.0143833763745698e-01   3.0345942840039175e-01   3.1013952349431512e-01   2.3156848638558089e-01   3.0412000460578503e-01   7.4175731674771761e-02   2.3113218176844424e-01   7.4866118176695931e-02   1.9928371322604416e-02   1.1242207216037020e-02   2.2132709144023825e-02   2.8646305106964247e-02   3.7503902214749835e-01   3.5696891797323221e-01   4.6600846342096519e-01   4.1766271133853511e-01   4.6923780605121745e-01   4.6630317108859709e-01   4.6122649993134401e-01   4.1389040793287846e-01   4.5407276834764143e-01   4.0815618551613853e-01   4.3491993407248181e-01   4.0093293543402669e-01   4.1598597225970102e-01   4.2910323391672711e-01   3.8206822120423162e-01   4.1291961950878581e-01   3.7372982670951932e-01   3.8461901122224462e-01   3.6550687334777987e-01   3.7592260711662279e-01   3.3810049317230068e-01   3.4955697805322183e-01   3.3061111941572791e-01   3.4164632447568061e-01   3.2267011652826183e-01   3.4938279705262271e-01   3.2179406427634938e-01   3.4279549988564506e-01   3.1363511002535172e-01   3.3354498505848618e-01   3.1993493611457374e-01   3.2896728880427167e-01   3.1777275227816371e-01   3.2504756316800965e-01   2.5256196280014431e-01   3.2495453760346021e-01   2.5649827491866717e-01   3.2644501278080112e-01   2.6217863183115986e-01   3.2979442868826292e-01   3.1567137430443087e-01   3.6746978405504971e-01   3.4458056000775716e-01   4.1799453565485289e-01   3.6448160957449915e-01   4.1095136995627884e-01   3.9456350624844849e-01   4.1016803491039844e-01   3.8861518829104341e-01   4.0755312026118617e-01   2.9940628551560589e-01   4.0541194609917752e-01   2.9052143069454955e-01   4.0289463313021562e-01   2.9187717180979922e-01   2.7571818002110215e-01   2.9703481632123158e-01   2.8133932922151911e-01   2.9207675589854382e-01   2.8464988822651494e-01   2.9422026333242557e-01   2.9459152958815582e-01   2.9519579640327065e-01   2.7058321097714855e-01   2.9665201621330284e-01   2.6361840783171459e-01   2.9728326519517995e-01   2.5900523978012940e-01   2.9725485707280669e-01   2.5534692870196779e-01   2.9363614628679446e-01   2.4457146876241254e-01   2.9298700222361812e-01   2.4281590765359898e-01   2.9285480340495396e-01   2.4312996624612204e-01   2.9148335055917279e-01   2.4501147864870090e-01   2.9313662225863996e-01   2.4828579956044300e-01   2.9538781559722804e-01   2.5426970193802140e-01   2.9797046900741692e-01   3.0125284412323172e-01   3.2645227402628257e-01   3.3325121281890419e-01   3.3286506365765517e-01   3.3905578149365917e-01   3.3601162300960868e-01   3.3181892832788312e-01   3.3846483186377302e-01   3.3321662985765965e-01   3.1827272698615305e-01   3.3420221856806387e-01   3.1960600970577802e-01   3.3575340767189088e-01   3.2116174096658906e-01   3.4339348227943606e-01   3.2280991251206387e-01   3.4518098247582824e-01   2.4871413476827101e-01   3.4638637856856896e-01   2.7877150092503972e-01   3.4672007987063319e-01   2.8197028369247623e-01   3.4599728071485158e-01   3.0152265968821923e-01   2.6861365237685597e-01   2.9615580328805280e-01   2.6756776491425183e-01   2.9679398269010149e-01   2.6686875408483823e-01   2.9709850140534394e-01   2.7108609401140854e-01   2.9877079646151977e-01   2.6835960961177863e-01   3.0028444684784739e-01   2.6329604451326666e-01   3.0034360825563911e-01   2.6452126670277898e-01   3.0252556415893861e-01   2.9886787344495885e-01   3.0502779203126529e-01   3.0144637228531146e-01   3.0777621447820303e-01   3.0472026997584717e-01   3.1071164331431872e-01   3.0756785586464330e-01   3.1049065531596653e-01   3.9656929727364476e-01   4.0783470987094445e-01   4.0521871269594778e-01   4.1756297680386928e-01   4.1112012833855138e-01   4.2457136526418232e-01   4.1469399181430638e-01   4.4763380990886914e-01   4.1710775750521861e-01   5.0083076782562974e-01   4.1906459655944400e-01   5.1285809100452084e-01   4.9692880217982927e-01   5.1944124135947278e-01   4.9609284542567977e-01   5.2127590764738374e-01   4.9089629932258394e-01   5.1887672890319536e-01   4.8251002146818839e-01   5.1279960744411157e-01   4.3031791642920425e-01   5.0379030274959002e-01   4.2371134288726126e-01   4.9309700364415904e-01   4.1697340453011761e-01   4.8135017992264661e-01   4.1041097282445788e-01   4.6460533196916054e-01   4.0480082363880582e-01   4.5594155569719735e-01   4.0069106430321322e-01   4.4930856470669350e-01   3.1532561375799412e-01   4.2513731628222645e-01   3.1790839742776794e-01   4.2529122744973724e-01   3.2162007166085610e-01   4.2710475397988518e-01   3.2580786444705462e-01   4.3532864106704749e-01   3.1549129046112762e-01   3.6434332041424128e-01   3.2114529513421336e-01   3.7103176048237119e-01   3.2532735407288971e-01   3.7812524884892262e-01   3.8448671422972697e-01   3.8842776795261130e-01   4.7795881122108169e-01   4.0745419849280767e-01   3.7642387677849937e-01   4.3756529066019839e-01   3.9893153673762982e-01   4.6310874596494522e-01   4.2573592576198677e-01   4.8310573584667632e-01   4.4852785424554653e-01   4.9724700772234642e-01   4.6625630369742593e-01   5.0626859051615014e-01   5.8525992877069466e-01   5.1064519273790698e-01   6.0184060412779983e-01   5.1077981788085847e-01   6.0881242073790864e-01   5.0720056474565689e-01   6.0774885000051604e-01   5.0067293975596239e-01   4.8349098699596638e-01   4.9222763864017816e-01   4.7636942077063887e-01   4.8308540975617481e-01   4.6789559843239348e-01   4.8297170457926875e-01   4.5937276155059570e-01   4.7607359306640573e-01   4.5203339101281842e-01   4.7163453714900694e-01   4.4685695527049613e-01   4.7005597171046698e-01   4.4443967204971541e-01   4.7134441847150599e-01   4.4495544554188615e-01   4.6854776968997341e-01   4.4818211948432690e-01   4.7441790938560796e-01   4.5358188302113966e-01   4.8164749182368150e-01   4.6763579004128064e-01   4.9847576368207891e-01   4.7531548492694392e-01   5.0543925561321479e-01   4.8302439279048748e-01   5.1411636039972308e-01   4.8996671889096005e-01   4.9692931372775245e-01   2.9193069070849703e-01   2.3559249361858026e-01   3.2367483504654754e-01   2.6952821697775053e-01   3.4384477448831280e-01   2.8684053077379762e-01   3.7129364992981273e-01   3.1569903944562566e-01   4.4866854193090777e-01   3.7936342727904604e-01   4.9222448677222519e-01   4.2176857310880039e-01   5.2339939061107232e-01   4.6038552661288557e-01   5.4311035736647972e-01   4.8751068953870313e-01   5.5245729240633845e-01   5.0202902221279710e-01   5.5282045442117833e-01   5.1025699117640633e-01   5.4591726991096690e-01   5.1036414517846440e-01   5.3182894607709597e-01   5.0404904140762197e-01   5.1812151743242474e-01   4.9328621856995797e-01   3.8881653938557953e-01   4.7978649274012264e-01   3.7951154029148776e-01   3.5147567875459301e-01   3.7214257875976514e-01   3.4396767603838801e-01   3.6724818661094616e-01   3.3836454634779728e-01   3.8356061780381379e-01   3.3498376110936490e-01   3.8691893328468108e-01   3.3377518419553293e-01   3.9189680426615431e-01   3.3437367313762972e-01   3.9784286704636918e-01   3.3621512047919322e-01   4.0404801095384885e-01   3.3258408331693129e-01   4.1442949828347414e-01   3.3425565050292722e-01   4.2009857921520682e-01   3.3509611626162866e-01   4.2362139695801754e-01   3.3439002591899503e-01   3.3147223583640706e-01   1.0729869431268267e-01   5.2651615734772977e-02   1.6402701525011243e-01   1.1361180886110134e-01   1.9081062377627864e-01   1.4089242012600120e-01   2.0652297855463525e-01   1.5254503270354475e-01   2.5455184394909869e-01   1.7914431645753062e-01   2.9762798071791813e-01   2.2582725509004606e-01   3.3672331197601901e-01   2.6376087573051554e-01   3.6737756201082788e-01   2.9820617373798480e-01   3.8987475749574763e-01   3.2182641335937934e-01   4.0330636376024820e-01   3.4043748512867766e-01   4.1004956808753840e-01   3.5056868687697817e-01   4.0902291923630668e-01   3.5188734861221788e-01   4.0305233076091307e-01   3.5552113074583502e-01   2.7945885450141805e-01   2.4092160047565378e-01   2.7265611702153209e-01   2.3683160421977356e-01   2.6644082058752577e-01   2.3144519091963386e-01   2.6167040957688126e-01   2.2641154251847806e-01   2.5846185860289944e-01   2.2274634105467839e-01   2.5720239559727542e-01   2.2051995814835257e-01   2.5659851434058006e-01   2.1941957361335918e-01   2.5670123386803634e-01   2.1921324802533390e-01   2.5692342718177963e-01   2.1925736495026310e-01   2.5605462823928576e-01   2.1893895227350471e-01   2.5522437632910999e-01   2.1764712988641630e-01   2.5136110744191620e-01   2.1482824481201404e-01   2.4521088394215448e-01   2.1003359983847494e-01   2.0296484272791629e-01   6.0422580781282688e-02   3.8264251050034226e-02   4.8311715118208642e-02   5.4187483835656636e-02   9.7386382910589250e-02   4.1652128939473822e-02   1.1826976113676269e-01   8.6026089273860337e-02   1.2582384346419917e-01   1.0392822745401306e-01   1.4513102686105298e-01   1.0872568477240470e-01   1.6093799708421469e-01   1.2471471972925140e-01   1.7296741312113326e-01   1.3744839360372599e-01   1.8257562477580422e-01   1.4725745393105399e-01   1.8899749258424123e-01   1.5357688040627848e-01   1.9166566622321424e-01   1.5787052214081457e-01   1.9117860948990242e-01   1.5888205275978579e-01   1.8829535119878518e-01   1.5725761187966136e-01   1.8387164381986701e-01   1.5377302711824650e-01   1.7876863934143741e-01   1.4925631413904819e-01   1.7373074563583252e-01   1.4447817752630207e-01   1.6928892323050221e-01   1.4003686775404933e-01   1.6571668215348956e-01   1.3629516092839811e-01   1.6302194697841219e-01   1.3335868110133525e-01   1.6097788374156555e-01   1.3108892269557884e-01   1.5918401091752094e-01   1.2915545265718126e-01   1.5713904188560640e-01   1.2710537986506132e-01   1.5431781076829701e-01   1.2444116566402977e-01   1.5024381479524876e-01   1.2069660074352118e-01   1.4454717099641817e-01   1.1550111302030597e-01   1.3700225735908433e-01   1.0862129592582606e-01   1.2754837524330628e-01   9.9981418129133068e-02   8.9668546575700281e-02   0.0000000000000000e+00   0.0000000000000000e+00   3.8824994421537265e-02   0.0000000000000000e+00   4.5919438981568354e-02   3.0412864279657437e-02   4.9473085091916127e-02   3.6583917300741689e-02   5.4213889016162961e-02   3.9421920046677709e-02   5.6169865504429130e-02   4.1646428424786511e-02   5.9851410294270511e-02   4.3628519009891967e-02   5.9784478239407295e-02   4.4544400403459340e-02   6.2094500414841713e-02   4.4877883880742410e-02   6.3235671830840764e-02   4.4687288545423441e-02   6.3488916302718440e-02   4.4063192718901203e-02   6.2795267410243841e-02   4.3120545072691863e-02   6.1755713919937491e-02   4.1980341945280296e-02   6.0146428190894906e-02   4.2997190270474939e-02   5.4933974232471670e-02   4.1913328446104257e-02   5.0813846476503881e-02   4.0949834078711798e-02   5.0002166975051165e-02   4.0161452952889830e-02   4.9403889040745844e-02   3.9573302286530720e-02   4.8989329797014876e-02   3.9158163406895097e-02   4.8699332728107912e-02   3.8873964178796974e-02   4.8457380811862412e-02   3.8658773534754651e-02   4.8180790999846825e-02   3.8395711346839827e-02   4.7785631940716791e-02   3.8098521191391954e-02   4.7247653491705059e-02   3.7670200100857636e-02   4.6477894698914501e-02   3.7066912643920057e-02   4.6696866939107573e-02   3.6265692521729578e-02   4.5486167564159755e-02   3.5265722180421122e-02   4.4086320106579736e-02   3.4087495109727237e-02   3.1895858484797215e-02   0.0000000000000000e+00   0.0000000000000000e+00   0.0000000000000000e+00   0.0000000000000000e+00   0.0000000000000000e+00   0.0000000000000000e+00   0.0000000000000000e+00   0.0000000000000000e+00   0.0000000000000000e+00   0.0000000000000000e+00   9.2319498646699469e-04   0.0000000000000000e+00   4.7702455643147826e-03   0.0000000000000000e+00   7.5478676565132602e-03   0.0000000000000000e+00   9.2547978926285756e-03   0.0000000000000000e+00   9.9564576084183714e-03   0.0000000000000000e+00   9.7851993763561022e-03   0.0000000000000000e+00   8.9258910070671837e-03   0.0000000000000000e+00   7.5947266741358526e-03   0.0000000000000000e+00   6.0162404709588630e-03   0.0000000000000000e+00   4.3973571017397392e-03   0.0000000000000000e+00   2.9027680793671817e-03   0.0000000000000000e+00   1.6368960835461276e-03   0.0000000000000000e+00   6.3732171269880486e-04   0.0000000000000000e+00   0.0000000000000000e+00   0.0000000000000000e+00   0.0000000000000000e+00   0.0000000000000000e+00   0.0000000000000000e+00   0.0000000000000000e+00   0.0000000000000000e+00   0.0000000000000000e+00   0.0000000000000000e+00   0.0000000000000000e+00   0.0000000000000000e+00   0.0000000000000000e+00   0.0000000000000000e+00   0.0000000000000000e+00   0.0000000000000000e+00   0.0000000000000000e+00   0.0000000000000000