<?xml version="1.0"?>
<VTKFile type="UnstructuredGrid"  version="0.1"  >
<UnstructuredGrid>
<Piece  NumberOfPoints="614" NumberOfCells="1122">
<Points>
<DataArray  type="Float64"  NumberOfComponents="3"  format="ascii">2.792173913043478 0.2166666666666667 0  2.792173913043478 0.2333333333333333 0  2.808695652173913 0.2333333333333333 0  2.445217391304348 0.2333333333333333 0  2.461739130434782 0.2333333333333333 0  2.461739130434782 0.25 0  2.445217391304348 0.25 0  2.478260869565217 0.2333333333333333 0  2.478260869565217 0.25 0  2.494782608695652 0.2333333333333333 0  2.494782608695652 0.25 0  2.511304347826087 0.2333333333333333 0  2.511304347826087 0.25 0  2.527826086956522 0.2333333333333333 0  2.527826086956522 0.25 0  2.544347826086956 0.2333333333333333 0  2.544347826086956 0.25 0  2.560869565217391 0.2333333333333333 0  2.560869565217391 0.25 0  2.577391304347826 0.2333333333333333 0  2.577391304347826 0.25 0  2.593913043478261 0.2333333333333333 0  2.593913043478261 0.25 0  2.610434782608696 0.2333333333333333 0  2.610434782608696 0.25 0  2.62695652173913 0.2333333333333333 0  2.62695652173913 0.25 0  2.643478260869565 0.2333333333333333 0  2.643478260869565 0.25 0  2.66 0.2333333333333333 0  2.66 0.25 0  2.676521739130435 0.2333333333333333 0  2.676521739130435 0.25 0  2.693043478260869 0.2333333333333333 0  2.693043478260869 0.25 0  2.709565217391304 0.2333333333333333 0  2.709565217391304 0.25 0  2.726086956521739 0.2333333333333333 0  2.726086956521739 0.25 0  2.742608695652174 0.2333333333333333 0  2.742608695652174 0.25 0  2.759130434782609 0.2333333333333333 0  2.759130434782609 0.25 0  2.775652173913044 0.2333333333333333 0  2.775652173913044 0.25 0  2.792173913043478 0.25 0  2.808695652173913 0.25 0  2.825217391304347 0.25 0  2.28 0.25 0  2.296521739130434 0.25 0  2.296521739130434 0.2666666666666667 0  2.28 0.2666666666666667 0  2.31304347826087 0.25 0  2.31304347826087 0.2666666666666667 0  2.329565217391304 0.25 0  2.329565217391304 0.2666666666666667 0  2.346086956521739 0.25 0  2.346086956521739 0.2666666666666667 0  2.362608695652174 0.25 0  2.362608695652174 0.2666666666666667 0  2.379130434782609 0.25 0  2.379130434782609 0.2666666666666667 0  2.395652173913044 0.25 0  2.395652173913044 0.2666666666666667 0  2.412173913043478 0.25 0  2.412173913043478 0.2666666666666667 0  2.428695652173913 0.25 0  2.428695652173913 0.2666666666666667 0  2.445217391304348 0.2666666666666667 0  2.461739130434782 0.2666666666666667 0  2.478260869565217 0.2666666666666667 0  2.494782608695652 0.2666666666666667 0  2.511304347826087 0.2666666666666667 0  2.527826086956522 0.2666666666666667 0  2.544347826086956 0.2666666666666667 0  2.560869565217391 0.2666666666666667 0  2.577391304347826 0.2666666666666667 0  2.593913043478261 0.2666666666666667 0  2.610434782608696 0.2666666666666667 0  2.62695652173913 0.2666666666666667 0  2.643478260869565 0.2666666666666667 0  2.66 0.2666666666666667 0  2.676521739130435 0.2666666666666667 0  2.693043478260869 0.2666666666666667 0  2.709565217391304 0.2666666666666667 0  2.726086956521739 0.2666666666666667 0  2.742608695652174 0.2666666666666667 0  2.759130434782609 0.2666666666666667 0  2.775652173913044 0.2666666666666667 0  2.792173913043478 0.2666666666666667 0  2.808695652173913 0.2666666666666667 0  2.825217391304347 0.2666666666666667 0  2.841739130434783 0.2666666666666667 0  2.24695652173913 0.2666666666666667 0  2.263478260869565 0.2666666666666667 0  2.263478260869565 0.2833333333333333 0  2.28 0.2833333333333333 0  2.296521739130434 0.2833333333333333 0  2.31304347826087 0.2833333333333333 0  2.329565217391304 0.2833333333333333 0  2.346086956521739 0.2833333333333333 0  2.362608695652174 0.2833333333333333 0  2.379130434782609 0.2833333333333333 0  2.395652173913044 0.2833333333333333 0  2.412173913043478 0.2833333333333333 0  2.428695652173913 0.2833333333333333 0  2.445217391304348 0.2833333333333333 0  2.461739130434782 0.2833333333333333 0  2.478260869565217 0.2833333333333333 0  2.494782608695652 0.2833333333333333 0  2.511304347826087 0.2833333333333333 0  2.527826086956522 0.2833333333333333 0  2.544347826086956 0.2833333333333333 0  2.560869565217391 0.2833333333333333 0  2.577391304347826 0.2833333333333333 0  2.593913043478261 0.2833333333333333 0  2.610434782608696 0.2833333333333333 0  2.62695652173913 0.2833333333333333 0  2.643478260869565 0.2833333333333333 0  2.66 0.2833333333333333 0  2.676521739130435 0.2833333333333333 0  2.693043478260869 0.2833333333333333 0  2.709565217391304 0.2833333333333333 0  2.726086956521739 0.2833333333333333 0  2.742608695652174 0.2833333333333333 0  2.759130434782609 0.2833333333333333 0  2.775652173913044 0.2833333333333333 0  2.792173913043478 0.2833333333333333 0  2.808695652173913 0.2833333333333333 0  2.825217391304347 0.2833333333333333 0  2.841739130434783 0.2833333333333333 0  2.858260869565217 0.2833333333333333 0  2.28 0.3 0  2.296521739130434 0.3 0  2.31304347826087 0.3 0  2.329565217391304 0.3 0  2.346086956521739 0.3 0  2.362608695652174 0.3 0  2.379130434782609 0.3 0  2.395652173913044 0.3 0  2.412173913043478 0.3 0  2.428695652173913 0.3 0  2.445217391304348 0.3 0  2.461739130434782 0.3 0  2.478260869565217 0.3 0  2.494782608695652 0.3 0  2.511304347826087 0.3 0  2.527826086956522 0.3 0  2.544347826086956 0.3 0  2.560869565217391 0.3 0  2.577391304347826 0.3 0  2.593913043478261 0.3 0  2.610434782608696 0.3 0  2.62695652173913 0.3 0  2.643478260869565 0.3 0  2.66 0.3 0  2.676521739130435 0.3 0  2.693043478260869 0.3 0  2.709565217391304 0.3 0  2.726086956521739 0.3 0  2.742608695652174 0.3 0  2.759130434782609 0.3 0  2.775652173913044 0.3 0  2.792173913043478 0.3 0  2.808695652173913 0.3 0  2.825217391304347 0.3 0  2.841739130434783 0.3 0  2.858260869565217 0.3 0  2.874782608695652 0.3 0  2.296521739130434 0.3166666666666667 0  2.31304347826087 0.3166666666666667 0  2.329565217391304 0.3166666666666667 0  2.346086956521739 0.3166666666666667 0  2.362608695652174 0.3166666666666667 0  2.379130434782609 0.3166666666666667 0  2.395652173913044 0.3166666666666667 0  2.412173913043478 0.3166666666666667 0  2.428695652173913 0.3166666666666667 0  2.445217391304348 0.3166666666666667 0  2.461739130434782 0.3166666666666667 0  2.478260869565217 0.3166666666666667 0  2.494782608695652 0.3166666666666667 0  2.511304347826087 0.3166666666666667 0  2.527826086956522 0.3166666666666667 0  2.544347826086956 0.3166666666666667 0  2.560869565217391 0.3166666666666667 0  2.577391304347826 0.3166666666666667 0  2.593913043478261 0.3166666666666667 0  2.610434782608696 0.3166666666666667 0  2.62695652173913 0.3166666666666667 0  2.643478260869565 0.3166666666666667 0  2.66 0.3166666666666667 0  2.676521739130435 0.3166666666666667 0  2.693043478260869 0.3166666666666667 0  2.709565217391304 0.3166666666666667 0  2.726086956521739 0.3166666666666667 0  2.742608695652174 0.3166666666666667 0  2.759130434782609 0.3166666666666667 0  2.775652173913044 0.3166666666666667 0  2.792173913043478 0.3166666666666667 0  2.808695652173913 0.3166666666666667 0  2.825217391304347 0.3166666666666667 0  2.841739130434783 0.3166666666666667 0  2.858260869565217 0.3166666666666667 0  2.874782608695652 0.3166666666666667 0  2.891304347826087 0.3166666666666667 0  2.31304347826087 0.3333333333333333 0  2.329565217391304 0.3333333333333333 0  2.346086956521739 0.3333333333333333 0  2.362608695652174 0.3333333333333333 0  2.379130434782609 0.3333333333333333 0  2.395652173913044 0.3333333333333333 0  2.412173913043478 0.3333333333333333 0  2.428695652173913 0.3333333333333333 0  2.445217391304348 0.3333333333333333 0  2.461739130434782 0.3333333333333333 0  2.478260869565217 0.3333333333333333 0  2.494782608695652 0.3333333333333333 0  2.511304347826087 0.3333333333333333 0  2.527826086956522 0.3333333333333333 0  2.544347826086956 0.3333333333333333 0  2.560869565217391 0.3333333333333333 0  2.577391304347826 0.3333333333333333 0  2.593913043478261 0.3333333333333333 0  2.610434782608696 0.3333333333333333 0  2.62695652173913 0.3333333333333333 0  2.643478260869565 0.3333333333333333 0  2.66 0.3333333333333333 0  2.676521739130435 0.3333333333333333 0  2.693043478260869 0.3333333333333333 0  2.709565217391304 0.3333333333333333 0  2.726086956521739 0.3333333333333333 0  2.742608695652174 0.3333333333333333 0  2.759130434782609 0.3333333333333333 0  2.775652173913044 0.3333333333333333 0  2.792173913043478 0.3333333333333333 0  2.808695652173913 0.3333333333333333 0  2.825217391304347 0.3333333333333333 0  2.841739130434783 0.3333333333333333 0  2.858260869565217 0.3333333333333333 0  2.874782608695652 0.3333333333333333 0  2.891304347826087 0.3333333333333333 0  2.907826086956522 0.3333333333333333 0  2.329565217391304 0.35 0  2.346086956521739 0.35 0  2.362608695652174 0.35 0  2.379130434782609 0.35 0  2.395652173913044 0.35 0  2.412173913043478 0.35 0  2.428695652173913 0.35 0  2.445217391304348 0.35 0  2.461739130434782 0.35 0  2.478260869565217 0.35 0  2.494782608695652 0.35 0  2.511304347826087 0.35 0  2.527826086956522 0.35 0  2.544347826086956 0.35 0  2.560869565217391 0.35 0  2.577391304347826 0.35 0  2.593913043478261 0.35 0  2.610434782608696 0.35 0  2.62695652173913 0.35 0  2.643478260869565 0.35 0  2.66 0.35 0  2.676521739130435 0.35 0  2.693043478260869 0.35 0  2.709565217391304 0.35 0  2.726086956521739 0.35 0  2.742608695652174 0.35 0  2.759130434782609 0.35 0  2.775652173913044 0.35 0  2.792173913043478 0.35 0  2.808695652173913 0.35 0  2.825217391304347 0.35 0  2.841739130434783 0.35 0  2.858260869565217 0.35 0  2.874782608695652 0.35 0  2.891304347826087 0.35 0  2.907826086956522 0.35 0  2.924347826086957 0.35 0  2.346086956521739 0.3666666666666666 0  2.362608695652174 0.3666666666666666 0  2.379130434782609 0.3666666666666666 0  2.395652173913044 0.3666666666666666 0  2.412173913043478 0.3666666666666666 0  2.428695652173913 0.3666666666666666 0  2.445217391304348 0.3666666666666666 0  2.461739130434782 0.3
[...]
<CellData  Scalars="rho"> 
<DataArray  type="Float64"  Name="rho"  format="ascii">5.6289544348651450e-03   1.3216074535201930e-01   2.3152763741088650e-01   9.0138567374341127e-03   1.0286790209748568e-02   0.0000000000000000e+00   0.0000000000000000e+00   0.0000000000000000e+00   0.0000000000000000e+00   8.7721048906939749e-07   0.0000000000000000e+00   7.0580759447321133e-03   5.5529009531458549e-04   5.8685871130327600e-03   4.4458101971904807e-03   3.6087050988138436e-01   2.6453155214377594e-01   4.2274309047804648e-01   3.7621110432948457e-01   7.1896327295039242e-01   4.2861310758750276e-01   8.9684238229246438e-01   8.9429719313819045e-01   9.9988459542858832e-01   9.9990892213652138e-01   8.7103845035030336e-01   9.7254930947813489e-01   6.2238948994509824e-01   7.8375406469813647e-01   4.3446119461951949e-01   5.3883391211100473e-01   3.2071595947237586e-01   4.1089993118087498e-01   2.0341407570523658e-02   2.8943836193010802e-01   2.0179877445873221e-03   5.9065108324273755e-03   1.9314148224030569e-03   3.0213117004603452e-03   2.7177885198355144e-04   5.2957417255802245e-04   6.1253734836787719e-06   5.2837688537915379e-05   8.0486089242290081e-03   8.0394495801087689e-03   1.1342837843726620e-02   3.9299250372785238e-01   4.1980299262863663e-01   5.0074749553317455e-01   5.2956362218824393e-01   6.7541692475725124e-01   5.6002304117876833e-01   8.8930633416468052e-01   9.0729306762938844e-01   9.6586380949790784e-01   9.9153482192396381e-01   9.0958590865037969e-01   9.1708461740654190e-01   5.9774422679358163e-01   6.1459563845055121e-01   4.7094325240803847e-01   4.9181528616671921e-01   3.6580052408615127e-01   3.7381373847439103e-01   2.7898956243480033e-01   3.0669644584315736e-01   1.1296788663600652e-02   1.1095748640092046e-02   1.6067679623358935e-03   6.1401272625318274e-03   0.0000000000000000e+00   0.0000000000000000e+00   0.0000000000000000e+00   0.0000000000000000e+00   2.1444875792487285e-04   1.0362507399195072e-04   1.1500635568596070e-03   5.2801476260693132e-04   4.3923097485606029e-03   1.8097023446161623e-03   2.6541991850753155e-01   3.6941106341906761e-03   3.5368644419179157e-01   2.9972259243439853e-01   4.1414218086037224e-01   3.5135326833858788e-01   8.4939395628855485e-01   5.8529838661767575e-01   9.9979444119054728e-01   9.4269211447889301e-01   9.9993475437680823e-01   9.9992166698721074e-01   8.9167008133099068e-01   9.9995056583529085e-01   6.0514072674358399e-01   8.2105281602731761e-01   4.4595606616494321e-01   5.5546111504250761e-01   3.0147651795906688e-01   3.9118060058278614e-01   9.0117568942447625e-03   1.7024066370726225e-02   2.8463358317925244e-03   4.2787675245856182e-03   3.6168602364917995e-04   9.2770674990188542e-04   7.4191017423515205e-03   0.0000000000000000e+00   1.1305242077808950e-02   9.9810826615856826e-03   1.7058928800714197e-02   1.6691370065883438e-02   1.5154394142076319e-01   1.4530849540815407e-02   3.4874087392116238e-01   3.4112487317319873e-01   4.4039505208758689e-01   4.2936567756302257e-01   6.0038588105472912e-01   6.0694977451453813e-01   8.1335122065512877e-01   8.4976708615809338e-01   1.0000000000000000e+00   1.0000000000000000e+00   9.3473313898226751e-01   9.4144903628291554e-01   6.4391303410223599e-01   6.5901998473154144e-01   5.1223377461608965e-01   5.1599983422543816e-01   4.1872389199280030e-01   4.1410614516826566e-01   3.2893440043542788e-01   3.6067653268989436e-01   9.1751246540397371e-03   3.7775585411157104e-04   5.1773405495721403e-03   4.6873231918107402e-03   0.0000000000000000e+00   3.5458883353278872e-04   0.0000000000000000e+00   0.0000000000000000e+00   3.5184897647136900e-05   1.8615985414779002e-05   1.6584016206210172e-04   1.6849638423806890e-04   1.0468270633642151e-03   7.2416009531073668e-04   2.1246896013935005e-03   1.5787323914778050e-03   3.4656345311680674e-03   2.6360714806049263e-03   2.6641970979334162e-01   9.5182706961555646e-02   3.3648280474604247e-01   2.9504749720427642e-01   5.4204233453056294e-01   3.4750006138696032e-01   8.1736184239510312e-01   6.6022140201203472e-01   9.9997599191836295e-01   9.4792821154384166e-01   1.0000000000000000e+00   1.0000000000000000e+00   8.0965737101457036e-01   9.7785020046784321e-01   5.9383554689778906e-01   6.1801933537493881e-01   4.4513048403479188e-01   4.4045468854656944e-01   1.7060788513381352e-02   1.8944166062523529e-01   1.9385145743992306e-03   2.7932943467421580e-03   0.0000000000000000e+00   0.0000000000000000e+00   5.9846069693472847e-03   3.7173377795737569e-03   1.4599133303916878e-02   1.2424670264491596e-02   2.7859738833687718e-02   2.5801251103897568e-02   2.8622570540456671e-01   2.7581681444110850e-01   4.6482679572502372e-01   4.3934624346945678e-01   5.4055714430164625e-01   5.2229453891452171e-01   8.7740132873998011e-01   7.9956096658410958e-01   9.2820773022459768e-01   9.3382811968285151e-01   8.1440092849345180e-01   7.6209990624916102e-01   6.9802805452110872e-01   6.6089641013615863e-01   5.4963536324247297e-01   5.2578274453816998e-01   4.5541816765494192e-01   4.4453065654687096e-01   3.5632562780724131e-01   3.5644474100193824e-01   5.7999789547336783e-04   6.0293895974233987e-04   2.2552502882548114e-04   2.5232696127788502e-04   5.0472171718038037e-05   7.3035350363195278e-05   8.8693896248498762e-06   1.9186731292328280e-05   0.0000000000000000e+00   0.0000000000000000e+00   2.8926957790434621e-05   2.9323652699746209e-06   1.8109235084604755e-04   9.1590909289509948e-05   7.7625770345448111e-04   4.9480788586483873e-04   1.5704157708037378e-03   1.1303466950836534e-03   2.1456506685319358e-03   1.9437540899862791e-03   2.0808340257395448e-03   1.6170050893463078e-03   2.7987187850239714e-01   2.0942986282527318e-01   4.0506360544510855e-01   2.8350443671675468e-01   6.5987960544032798e-01   4.3694595970695355e-01   8.7632751383860197e-01   6.9921272334967122e-01   1.0000000000000000e+00   1.0000000000000000e+00   9.6704978411597398e-01   1.0000000000000000e+00   6.1742471879438210e-01   8.8493842731888273e-01   3.9076712036833622e-01   4.9840160610612499e-01   1.2999009099395964e-01   3.3520811995475519e-01   0.0000000000000000e+00   2.8778139754238158e-04   0.0000000000000000e+00   0.0000000000000000e+00   0.0000000000000000e+00   0.0000000000000000e+00   1.6915377499309089e-02   1.0686124722440186e-02   2.4909175506657724e-01   2.4581959741059708e-01   4.4421208325097439e-01   4.6232406702853562e-01   5.5603110682429924e-01   5.6227518616350602e-01   6.9167272054967555e-01   6.1157790656581279e-01   8.6057414075812322e-01   8.1253493730685700e-01   7.7880993301643953e-01   8.3248043393262694e-01   6.8695164845320789e-01   7.5434060063877340e-01   5.2448515466071655e-01   5.9901237832813636e-01   4.0330700237467582e-01   3.9235633631626438e-01   3.1171181456723684e-01   3.0576069688929686e-01   5.4739339698355385e-04   4.7053042890190898e-04   2.5548870456226937e-04   2.2635895220646289e-04   8.7026087119413981e-05   1.3159253821959000e-04   2.3144358671118963e-05   1.0495387475249111e-05   1.3044555880912318e-07   2.4191225089782743e-07   0.0000000000000000e+00   0.0000000000000000e+00   0.0000000000000000e+00   0.0000000000000000e+00   7.6837128913467273e-05   8.1973548678522273e-06   4.5180057962198640e-04   1.1864452316454215e-04   1.0513704313488716e-03   6.7959655129305253e-04   1.7055556838517416e-03   1.2314704864568680e-03   2.3471197543552939e-03   2.0549860863189428e-03   3.5055804448163893e-03   3.1357145323067117e-03   3.2612699544066842e-01   3.2161870919812430e-01   4.6012656501749505e-01   4.0842302652590340e-01   6.3873422571174765e-01   5.4450601494167727e-01   9.3824292911151375e-01   8.0927819699979797e-01   1.0000000000000000e+00   1.0000000000000000e+00   8.3522297315995930e-01   1.0000000000000000e+00   5.2427709217763530e-01   6.3263367899686906e-01   3.5430039737742386e-01   4.5778938249191165e-01   0.0000000000000000e+00   1.9981876210046834e-01   0.0000000000000000e+00   0.0000000000000000e+00   0.0000000000000000e+00   0.0000000000000000e+00   2.6855548570303550e-01   2.7881517641626946e-01   5.0628352359576945e-01   5.2780800479976808e-01   6.2005716163774838e-01   6.6274222056103615e-01   7.6250592057157396e-01   8.2931145951421081e-01   9.9861937305742188e-01   9.9935946624757166e-01   9.1789799487029866e-01   1.0000000000000000e+00   8.7657853784778172e-01   9.5927516692779502e-01   7.5690368481361447e-01   8.2307336862944025e-01   5.3888710772273196e-01   6.2266645637528806e-01   2.5109824798420427e-01   3.7919601427223110e-01   3.0138106920387465e-04   2.4897582909365530e-04   1.8364953507884858e-04   1.5156811233769796e-04   8.6788028696062531e-05   4.5628238643326940e-05   1.3684667377784297e-06   1.3769964067985577e-06   4.2809770588956598e-07   4.9599398167327872e-07   5.3202369716824161e-08   4.9356892612659138e-08   0.0000000000000000e+00   0.0000000000000000e+00   0.0000000000000000e+00   0.0000000000000000e+00   0.0000000000000000e+00   0.0000000000000000e+00   5.2855823533333976e-05   0.0000000000000000e+00   2.4787938895113817e-04   7.1656251651602896e-05   9.8664108118861563e-04   3.6512981604499488e-04   1.7596133765896489e-03   1.1827371165803839e-03   2.4265130178640934e-03   1.7738490765802422e-03   3.2136739951960497e-01   2.8404593520761452e-03   4.2562892563611154e-01   3.5806643074811662e-01   5.4178632945423844e-01   4.8677952727151835e-01   7.3889211085814144e-01   5.7638166352274633e-01   1.0000000000000000e+00   9.0237588002435709e-01   8.3044356274179387e-01   8.2820568221947821e-01   6.1037190584292900e-01   7.0885257810459656e-01   4.6189386239764019e-01   6.0976612874354241e-01   2.7846756553963709e-01   4.1761868009295627e-01   9.3639872877661887e-02   1.0969603351168247e-01   3.7540846912875564e-01   3.7370514891249590e-01   5.2456973587765032e-01   5.5646815041198094e-01   7.1829451740553807e-01   7.1853758644520493e-01   8.3811931987953447e-01   8.2795085671735436e-01   1.0000000000000000e+00   1.0000000000000000e+00   9.9757716703715327e-01   9.9888459965983944e-01   9.5086755034676429e-01   8.8111464238803150e-01   7.6009234045843732e-01   7.4854437257303152e-01   6.0130834076040895e-01   5.5072960468566368e-01   4.1348462707422856e-01   3.4772816226081937e-01   1.4214931136548523e-01   1.0369790558194908e-01   6.1074883580685909e-06   7.3753043337773178e-06   2.9691682175354554e-06   3.1583791250810412e-06   9.4218540137333595e-07   7.3924961156334565e-07   1.8212227644983309e-07   0.0000000000000000e+00   0.0000000000000000e+00   0.0000000000000000e+00   0.0000000000000000e+00   0.0000000000000000e+00   0.0000000000000000e+00   0.0000000000000000e+00   0.0000000000000000e+00   0.0000000000000000e+00   0.0000000000000000e+00   0.0000000000000000e+00   0.0000000000000000e+00   0.0000000000000000e+00   0.0000000000000000e+00   0.0000000000000000e+00   8.9658731970266925e-05   0.0000000000000000e+00   7.8105594095460114e-04   1.0080907504296998e-04   1.2057317767928063e-03   7.5824375455250254e-04   4.1764283838129331e-03   2.0177926097426475e-03   3.4932901338217071e-01   5.8658916913257942e-03   4.6190911690840947e-01   3.7042808547348849e-01   5.8435822695184780e-01   5.0417052258474326e-01   7.1299949355721659e-01   6.2837061191009824e-01   7.1324989282825457e-01   7.0343399015647046e-01   6.5677548233583327e-01   6.6877369426188693e-01   5.9855090352940243e-01   5.8768360661871399e-01   4.6261109095252373e-01   5.9136161556960709e-01   3.6539463957271923e-01   5.3374121668225205e-01   5.6499745830124770e-01   5.9826410272015662e-01   7.2867106763030975e-01   7.0003678950907111e-01   7.9906602329027221e-01   7.8181743284089544e-01   9.4223068567795043e-01   8.9957891524923606e-01   9.8320111139199917e-01   9.3103369724410090e-01   8.6850648079043691e-01   8.2933806431197010e-01   7.4177410570192992e-01   6.9778547981302697e-01   5.8084041844668222e-01   5.6344562340670667e-01   6.4841511006258026e-02   3.0785980218132869e-01   1.8813398414667162e-01   1.6509112351732844e-01   9.8152068467272076e-06   1.4753593447498565e-05   3.2058819983152663e-06   3.6677102272976025e-06   1.2074473082641282e-07   0.0000000000000000e+00   0.0000000000000000e+00   0.0000000000000000e+00   0.0000000000000000e+00   0.0000000000000000e+00   0.0000000000000000e+00   0.0000000000000000e+00   0.0000000000000000e+00   0.0000000000000000e+00   0.0000000000000000e+00   0.0000000000000000e+00   0.0000000000000000e+00   0.0000000000000000e+00   0.0000000000000000e+00   0.0000000000000000e+00   0.0000000000000000e+00   0.0000000000000000e+00   0.0000000000000000e+00   0.0000000000000000e+00   0.0000000000000000e+00   0.0000000000000000e+00   0.0000000000000000e+00   0.0000000000000000e+00   3.5838616414336593e-04   0.0000000000000000e+00   1.5710971278727224e-03   2.9564852151548648e-04   3.8866516465105552e-03   1.5519359948061736e-03   3.0799168128828419e-01   3.1485632930167967e-01   4.3609435508803723e-01   4.3280088878941059e-01   5.2943752344176120e-01   5.5488423443197399e-01   6.1726767386574954e-01   6.3549976781970785e-01   6.0610346627277156e-01   6.7712818759831772e-01   5.9342561169120078e-01   7.0431763268337333e-01   6.2584687231502589e-01   7.3333969217785255e-01   6.4271157821053015e-01   7.1955977224887546e-01   7.0415931846897717e-01   7.4827160001907300e-01   7.6904738197072764e-01   8.7591270948251920e-01   9.2802635254976928e-01   9.5021815907666518e-01   8.6069309062935551e-01   8.4317143735162181e-01   7.1162251976133395e-01   7.5418830931357272e-01   5.9745523546418711e-01   5.9996765281853448e-01   4.7709600371543320e-01   4.6428324603063242e-01   1.8320950482225692e-01   1.8322490684802609e-01   0.0000000000000000e+00   0.0000000000000000e+00   0.0000000000000000e+00   1.9313646406587361e-05   7.1230197852381775e-06   7.0927238651288646e-06   0.0000000000000000e+00   0.0000000000000000e+00   0.0000000000000000e+00   0.0000000000000000e+00   0.0000000000000000e+00   0.0000000000000000e+00   0.0000000000000000e+00   0.0000000000000000e+00   0.0000000000000000e+00   0.0000000000000000e+00   0.0000000000000000e+00   0.0000000000000000e+00   0.0000000000000000e+00   0.0000000000000000e+00   0.0000000000000000e+00   0.0000000000000000e+00   0.0000000000000000e+00   0.0000000000000000e+00   0.0000000000000000e+00   0.0000000000000000e+00   0.0000000000000000e+00   0.0000000000000000e+00   0.0000000000000000e+00   0.0000000000000000e+00   0.0000000000000000e+00   0.0000000000000000e+00   0.0000000000000000e+00   0.0000000000000000e+00   0.0000000000000000e+00   0.0000000000000000e+00   0.0000000000000000e+00   0.0000000000000000e+00   1.2590514681940493e-01   5.4206214757000021e-02   2.5437176150852625e-01   1.3463334039318270e-01   3.4380717223344509e-01   2.5344881126429047e-01   3.9453127364521912e-01   3.2152306979029405e-01   5.6260886663095688e-01   4.8494397916356952e-01   6.4023577158077771e-01   6.4064687656957098e-01   6.8033624384677194e-01   7.1189409934604664e-01   7.0542781672185462e-01   7.2902968465356444e-01   7.3906336557590024e-01   7.2849406049858434e-01   7.9231991268165791e-01   7.3864253945695268e-01   6.9318474163957200e-01   5.7659382105825840e-01   5.8258157709803304e-01   4.9226347042848684e-01   4.5297526556719070e-01   3.7956624160359981e-01   3.3921587606824288e-01   2.8785974934831204e-01   1.2405554683361819e-01   8.7901462520522861e-02   0.0000000000000000e+00   1.7734758331500307e-05   0.0000000000000000e+00   0.0000000000000000e+00   0.0000000000000000e+00   0.0000000000000000e+00   0.0000000000000000e+00   0.0000000000000000e+00   0.0000000000000000e+00   0.0000000000000000e+00   0.0000000000000000e+00   0.0000000000000000e+00   0.0000000000000000e+00   0.0000000000000000e+00   0.0000000000000000e+00   0.0000000000000000e+00   0.0000000000000000e+00   0.0000000000000000e+00   0.0000000000000000e+00   0.0000000000000000e+00   2.9328628332084413e-06   3.9564928119138075e-06   1.8625179642201082e-06   4.9501642436910269e-06   0.0000000000000000e+00   0.0000000000000000e+00   0.0000000000000000e+00   0.0000000000000000e+00   0.0000000000000000e+00   0.0000000000000000e+00   0.0000000000000000e+00   0.0000000000000000e+00   0.0000000000000000e+00   0.0000000000000000e+00   0.0000000000000000e+00   0.0000000000000000e+00   0.0000000000000000e+00   0.0000000000000000e+00   0.0000000000000000e+00   0.0000000000000000e+00   0.0000000000000000e+00   0.0000000000000000e+00   1.1400513211069854e-01   3.8331565866657216e-02   1.8216602901216064e-01   1.3236421630347958e-01   2.5220877839006101e-01   2.3763615218636780e-01   5.7471537876682766e-01   5.0557356060441261e-01   6.9781086919431179e-01   6.5615444405945589e-01   7.4241058215553379e-01   7.3215563487769997e-01   7.2622997640371101e-01   7.4585948794972190e-01   6.8810182446432144e-01   6.9762167285632104e-01   4.8612484908246434e-01   4.5062997042041480e-01   3.7721585862581836e-01   3.3336786217242620e-01   2.9561471984344184e-01   2.5628660346449900e-01   1.9227080989494258e-01   1.6661808809081671e-01   5.3231121200688465e-02   7.5981544865400652e-02   1.3465534677283659e-04   1.7403130139564309e-04   1.4875280625836563e-05   3.5289029936039969e-05   0.0000000000000000e+00   5.0702582715149438e-06   0.0000000000000000e+00   0.0000000000000000e+00   0.0000000000000000e+00   0.0000000000000000e+00   0.0000000000000000e+00   0.0000000000000000e+00   0.0000000000000000e+00   0.0000000000000000e+00   0.0000000000000000e+00   0.0000000000000000e+00   0.0000000000000000e+00   0.0000000000000000e+00   0.0000000000000000e+00   0.0000000000000000e+00   4.8673087693215878e-06   2.2729107734094433e-06   1.2594804014122964e-05   1.5321443311363084e-05   1.0881754955901532e-05   1.7489945122480280e-05   0.0000000000000000e+00   7.9992284731654127e-06   0.0000000000000000e+00   0.0000000000000000e+00   0.0000000000000000e+00   0.0000000000000000e+00   0.0000000000000000e+00   0.0000000000000000e+00   0.0000000000000000e+00   0.0000000000000000e+00   0.0000000000000000e+00   0.0000000000000000e+00   0.0000000000000000e+00   0.0000000000000000e+00   0.0000000000000000e+00   0.0000000000000000e+00   0.0000000000000000e+00   0.0000000000000000e+00   0.0000000000000000e+00   0.0000000000000000e+00   7.0532624749347031e-02   9.2815527468512096e-03   1.9027999112810162e-01   1.1584939228177525e-01   3.8410265081075562e-01   2.2658906434584744e-01   7.7934614158181714e-01   3.8428362720194875e-01   9.7217824029733979e-01   8.4669761420846490e-01   6.6532208650829550e-01   6.6154888083188945e-01   4.2365098563902565e-01   3.7435206271306176e-01   2.4208804997043532e-01   2.2682456499935649e-01   1.5702768874386686e-01   1.2636182582412750e-01   1.1437067409105391e-01   8.7614745810955325e-02   2.3592275340599975e-02   1.2603367266553254e-02   1.8065691766969112e-04   1.6257121510707058e-04   1.0101992122413046e-04   1.4009215155983974e-04   3.5431212208556778e-05   5.3099565892649453e-05   6.4378285279916929e-06   1.9983591017434132e-05   0.0000000000000000e+00   0.0000000000000000e+00   0.0000000000000000e+00   0.0000000000000000e+00   0.0000000000000000e+00   0.0000000000000000e+00   0.0000000000000000e+00   0.0000000000000000e+00   0.0000000000000000e+00   0.0000000000000000e+00   0.0000000000000000e+00   0.0000000000000000e+00   0.0000000000000000e+00   0.0000000000000000e+00   1.9189610482920426e-05   1.5694786929239601e-05   3.3998047932495350e-05   4.0412741473914723e-05   3.0938634493921576e-05   4.4677752024100266e-05   1.0640420476962869e-05   2.6949086567343187e-05   0.0000000000000000e+00   0.0000000000000000e+00   0.0000000000000000e+00   0.0000000000000000e+00   0.0000000000000000e+00   0.0000000000000000e+00   0.0000000000000000e+00   0.0000000000000000e+00   0.0000000000000000e+00   0.0000000000000000e+00   0.0000000000000000e+00   0.0000000000000000e+00   0.0000000000000000e+00   0.0000000000000000e+00   0.0000000000000000e+00   0.0000000000000000e+00   0.0000000000000000e+00   0.0000000000000000e+00   0.0000000000000000e+00   0.0000000000000000e+00   1.0034643631660464