<?xml version="1.0"?>
<VTKFile type="UnstructuredGrid"  version="0.1"  >
<UnstructuredGrid>
<Piece  NumberOfPoints="611" NumberOfCells="1123">
<Points>
<DataArray  type="Float64"  NumberOfComponents="3"  format="ascii">1.883478260869565 0.01666666666666667 0  1.9 0.01666666666666667 0  1.9 0.03333333333333333 0  1.883478260869565 0.03333333333333333 0  1.916521739130435 0.03333333333333333 0  1.9 0.05 0  1.883478260869565 0.05 0  1.916521739130435 0.05 0  1.933043478260869 0.05 0  1.9 0.06666666666666667 0  1.883478260869565 0.06666666666666667 0  1.916521739130435 0.06666666666666667 0  1.933043478260869 0.06666666666666667 0  1.949565217391304 0.06666666666666667 0  1.9 0.08333333333333333 0  1.883478260869565 0.08333333333333333 0  1.916521739130435 0.08333333333333333 0  1.933043478260869 0.08333333333333333 0  1.949565217391304 0.08333333333333333 0  1.966086956521739 0.08333333333333333 0  1.9 0.1 0  1.883478260869565 0.1 0  1.916521739130435 0.1 0  1.933043478260869 0.1 0  1.949565217391304 0.1 0  1.966086956521739 0.1 0  1.982608695652174 0.1 0  1.9 0.1166666666666667 0  1.883478260869565 0.1166666666666667 0  1.916521739130435 0.1166666666666667 0  1.933043478260869 0.1166666666666667 0  1.949565217391304 0.1166666666666667 0  1.966086956521739 0.1166666666666667 0  1.982608695652174 0.1166666666666667 0  1.999130434782608 0.1166666666666667 0  1.9 0.1333333333333333 0  1.883478260869565 0.1333333333333333 0  1.916521739130435 0.1333333333333333 0  1.933043478260869 0.1333333333333333 0  1.949565217391304 0.1333333333333333 0  1.966086956521739 0.1333333333333333 0  1.982608695652174 0.1333333333333333 0  1.999130434782608 0.1333333333333333 0  2.015652173913043 0.1166666666666667 0  2.015652173913043 0.1333333333333333 0  2.032173913043478 0.1166666666666667 0  2.032173913043478 0.1333333333333333 0  2.048695652173913 0.1166666666666667 0  2.048695652173913 0.1333333333333333 0  2.065217391304348 0.1166666666666667 0  2.065217391304348 0.1333333333333333 0  2.081739130434782 0.1166666666666667 0  2.081739130434782 0.1333333333333333 0  2.098260869565217 0.1333333333333333 0  1.9 0.15 0  1.883478260869565 0.15 0  1.916521739130435 0.15 0  1.933043478260869 0.15 0  1.949565217391304 0.15 0  1.966086956521739 0.15 0  1.982608695652174 0.15 0  1.999130434782608 0.15 0  2.015652173913043 0.15 0  2.032173913043478 0.15 0  2.048695652173913 0.15 0  2.065217391304348 0.15 0  2.081739130434782 0.15 0  2.098260869565217 0.15 0  2.114782608695652 0.15 0  1.9 0.1666666666666667 0  1.883478260869565 0.1666666666666667 0  1.916521739130435 0.1666666666666667 0  1.933043478260869 0.1666666666666667 0  1.949565217391304 0.1666666666666667 0  1.966086956521739 0.1666666666666667 0  1.982608695652174 0.1666666666666667 0  1.999130434782608 0.1666666666666667 0  2.015652173913043 0.1666666666666667 0  2.032173913043478 0.1666666666666667 0  2.048695652173913 0.1666666666666667 0  2.065217391304348 0.1666666666666667 0  2.081739130434782 0.1666666666666667 0  2.098260869565217 0.1666666666666667 0  2.114782608695652 0.1666666666666667 0  2.131304347826087 0.1666666666666667 0  1.9 0.1833333333333333 0  1.883478260869565 0.1833333333333333 0  1.916521739130435 0.1833333333333333 0  1.933043478260869 0.1833333333333333 0  1.949565217391304 0.1833333333333333 0  1.966086956521739 0.1833333333333333 0  1.982608695652174 0.1833333333333333 0  1.999130434782608 0.1833333333333333 0  2.015652173913043 0.1833333333333333 0  2.032173913043478 0.1833333333333333 0  2.048695652173913 0.1833333333333333 0  2.065217391304348 0.1833333333333333 0  2.081739130434782 0.1833333333333333 0  2.098260869565217 0.1833333333333333 0  2.114782608695652 0.1833333333333333 0  2.131304347826087 0.1833333333333333 0  2.147826086956522 0.1833333333333333 0  1.9 0.2 0  1.883478260869565 0.2 0  1.916521739130435 0.2 0  1.933043478260869 0.2 0  1.949565217391304 0.2 0  1.966086956521739 0.2 0  1.982608695652174 0.2 0  1.999130434782608 0.2 0  2.015652173913043 0.2 0  2.032173913043478 0.2 0  2.048695652173913 0.2 0  2.065217391304348 0.2 0  2.081739130434782 0.2 0  2.098260869565217 0.2 0  2.114782608695652 0.2 0  2.131304347826087 0.2 0  2.147826086956522 0.2 0  2.164347826086956 0.2 0  1.9 0.2166666666666667 0  1.883478260869565 0.2166666666666667 0  1.916521739130435 0.2166666666666667 0  1.933043478260869 0.2166666666666667 0  1.949565217391304 0.2166666666666667 0  1.966086956521739 0.2166666666666667 0  1.982608695652174 0.2166666666666667 0  1.999130434782608 0.2166666666666667 0  2.015652173913043 0.2166666666666667 0  2.032173913043478 0.2166666666666667 0  2.048695652173913 0.2166666666666667 0  2.065217391304348 0.2166666666666667 0  2.081739130434782 0.2166666666666667 0  2.098260869565217 0.2166666666666667 0  2.114782608695652 0.2166666666666667 0  2.131304347826087 0.2166666666666667 0  2.147826086956522 0.2166666666666667 0  2.164347826086956 0.2166666666666667 0  2.180869565217391 0.2166666666666667 0  1.9 0.2333333333333333 0  1.883478260869565 0.2333333333333333 0  1.916521739130435 0.2333333333333333 0  1.933043478260869 0.2333333333333333 0  1.949565217391304 0.2333333333333333 0  1.966086956521739 0.2333333333333333 0  1.982608695652174 0.2333333333333333 0  1.999130434782608 0.2333333333333333 0  2.015652173913043 0.2333333333333333 0  2.032173913043478 0.2333333333333333 0  2.048695652173913 0.2333333333333333 0  2.065217391304348 0.2333333333333333 0  2.081739130434782 0.2333333333333333 0  2.098260869565217 0.2333333333333333 0  2.114782608695652 0.2333333333333333 0  2.131304347826087 0.2333333333333333 0  2.147826086956522 0.2333333333333333 0  2.164347826086956 0.2333333333333333 0  2.180869565217391 0.2333333333333333 0  2.197391304347826 0.2333333333333333 0  1.9 0.25 0  1.916521739130435 0.25 0  1.933043478260869 0.25 0  1.949565217391304 0.25 0  1.966086956521739 0.25 0  1.982608695652174 0.25 0  1.999130434782608 0.25 0  2.015652173913043 0.25 0  2.032173913043478 0.25 0  2.048695652173913 0.25 0  2.065217391304348 0.25 0  2.081739130434782 0.25 0  2.098260869565217 0.25 0  2.114782608695652 0.25 0  2.131304347826087 0.25 0  2.147826086956522 0.25 0  2.164347826086956 0.25 0  2.180869565217391 0.25 0  2.197391304347826 0.25 0  2.213913043478261 0.25 0  1.916521739130435 0.2666666666666667 0  1.9 0.2666666666666667 0  1.933043478260869 0.2666666666666667 0  1.949565217391304 0.2666666666666667 0  1.966086956521739 0.2666666666666667 0  1.982608695652174 0.2666666666666667 0  1.999130434782608 0.2666666666666667 0  2.015652173913043 0.2666666666666667 0  2.032173913043478 0.2666666666666667 0  2.048695652173913 0.2666666666666667 0  2.065217391304348 0.2666666666666667 0  2.081739130434782 0.2666666666666667 0  2.098260869565217 0.2666666666666667 0  2.114782608695652 0.2666666666666667 0  2.131304347826087 0.2666666666666667 0  2.147826086956522 0.2666666666666667 0  2.164347826086956 0.2666666666666667 0  2.180869565217391 0.2666666666666667 0  2.197391304347826 0.2666666666666667 0  2.213913043478261 0.2666666666666667 0  2.230434782608695 0.25 0  2.230434782608695 0.2666666666666667 0  2.24695652173913 0.2666666666666667 0  1.916521739130435 0.2833333333333333 0  1.9 0.2833333333333333 0  1.933043478260869 0.2833333333333333 0  1.949565217391304 0.2833333333333333 0  1.966086956521739 0.2833333333333333 0  1.982608695652174 0.2833333333333333 0  1.999130434782608 0.2833333333333333 0  2.015652173913043 0.2833333333333333 0  2.032173913043478 0.2833333333333333 0  2.048695652173913 0.2833333333333333 0  2.065217391304348 0.2833333333333333 0  2.081739130434782 0.2833333333333333 0  2.098260869565217 0.2833333333333333 0  2.114782608695652 0.2833333333333333 0  2.131304347826087 0.2833333333333333 0  2.147826086956522 0.2833333333333333 0  2.164347826086956 0.2833333333333333 0  2.180869565217391 0.2833333333333333 0  2.197391304347826 0.2833333333333333 0  2.213913043478261 0.2833333333333333 0  2.230434782608695 0.2833333333333333 0  2.24695652173913 0.2833333333333333 0  2.263478260869565 0.2833333333333333 0  1.916521739130435 0.3 0  1.9 0.3 0  1.933043478260869 0.3 0  1.949565217391304 0.3 0  1.966086956521739 0.3 0  1.982608695652174 0.3 0  1.999130434782608 0.3 0  2.015652173913043 0.3 0  2.032173913043478 0.3 0  2.048695652173913 0.3 0  2.065217391304348 0.3 0  2.081739130434782 0.3 0  2.098260869565217 0.3 0  2.114782608695652 0.3 0  2.131304347826087 0.3 0  2.147826086956522 0.3 0  2.164347826086956 0.3 0  2.180869565217391 0.3 0  2.197391304347826 0.3 0  2.213913043478261 0.3 0  2.230434782608695 0.3 0  2.24695652173913 0.3 0  2.263478260869565 0.3 0  2.28 0.3 0  1.916521739130435 0.3166666666666667 0  1.9 0.3166666666666667 0  1.933043478260869 0.3166666666666667 0  1.949565217391304 0.3166666666666667 0  1.966086956521739 0.3166666666666667 0  1.982608695652174 0.3166666666666667 0  1.999130434782608 0.3166666666666667 0  2.015652173913043 0.3166666666666667 0  2.032173913043478 0.3166666666666667 0  2.048695652173913 0.3166666666666667 0  2.065217391304348 0.3166666666666667 0  2.081739130434782 0.3166666666666667 0  2.098260869565217 0.3166666666666667 0  2.114782608695652 0.3166666666666667 0  2.131304347826087 0.3166666666666667 0  2.147826086956522 0.3166666666666667 0  2.164347826086956 0.3166666666666667 0  2.180869565217391 0.3166666666666667 0  2.197391304347826 0.3166666666666667 0  2.213913043478261 0.3166666666666667 0  2.230434782608695 0.3166666666666667 0  2.24695652173913 0.3166666666666667 0  2.263478260869565 0.3166666666666667 0  2.28 0.3166666666666667 0  2.296521739130434 0.3166666666666667 0  1.916521739130435 0.3333333333333333 0  1.9 0.3333333333333333 0  1.933043478260869 0.3333333333333333 0  1.949565217391304 0.3333333333333333 0  1.966086956521739 0.3333333333333333 0  1.982608695652174 0.3333333333333333 0  1.999130434782608 0.3333333333333333 0  2.015652173913043 0.3333333333333333 0  2.032173913043478 0.3333333333333333 0  2.048695652173913 0.3333333333333333 0  2.06521739
[...]
<CellData  Scalars="rho"> 
<DataArray  type="Float64"  Name="rho"  format="ascii">9.7456202749153242e-01   9.6531328077399658e-01   9.6529441668087312e-01   6.2614862452421183e-01   5.1847129137939729e-01   6.2055110071167774e-01   5.1628728649392763e-01   5.1368221681656190e-01   3.7919407556962226e-01   2.5901525400027481e-01   3.7716305707337339e-01   2.5711599712321903e-01   3.7480284062313740e-01   2.5485775759685425e-01   2.5238361153483607e-01   0.0000000000000000e+00   0.0000000000000000e+00   0.0000000000000000e+00   0.0000000000000000e+00   0.0000000000000000e+00   0.0000000000000000e+00   0.0000000000000000e+00   0.0000000000000000e+00   0.0000000000000000e+00   0.0000000000000000e+00   0.0000000000000000e+00   0.0000000000000000e+00   0.0000000000000000e+00   0.0000000000000000e+00   0.0000000000000000e+00   0.0000000000000000e+00   0.0000000000000000e+00   0.0000000000000000e+00   0.0000000000000000e+00   0.0000000000000000e+00   0.0000000000000000e+00   0.0000000000000000e+00   0.0000000000000000e+00   0.0000000000000000e+00   0.0000000000000000e+00   0.0000000000000000e+00   0.0000000000000000e+00   0.0000000000000000e+00   0.0000000000000000e+00   0.0000000000000000e+00   0.0000000000000000e+00   0.0000000000000000e+00   0.0000000000000000e+00   0.0000000000000000e+00   2.3008791310759791e-03   0.0000000000000000e+00   3.4958146738405080e-03   0.0000000000000000e+00   4.1467521592413684e-03   0.0000000000000000e+00   4.4202530850938138e-03   0.0000000000000000e+00   4.5070872722833902e-03   0.0000000000000000e+00   4.5802975282103258e-03   0.0000000000000000e+00   4.7621183364691937e-03   0.0000000000000000e+00   5.1113336887447557e-03   0.0000000000000000e+00   5.6309494842061549e-03   0.0000000000000000e+00   6.2875643907294191e-03   0.0000000000000000e+00   7.0308651244877559e-03   0.0000000000000000e+00   7.8077880369719381e-03   8.5757852361742770e-03   3.4106469014472167e-02   4.6498755538087716e-02   3.5042921097196492e-02   4.7448510975646965e-02   3.5282565355888175e-02   4.7944430164010239e-02   3.5334451414932459e-02   4.8126146301349759e-02   3.5272697623679648e-02   4.8158047805860159e-02   3.5274022697428617e-02   4.8187694580505577e-02   3.5443116062339075e-02   4.8313505678462161e-02   3.5807389111034198e-02   4.8573073878004434e-02   3.6334058746459709e-02   4.8951620429634711e-02   3.6956779410870638e-02   4.9401712221987602e-02   3.7599356982821609e-02   4.9863505320162690e-02   3.8972570257968457e-02   5.7390084508243282e-02   3.9395086918836295e-02   5.7928878061168983e-02   5.8270796320848230e-02   8.9585038705484621e-02   1.0230729983355107e-01   9.0133887344528624e-02   1.0298373461915393e-01   8.9886749257677132e-02   1.0276437454457840e-01   8.9191625498723850e-02   1.0197434401956643e-01   8.8421169084386270e-02   1.0100486889812700e-01   8.7871423579223409e-02   1.0020099745307663e-01   8.7697768270172408e-02   9.9774391661936426e-02   8.7905830959865150e-02   9.9772707343266751e-02   8.8388527720433666e-02   1.0010564708841424e-01   8.8981357493851276e-02   1.0060215314664915e-01   8.9511149370943954e-02   1.0106802907703191e-01   8.9840315889404970e-02   1.0202821431984607e-01   8.9889061505628712e-02   1.0799137577007306e-01   8.9640855996733063e-02   1.1343344881928541e-01   1.1824428471487368e-01   1.6008710585572999e-01   2.1136144448043806e-01   1.5918069394319548e-01   2.1082953977374710e-01   1.5761127634433453e-01   2.1028955314696632e-01   1.5595990156945475e-01   1.9307399535794348e-01   1.5485445878919893e-01   1.9156380341521023e-01   1.6349845278649991e-01   1.9077282504187840e-01   1.6484217886428737e-01   1.9126615535110147e-01   1.6755502174751960e-01   1.9313327094498645e-01   1.7143360117981130e-01   1.9623519372165818e-01   1.7678223588750785e-01   2.0026958499054506e-01   1.8184407708032418e-01   2.1728455938192720e-01   1.8691590737127661e-01   2.2074090442003011e-01   1.9169505703011069e-01   2.2395515437096775e-01   1.9598981365486087e-01   2.2675651688017154e-01   1.9972874467208387e-01   2.2908670585791560e-01   2.3095287432574346e-01   2.3119590109217603e-01   2.2976245937939146e-01   2.3101439488518138e-01   2.2985927293269864e-01   2.3010226638402209e-01   2.2907842216468932e-01   2.2894411421327257e-01   2.2786516656589137e-01   2.2806892221009997e-01   2.2676734021469383e-01   2.2789597596998867e-01   2.2627351473520307e-01   2.2862854021849113e-01   2.2667740187126931e-01   2.3023290960658985e-01   2.2802235514319733e-01   2.3248883081142677e-01   2.3013195765883576e-01   2.3507902097506558e-01   1.5304024477672268e-01   2.3766753198851037e-01   1.5803109125669842e-01   1.6023082780264769e-01   1.6291603871651281e-01   1.6471455349513467e-01   1.6741022507268746e-01   1.6850244525343303e-01   1.7134966047053052e-01   1.7173766208087132e-01   1.7469030911263736e-01   1.7449706463842241e-01   1.7749168741616012e-01   1.7425323362493603e-01   2.3881059230715590e-01   2.5845220698961352e-01   2.3772368234421112e-01   2.3828376275136123e-01   2.3503465981846722e-01   1.7368447468371112e-01   2.3385212931097993e-01   1.7390880406425682e-01   1.6372354314581861e-01   1.7489008944273041e-01   1.6437872775257834e-01   1.7809590796899594e-01   1.6774469713950280e-01   1.7044739356981392e-01   1.7377196201568870e-01   1.7329803421602474e-01   1.7840654231171671e-01   1.8779910226340130e-01   1.7613342069897445e-01   1.9270853830959328e-01   1.7893457612752003e-01   1.9797779149724481e-01   1.8901169053910796e-01   2.0308654858050629e-01   1.9365266832739830e-01   2.2385986561698670e-01   1.9428090050703115e-01   2.2724683259192982e-01   1.9858371111416359e-01   2.2972068558890377e-01   2.1575652278636842e-01   2.2426572014325463e-01   2.1818930204638376e-01   2.2677338039174494e-01   2.2772842846037875e-01   2.6026004805853503e-01   2.7580496758894796e-01   2.5988622236675091e-01   2.7589972463967788e-01   3.0464898754058434e-01   3.2072109438040008e-01   3.0179652672176061e-01   3.1706885218160807e-01   4.0108825434612266e-01   4.1431895931547347e-01   3.9644336544931347e-01   4.0559884128940277e-01   3.9442296646524233e-01   4.0165874072362417e-01   2.3864458959762999e-01   4.0076924344333631e-01   2.4252425372002179e-01   4.0256968669044352e-01   2.4708036848185805e-01   4.0573649182965049e-01   2.5147157306989959e-01   4.0853216790195523e-01   2.5543928870978905e-01   4.0934259343954477e-01   2.3918228546205178e-01   4.0708496169994485e-01   2.4189283462975958e-01   3.5866804710941563e-01   2.4378206985649362e-01   3.4819095699618530e-01   2.4199617323521641e-01   3.4788027858348991e-01   2.4362103545085101e-01   3.4723511589317430e-01   2.4260222835860304e-01   3.4752848321645063e-01   3.4243157994844764e-01   2.9557760161628444e-01   3.0429547642419319e-01   3.0905165082088909e-01   3.3835987176500998e-01   3.2122455766703489e-01   4.3558621803444286e-01   4.4146629924735697e-01   4.2463486842920189e-01   4.3036985380902909e-01   4.1434875156940409e-01   4.1899123541730188e-01   4.0659442943086122e-01   4.0962598660393290e-01   4.0510570307533594e-01   4.0422878749697233e-01   4.0595768962385492e-01   4.0382277942975586e-01   4.0757370737061360e-01   4.0476032844005161e-01   4.0819015010039467e-01   3.7684283584907941e-01   3.7783884831908721e-01   3.7768329615821811e-01   3.5794403485726212e-01   3.5914300306620917e-01   3.5853846894445035e-01   3.5997760515199190e-01   3.5820766603681647e-01   3.5980921016605377e-01   3.5842849602841548e-01   3.6018201703022207e-01   3.5779618431446009e-01   3.6077564657603350e-01   3.5876555378144892e-01   3.6042503913810664e-01   3.5691157677770846e-01   3.6117574571912991e-01   3.6134648042921014e-01   3.0834018392802404e-01   3.0269610534544045e-01   3.8194230020249409e-01   3.3905040400782166e-01   3.7927149039956887e-01   3.7501081742704667e-01   3.7495961299376696e-01   3.7092446507919724e-01   3.7053705504358436e-01   3.6623659009560050e-01   3.6703983711453086e-01   3.6219631739310687e-01   3.6666882240210752e-01   3.6119467657005161e-01   3.6861731835506234e-01   3.6272794866696551e-01   3.7074150217638180e-01   3.6476996686891561e-01   3.7214812517543011e-01   3.6644812322978620e-01   3.5454277810639284e-01   3.4850062440327606e-01   3.5610563252760763e-01   3.5053157581256628e-01   3.5658789485500658e-01   3.5149452274786730e-01   3.5726519530566292e-01   3.5233907913546958e-01   3.5682058791607235e-01   3.5217661457780985e-01   3.5763263183070704e-01   3.5192311554822864e-01   3.5766835855130258e-01   3.5192529700010161e-01   3.5872079533641410e-01   3.5418306578627340e-01   3.6121807806584144e-01   3.5654228797647564e-01   3.6386170112620003e-01   3.5933820670265632e-01   3.6232412498023281e-01   2.9602201778118203e-01   2.8725853344627278e-01   3.6429799324079032e-01   2.9170849222568140e-01   3.4944485789928970e-01   3.1147321639483139e-01   3.4474024839701145e-01   3.0579572756898338e-01   3.4120109841018564e-01   2.1465288536673108e-01   3.4038484742903918e-01   2.0484569818550635e-01   3.4092786903962619e-01   2.0609826237954507e-01   2.1822401828278717e-01   2.0931230151090355e-01   2.2207837130022146e-01   2.0488023991319107e-01   2.1876515036402328e-01   2.0902072088130447e-01   2.2276410642342712e-01   2.1310400650330608e-01   2.2630070135510022e-01   2.1682044150547014e-01   2.2927720075297386e-01   2.2001282192294513e-01   2.3174506072456930e-01   2.2268114530767186e-01   2.3411933152408504e-01   2.2556998968852612e-01   2.3617630112729909e-01   2.2786221604403301e-01   2.3822807933736859e-01   2.3011174001806664e-01   2.4080820849272860e-01   2.3282779268910275e-01   2.4349208365810524e-01   2.3570346414274460e-01   2.4617383039442264e-01   2.3857150158778417e-01   2.4886298376824892e-01   2.4143637414483485e-01   2.4430790540325717e-01   2.4052455656454350e-01   2.2755952920156650e-01   2.3861306536452356e-01   2.2694021238946191e-01   2.3650595864873070e-01   2.2537194819927248e-01   2.3524049173781514e-01   2.2359548052736153e-01   2.1776807060897693e-01   2.2221465681646768e-01   2.1757869539990407e-01   2.2198995765613427e-01   2.1826097668052832e-01   2.2221754428138168e-01   2.1964979049363564e-01   2.2324109867689851e-01   1.4590011568036099e-01   2.2479892308422522e-01   1.7686963057711405e-01   2.2656604518947324e-01   1.8146948980299749e-01   2.2823755659352979e-01   2.0278571676274371e-01   1.5398927255695111e-01   1.9919620920933723e-01   1.5726743072477389e-01   2.0200234333770606e-01   1.6035510623660218e-01   2.0424485195863279e-01   1.6744218890651408e-01   2.0740737190656736e-01   1.6907873613049124e-01   2.1052402672181231e-01   1.6546672744283189e-01   2.1417946087417625e-01   1.6786858164595794e-01   2.1734993970237945e-01   2.0372493129985206e-01   2.2052607722290718e-01   2.0712391173412836e-01   2.2370860599376155e-01   2.1064975219597862e-01   2.2690401097196167e-01   2.1400734858383261e-01   2.1739182854755720e-01   2.3346317907984868e-01   2.2467490693695211e-01   2.3119825771284497e-01   2.2284328115674243e-01   2.2844893209869205e-01   2.2032717565071788e-01   2.2582721634129033e-01   2.1770540194045537e-01   2.2387617954067085e-01   2.1554527246775884e-01   2.2294135427236564e-01   2.1426154157320751e-01   2.2311794339334509e-01   2.1403854105213413e-01   2.2485374351580584e-01   2.1482864212010497e-01   2.2674159691645121e-01   2.1641674740949340e-01   2.2901275122264478e-01   2.1850604960816453e-01   2.3136311253234632e-01   2.2079760477265342e-01   2.3203541156676535e-01   2.2332176184090374e-01   2.3292071455578781e-01   2.2539250880678643e-01   2.3354517045032439e-01   2.2724951074214494e-01   2.3401788521480610e-01   2.2893867259264081e-01   2.3443095101299138e-01   2.3054823363479540e-01   1.5939538566597086e-01   2.3217223002826060e-01   1.6225413204076153e-01   2.3388385809264306e-01   1.6520481485856559e-01   2.3571197082973216e-01   1.6793176045449923e-01   2.3727907475114959e-01   1.7100116990085504e-01   1.6330589830773692e-01   1.7408636162757710e-01   1.6650650689766761e-01   1.7715242222771585e-01   1.7000210187449522e-01   1.7303847395688596e-01   1.7123885367073344e-01   1.3903581704543733e-01   1.6872053864753345e-01   1.3726460568416934e-01   1.6576709149833521e-01   1.3473378573723055e-01   1.6299824868646234e-01   1.3206640833492109e-01   1.6097453305866330e-01   1.2988267150538635e-01   1.6007558393311103e-01   1.2865651193309427e-01   1.6044286763532625e-01   1.2862885542012523e-01   1.6199366353924718e-01   1.2979709046277940e-01   1.6448545838720327e-01   1.3196608149963787e-01   1.6760022748968093e-01   1.3483303795616478e-01   1.7102090893874616e-01   1.3807345231339763e-01   1.7449637263728013e-01   1.4141239434542710e-01   1.7787736795021628e-01   1.4467523315585015e-01   1.8958279496564515e-01   1.4779766222768229e-01   1.9271538398025781e-01   1.5080162351827636e-01   1.9577865965089969e-01   1.5375919156653164e-01   1.9883037377703353e-01   1.5675275496935717e-01   2.0190704026450385e-01   1.5984578175788275e-01   1.9841068421019736e-01   1.6306434747000492e-01   2.0165379066512465e-01   1.6639250579619583e-01   2.0496130493531706e-01   1.7696439242633707e-01   2.1722102187488249e-01   1.8043676470974912e-01   2.1966301765989893e-01   1.8392263444468565e-01   2.2205226044350720e-01   1.8737591494925987e-01   1.8983197799014342e-01   9.6632144922140228e-02   7.8929858439863165e-02   9.6948492041985190e-02   7.9834789445343418e-02   9.6451564474996823e-02   7.9836609314163365e-02   9.5515002655742198e-02   7.9276447406080766e-02   9.4480088674320381e-02   7.8496497925933217e-02   9.3572911995867772e-02   7.7752289988545970e-02   9.2872448441418551e-02   7.7165716009356497e-02   9.2331295147312573e-02   7.6729150910871666e-02   9.1830003904562765e-02   7.6349099384188518e-02   9.1238016611995321e-02   7.5904007622438111e-02   9.0462164066990661e-02   7.5295906471267146e-02   8.9476055733846441e-02   7.4483524755738023e-02   8.8326682957308819e-02   7.3496428539078368e-02   8.7117108206917815e-02   7.2424880606579617e-02   8.5977155395787805e-02   7.1393645684280527e-02   8.5035112467321580e-02   7.0532154129990574e-02   8.4395355038577299e-02   6.9951246150378524e-02   1.0271932794800900e-01   6.9725629679123782e-02   1.0610575608615366e-01   6.9884889827053487e-02   1.0962489007051911e-01   7.0414944659490677e-02   1.1325003727381296e-01   7.1276451892269818e-02   1.1695265451296559e-01   7.2417824246949425e-02   1.2069750761043299e-01   7.3777679411653890e-02   1.2443322609146656e-01   7.5282301450744299e-02   1.2808026879784498e-01   7.6846180261812863e-02   7.8372008277922067e-02   3.6419418612111606e-02   1.9407085183485957e-02   3.7293905508425311e-02   2.0544794910655056e-02   3.7733441737684247e-02   2.1180599670403488e-02   3.7906741968610165e-02   2.1489204535129071e-02   3.7966689445355632e-02   2.1640044970088809e-02   3.8015027958513921e-02   2.1756016120862229e-02   3.8088936861281703e-02   2.1892033420353733e-02   3.7851358790381130e-02   2.2039457738940522e-02   3.7838551026311180e-02   2.2149086725968103e-02   3.7724312924918894e-02   2.2161508043988198e-02   3.7469596731255286e-02   2.2033875899607491e-02   3.7074752831570655e-02   2.1757630548094136e-02   3.6582162968053306e-02   2.1364629233527554e-02   3.6065555966510378e-02   2.0920771401363707e-02   3.5611186454335926e-02   2.0509312745679114e-02   3.5300100624376725e-02   2.0212344663794471e-02   3.5195415353366337e-02   2.0096945355382451e-02   3.5334877436293342e-02   2.0207503985113451e-02   3.5728390240904802e-02   2.0562913810409266e-02   3.6364159831324863e-02   2.1159255575029932e-02   3.7217796318411198e-02   2.1978513139246324e-02   3.8256809628782161e-02   2.2994277447988130e-02   3.9441005019795784e-02   2.4172895206044952e-02   4.1368209045715962e-02   2.5472640560062789e-02   4.2210707884635275e-02   2.6842474530676078e-02   4.2969726453208970e-02   2.8222393357906012e-02   2.9550526821950210e-02   0.0000000000000000e+00   0.0000000000000000e+00   0.0000000000000000e+00   0.0000000000000000e+00   0.0000000000000000e+00   0.0000000000000000e+00   0.0000000000000000e+00   0.0000000000000000e+00   0.0000000000000000e+00   0.0000000000000000e+00   0.0000000000000000e+00   0.0000000000000000e+00   0.0000000000000000e+00   0.0000000000000000e+00   0.0000000000000000e+00   0.0000000000000000e+00   0.0000000000000000e+00   0.0000000000000000e+00   0.0000000000000000e+00   0.0000000000000000e+00   0.0000000000000000e+00   0.0000000000000000e+00   0.0000000000000000e+00   0.0000000000000000e+00   0.0000000000000000e+00   0.0000000000000000e+00   0.0000000000000000e+00   0.0000000000000000e+00   0.0000000000000000e+00   0.0000000000000000e+00   0.0000000000000000e+00   0.0000000000000000e+00   0.0000000000000000e+00   0.0000000000000000e+00   0.0000000000000000e+00   0.0000000000000000e+00   0.0000000000000000e+00   0.0000000000000000e+00   0.0000000000000000e+00   0.0000000000000000e+00   0.0000000000000000e+00   0.0000000000000000e+00   0.0000000000000000e+00   0.0000000000000000e+00   0.0000000000000000e+00   0.0000000000000000e+00   0.0000000000000000e+00   0.0000000000000000e+00   0.0000000000000000e+00   0.0000000000000000e+00   0.0000000000000000e+00   0.0000000000000000e+00   0.0000000000000000e+00   0.0000000000000000e+00   0.0000000000000000e+00   0.0000000000000000e+00   0.0000000000000000e+00   0.0000000000000000e+00   0.0000000000000000e+00   0.0000000000000000e+00   0.0000000000000000e+00   0.0000000000000000e+00   0.0000000000000000e+00   0.0000000000000000e+00   0.0000000000000000e+00   0.0000000000000000e+00   0.0000000000000000e+00   0.0000000000000000e+00   0.0000000000000000e+00   0.0000000000000000e+00   0.0000000000000000e+00   0.0000000000000000e+00   0.0000000000000000e+00   0.0000000000000000e+00   0.0000000000000000e+00   0.0000000000000000e+00   0.0000000000000000e+00   0.0000000000000000e+00   0.0000000000000000e+00   0.0000000000000000e+00   0.0000000000000000e+00   0.0000000000000000e+00   0.0000000000000000e+00   0.0000000000000000e+00   0.0000000000000000e+00   0.0000000000000000e+00   0.0000000000000000e+00   0.0000000000000000e+00   0.0000000000000000e+00   0.0000000000000000e+00   0.0000000000000000e+00   0.0000000000000000e+00   0.0000000000000000e+00   0.0000000000000000e+00   0.0000000000000000e+00   0.0000000000000000e+00   0.0000000000000000e+00   0.0000000000000000e+00   0.0000000000000000e+00   0.0000000000000000e+00   0.0000000000000000e+00   0.0000000000000000e+00   0.0000000000000000e+00   0.0000000000000000e+00   0.0000000000000000e+00   0.0000000000000000e+00   0.0000000000000000e+00   0.0000000000000000e+00   0.0000000000000000e+00   0.0000000000000000e+00   0.0000000000000000e+00   0.0000000000000000e+00   0.0000000000000000e+00   0.0000000000000000e+00   0.0000000000000000e+00   0.0000000000000000e+00   0.0000000000000000e+00   0.0000000000000000e+00   0.0000000000000000e+00   0.0000000000000000e+00   0.0000000000000000e+00   0.0000000000000000e+00   0.0000000000000000e+00   0.0000000000000000e+00   0.0000000000000000e+00   0.0000000000000000e+00   0.0000000000000000e+00   0.0000000000000000e+00   0.0000000000000000e+00   0.0000000000000000e+00   0.0000000000000000e+00   0.0000000000000000e+00   0.0000000000000000e+00   0.0000000000000000e+00   0.0000000000000000e+00   0.0000000000000000e+00   0.0000000000000000e+00   0.0000000000000000e+00   0.0000000000000000e+00   0.0000000000000000e+00   0.0000000000000000e+00   0.0000000000000000e+00   0.0000000000000000e+00   0.0000000000000000e+00   0.0000000000000000e+00   0.0000000000000000e+00   0.0000000000000000e+00   0.0000000000000000e+00   0.0000000000000000e+00   0.0000000000000000e+00   0.0000000000000000e+00   0.0000000000000000e+00   0.0000000000000000e+00   0.0000000000000000e+00   0.0000000000000000e+00   0.0000000000000000e+00   0.0000000000000000e+00   0.0000000000000000e+00   0.0000000000000000e+00   0.0000000000000000e+00   0.0000000000000000e+00   0.0000000000000000e+00   0.0000000000000000e+00   0.0000000000000000e+00   0.0000000000000000