<?xml version="1.0"?>
<VTKFile type="UnstructuredGrid"  version="0.1"  >
<UnstructuredGrid>
<Piece  NumberOfPoints="2444" NumberOfCells="4640">
<Points>
<DataArray  type="Float64"  NumberOfComponents="3"  format="ascii">1.891739130434782 0 0  1.9 0 0  1.9 0.008333333333333333 0  1.908260869565217 0 0  1.908260869565217 0.008333333333333333 0  1.916521739130435 0 0  1.916521739130435 0.008333333333333333 0  1.924782608695652 0 0  1.924782608695652 0.008333333333333333 0  1.933043478260869 0 0  1.933043478260869 0.008333333333333333 0  1.941304347826087 0 0  1.941304347826087 0.008333333333333333 0  1.949565217391304 0 0  1.949565217391304 0.008333333333333333 0  1.957826086956522 0 0  1.957826086956522 0.008333333333333333 0  1.966086956521739 0 0  1.966086956521739 0.008333333333333333 0  1.974347826086956 0 0  1.974347826086956 0.008333333333333333 0  1.982608695652174 0 0  1.982608695652174 0.008333333333333333 0  1.990869565217391 0 0  1.990869565217391 0.008333333333333333 0  1.999130434782608 0 0  1.999130434782608 0.008333333333333333 0  2.007391304347826 0 0  2.007391304347826 0.008333333333333333 0  2.015652173913043 0 0  2.015652173913043 0.008333333333333333 0  2.023913043478261 0 0  2.023913043478261 0.008333333333333333 0  2.032173913043478 0 0  2.032173913043478 0.008333333333333333 0  2.040434782608695 0 0  2.040434782608695 0.008333333333333333 0  2.048695652173913 0 0  2.048695652173913 0.008333333333333333 0  2.05695652173913 0 0  2.05695652173913 0.008333333333333333 0  2.065217391304348 0 0  2.065217391304348 0.008333333333333333 0  2.073478260869565 0 0  2.073478260869565 0.008333333333333333 0  2.081739130434782 0 0  2.081739130434782 0.008333333333333333 0  2.09 0 0  2.09 0.008333333333333333 0  2.098260869565217 0 0  2.098260869565217 0.008333333333333333 0  2.106521739130435 0 0  2.106521739130435 0.008333333333333333 0  2.114782608695652 0 0  2.114782608695652 0.008333333333333333 0  2.12304347826087 0 0  2.12304347826087 0.008333333333333333 0  2.131304347826087 0 0  2.131304347826087 0.008333333333333333 0  2.139565217391304 0 0  2.139565217391304 0.008333333333333333 0  2.147826086956522 0 0  2.147826086956522 0.008333333333333333 0  2.156086956521739 0 0  2.156086956521739 0.008333333333333333 0  2.164347826086956 0 0  2.164347826086956 0.008333333333333333 0  2.172608695652174 0 0  2.172608695652174 0.008333333333333333 0  2.180869565217391 0 0  2.180869565217391 0.008333333333333333 0  2.189130434782609 0 0  2.189130434782609 0.008333333333333333 0  2.197391304347826 0 0  2.197391304347826 0.008333333333333333 0  2.205652173913043 0 0  2.205652173913043 0.008333333333333333 0  2.213913043478261 0 0  2.213913043478261 0.008333333333333333 0  2.222173913043478 0 0  2.222173913043478 0.008333333333333333 0  2.230434782608695 0 0  2.230434782608695 0.008333333333333333 0  2.238695652173913 0 0  2.238695652173913 0.008333333333333333 0  2.24695652173913 0 0  2.24695652173913 0.008333333333333333 0  2.255217391304348 0 0  2.255217391304348 0.008333333333333333 0  2.263478260869565 0 0  2.263478260869565 0.008333333333333333 0  2.271739130434783 0 0  2.271739130434783 0.008333333333333333 0  2.28 0 0  2.28 0.008333333333333333 0  2.288260869565217 0 0  2.288260869565217 0.008333333333333333 0  2.296521739130434 0 0  2.296521739130434 0.008333333333333333 0  2.304782608695652 0 0  2.304782608695652 0.008333333333333333 0  2.31304347826087 0 0  2.31304347826087 0.008333333333333333 0  2.321304347826087 0 0  2.321304347826087 0.008333333333333333 0  2.329565217391304 0 0  2.329565217391304 0.008333333333333333 0  2.337826086956521 0 0  2.337826086956521 0.008333333333333333 0  2.346086956521739 0 0  2.346086956521739 0.008333333333333333 0  2.354347826086956 0 0  2.354347826086956 0.008333333333333333 0  2.362608695652174 0 0  2.362608695652174 0.008333333333333333 0  2.370869565217391 0 0  2.370869565217391 0.008333333333333333 0  2.379130434782609 0 0  2.379130434782609 0.008333333333333333 0  2.387391304347826 0 0  2.387391304347826 0.008333333333333333 0  2.395652173913044 0 0  2.395652173913044 0.008333333333333333 0  2.403913043478261 0 0  2.403913043478261 0.008333333333333333 0  2.412173913043478 0 0  2.412173913043478 0.008333333333333333 0  2.420434782608695 0 0  2.420434782608695 0.008333333333333333 0  2.428695652173913 0 0  2.428695652173913 0.008333333333333333 0  2.43695652173913 0 0  2.43695652173913 0.008333333333333333 0  2.445217391304348 0 0  2.445217391304348 0.008333333333333333 0  2.453478260869565 0 0  2.453478260869565 0.008333333333333333 0  2.461739130434782 0 0  2.461739130434782 0.008333333333333333 0  2.47 0 0  2.47 0.008333333333333333 0  2.478260869565217 0 0  2.478260869565217 0.008333333333333333 0  2.486521739130435 0 0  2.486521739130435 0.008333333333333333 0  2.494782608695652 0 0  2.494782608695652 0.008333333333333333 0  2.503043478260869 0 0  2.503043478260869 0.008333333333333333 0  2.511304347826087 0 0  2.511304347826087 0.008333333333333333 0  2.519565217391305 0 0  2.519565217391305 0.008333333333333333 0  2.527826086956522 0 0  2.527826086956522 0.008333333333333333 0  2.536086956521739 0 0  2.536086956521739 0.008333333333333333 0  2.544347826086956 0 0  2.544347826086956 0.008333333333333333 0  2.552608695652174 0 0  2.552608695652174 0.008333333333333333 0  2.560869565217391 0 0  2.560869565217391 0.008333333333333333 0  2.569130434782608 0 0  2.569130434782608 0.008333333333333333 0  2.577391304347826 0 0  2.577391304347826 0.008333333333333333 0  2.585652173913043 0 0  2.585652173913043 0.008333333333333333 0  2.593913043478261 0 0  2.593913043478261 0.008333333333333333 0  2.602173913043478 0 0  2.602173913043478 0.008333333333333333 0  2.610434782608696 0 0  2.610434782608696 0.008333333333333333 0  2.618695652173913 0 0  2.618695652173913 0.008333333333333333 0  2.62695652173913 0 0  2.62695652173913 0.008333333333333333 0  2.635217391304348 0 0  2.635217391304348 0.008333333333333333 0  2.643478260869565 0 0  2.643478260869565 0.008333333333333333 0  2.651739130434783 0.008333333333333333 0  1.908260869565217 0.01666666666666667 0  1.916521739130435 0.01666666666666667 0  1.924782608695652 0.01666666666666667 0  1.933043478260869 0.01666666666666667 0  1.941304347826087 0.01666666666666667 0  1.949565217391304 0.01666666666666667 0  1.957826086956522 0.01666666666666667 0  1.966086956521739 0.01666666666666667 0  1.974347826086956 0.01666666666666667 0  1.982608695652174 0.01666666666666667 0  1.990869565217391 0.01666666666666667 0  1.999130434782608 0.01666666666666667 0  2.007391304347826 0.01666666666666667 0  2.015652173913043 0.01666666666666667 0  2.023913043478261 0.01666666666666667 0  2.032173913043478 0.01666666666666667 0  2.040434782608695 0.01666666666666667 0  2.048695652173913 0.01666666666666667 0  2.05695652173913 0.01666666666666667 0  2.065217391304348 0.01666666666666667 0  2.073478260869565 0.01666666666666667 0  2.081739130434782 0.01666666666666667 0  2.09 0.01666666666666667 0  2.098260869565217 0.01666666666666667 0  2.106521739130435 0.01666666666666667 0  2.114782608695652 0.01666666666666667 0  2.12304347826087 0.01666666666666667 0  2.131304347826087 0.01666666666666667 0  2.139565217391304 0.01666666666666667 0  2.147826086956522 0.01666666666666667 0  2.156086956521739 0.01666666666666667 0  2.164347826086956 0.01666666666666667 0  2.172608695652174 0.01666666666666667 0  2.180869565217391 0.01666666666666667 0  2.189130434782609 0.01666666666666667 0  2.197391304347826 0.01666666666666667 0  2.205652173913043 0.01666666666666667 0  2.213913043478261 0.01666666666666667 0  2.222173913043478 0.01666666666666667 0  2.230434782608695 0.01666666666666667 0  2.238695652173913 0.01666666666666667 0  2.24695652173913 0.01666666666666667 0  2.255217391304348 0.01666666666666667 0  2.263478260869565 0.01666666666666667 0  2.271739130434783 0.01666666666666667 0  2.28 0.01666666666666667 0  2.288260869565217 0.01666666666666667 0  2.296521739130434 0.01666666666666667 0  2.304782608695652 0.01666666666666667 0  2.31304347826087 0.01666666666666667 0  2.321304347826087 0.01666666666666667 0  2.329565217391304 0.01666666666666667 0  2.337826086956521 0.01666666666666667 0  2.346086956521739 0.01666666666666667 0  2.354347826086956 0.01666666666666667 0  2.362608695652174 0.01666666666666667 0  2.370869565217391 0.01666666666666667 0  2.379130434782609 0.01666666666666667 0  2.387391304347826 0.01666666666666667 0  2.395652173913044 0.01666666666666667 0  2.403913043478261 0.01666666666666667 0  2.412173913043478 0.01666666666666667 0  2.420434782608695 0.01666666666666667 0  2.428695652173913 0.01666666666666667 0  2.43695652173913 0.01666666666666667 0  2.445217391304348 0.01666666666666667 0  2.453478260869565 0.01666666666666667 0  2.461739130434782 0.01666666666666667 0  2.47 0.01666666666666667 0  2.478260869565217 0.01666666666666667 0  2.486521739130435 0.01666666666666667 0  2.494782608695652 0.01666666666666667 0  2.503043478260869 0.01666666666666667 0  2.511304347826087 0.01666666666666667 0  2.519565217391305 0.01666666666666667 0  2.527826086956522 0.01666666666666667 0  2.536086956521739 0.01666666666666667 0  2.544347826086956 0.01666666666666667 0  2.552608695652174 0.01666666666666667 0  2.560869565217391 0.01666666666666667 0  2.569130434782608 0.01666666666666667 0  2.577391304347826 0.01666666666666667 0  2.585652173913043 0.01666666666666667 0  2.593913043478261 0.01666666666666667 0  2.602173913043478 0.01666666666666667 0  2.610434782608696 0.01666666666666667 0  2.618695652173913 0.01666666666666667 0  2.62695652173913 0.01666666666666667 0  2.635217391304348 0.01666666666666667 0  2.643478260869565 0.01666666666666667 0  2.651739130434783 0.01666666666666667 0  1.916521739130435 0.025 0  1.924782608695652 0.025 0  1.933043478260869 0.025 0  1.941304347826087 0.025 0  1.949565217391304 0.025 0  1.957826086956522 0.025 0  1.966086956521739 0.025 0  1.974347826086956 0.025 0  1.98260869565217
[...]
<CellData  Scalars="rho_bar"> 
<DataArray  type="Float64"  Name="rho_bar"  format="ascii">9.5426478392631386e-01   9.5317293797164138e-01   9.4910126593644872e-01   9.5262124567018369e-01   9.4834509420229496e-01   9.5245976991063230e-01   9.4806351631963526e-01   9.5256189792439616e-01   9.4810961527719040e-01   9.5282527366827208e-01   9.4836266314135675e-01   9.5317356528154329e-01   9.4873061587482699e-01   9.5355226583350794e-01   9.4914602351038824e-01   9.5392775607783598e-01   9.4956596037989005e-01   9.5428022607202956e-01   9.4996478927371875e-01   9.5459901920171197e-01   9.5033008240426120e-01   9.5487107200416732e-01   9.5064987671816570e-01   9.5507721759924424e-01   9.5090643451089174e-01   9.5519190711435253e-01   9.5107249146422834e-01   9.5519395861811995e-01   9.5112137985842649e-01   9.5507249408813299e-01   9.5103507739318061e-01   9.5483462852280254e-01   9.5081363065421809e-01   9.5450900274864225e-01   9.5047887646834239e-01   9.5415051766736647e-01   9.5008206138842310e-01   9.5382963372046115e-01   9.4969752348256875e-01   9.5361927419292858e-01   9.4940857696085301e-01   9.5357912075252083e-01   9.4928785078367217e-01   9.5375168645074104e-01   9.4938914150454834e-01   9.5416121634311868e-01   9.4974450400198274e-01   9.5481958296049196e-01   9.5037111768616211e-01   9.5572412260988193e-01   9.5127133909552153e-01   9.5685797249124183e-01   9.5243277333723741e-01   9.5818719313941669e-01   9.5382428075828984e-01   9.5966535501516859e-01   9.5539915853580759e-01   9.6123605149850055e-01   9.5709780027497038e-01   9.6284014488761294e-01   9.5885538242778656e-01   9.6442057698272543e-01   9.6060670300844608e-01   9.6593276811984119e-01   9.6229709558733667e-01   9.6734607998811861e-01   9.6388745367911832e-01   9.6864176599201279e-01   9.6535425832493615e-01   9.6980517504003261e-01   9.6668093026399127e-01   9.7082389292254534e-01   9.6785360735617221e-01   9.7168541840436784e-01   9.6885818943394508e-01   9.7237968308503220e-01   9.6968235014248227e-01   9.7289949896079020e-01   9.7031648740298415e-01   9.7324520167986994e-01   9.7075752145030336e-01   9.7342514776129718e-01   9.7101115563349127e-01   9.7345779532333965e-01   9.7109373804715537e-01   9.7337201295950559e-01   9.7103270847051470e-01   9.7320906691026854e-01   9.7086909720298142e-01   9.7302116512415038e-01   9.7065619665736913e-01   9.7287215049172049e-01   9.7046036454677775e-01   9.7283419973399687e-01   9.7035789077231682e-01   9.7298815084149959e-01   9.7043472395339014e-01   9.7341905284334507e-01   9.7078333466679834e-01   9.7420858074886885e-01   9.7149681255969722e-01   9.7541999387284883e-01   9.7265366732817060e-01   9.7708579330586354e-01   9.7430325778743843e-01   9.7919518800988414e-01   9.7645124485350598e-01   9.8168710650147295e-01   9.7905050963820106e-01   9.8444358946666266e-01   9.8199276587869855e-01   9.8729582785223469e-01   9.8510925983745024e-01   9.9004883893588269e-01   9.8818961069941846e-01   9.9252337587616024e-01   9.9102393443270509e-01   9.9459429303666358e-01   9.9344956518756755e-01   9.9621262539297106e-01   9.9538357014014922e-01   9.9740181653961024e-01   9.9682812329620063e-01   9.9823275425646307e-01   9.9784913765172811e-01   9.9879231836498217e-01   9.9854106451693470e-01   9.9916058417777376e-01   9.9899717465144877e-01   9.9940027099385131e-01   9.9929349473418971e-01   9.9955576738025786e-01   9.9948506723273745e-01   9.9965652484921774e-01   9.9960884408050954e-01   9.9972134369158761e-01   9.9968854380260652e-01   9.9976187120684967e-01   9.9973892671969333e-01   9.9978508572092395e-01   9.9976892108306548e-01   9.9979483820070003e-01   9.9978362079318872e-01   9.9979274418155850e-01   9.9978547507124949e-01   9.9977855257895032e-01   9.9977485574306590e-01   9.9975012819824127e-01   9.9975017561169233e-01   9.9970300589975847e-01   9.9970755957018387e-01   9.9962947128586277e-01   9.9964003677792113e-01   9.9951695488099390e-01   9.9953605089223496e-01   9.9934556006268638e-01   9.9937710500151544e-01   9.9908443899933752e-01   9.9913417954218664e-01   9.9868714126499403e-01   9.9876290949670898e-01   9.9808658272153783e-01   9.9819782817180391e-01   9.9719220763568428e-01   9.9734778978678629e-01   9.9589343865146873e-01   9.9609649368571818e-01   9.9407448780931396e-01   9.9431418982571218e-01   9.9164149150685388e-01   9.9188356527215393e-01   9.8855645734578124e-01   9.8873710488755739e-01   9.8486297535511447e-01   9.8489103813212353e-01   9.8069247863638309e-01   9.8046076022046658e-01   9.7624518582336917e-01   9.7564778921313333e-01   9.7175376906569633e-01   9.7070426177584479e-01   9.6588519915651772e-01   9.2583295144461764e-01   9.2513710523206005e-01   9.0325223284056089e-01   9.2502218222467536e-01   9.0297969031112812e-01   9.2529243153940954e-01   9.0326121260149861e-01   9.2579216920700336e-01   9.0388359529258988e-01   9.2640091861658114e-01   9.0467816559971159e-01   9.2703732553306351e-01   9.0552516856671161e-01   9.2765329847295164e-01   9.0635099580171163e-01   9.2822831850488152e-01   9.0712425790037055e-01   9.2875242017117621e-01   9.0783461396307175e-01   9.2921145439553876e-01   9.0847332799193137e-01   9.2957065726787169e-01   9.0900644418101384e-01   9.2978138434622537e-01   9.0937259748273713e-01   9.2979989140360886e-01   9.0950301740179162e-01   9.2960391561982592e-01   9.0935319694146111e-01   9.2919506329670287e-01   9.0890835205985088e-01   9.2861817963509818e-01   9.0820166222606391e-01   9.2796918266011685e-01   9.0733495563252198e-01   9.2738055761319504e-01   9.0647669443039214e-01   9.2698167376469942e-01   9.0581152724791980e-01   9.2687304610844379e-01   9.0549279247828307e-01   9.2711533043156291e-01   9.0561571549573272e-01   9.2774380728230399e-01   9.0623215724277728e-01   9.2877584066862173e-01   9.0736889359198813e-01   9.3021275853820695e-01   9.0903778327941986e-01   9.3202839541376903e-01   9.1122053206372766e-01   9.3416997731547313e-01   9.1386275577302356e-01   9.3655881042129396e-01   9.1687226008388134e-01   9.3910179232173618e-01   9.2013216456556901e-01   9.4169678435176640e-01   9.2350902752418573e-01   9.4424836207449514e-01   9.2687079723532617e-01   9.4668129832643289e-01   9.3010513683680340e-01   9.4895114203304143e-01   9.3314064779295358e-01   9.5103160071794646e-01   9.3593886490453071e-01   9.5290342108523118e-01   9.3847618873085115e-01   9.5454368864831274e-01   9.4072488867575998e-01   9.5592970998195159e-01   9.4265314696050173e-01   9.5704049488894227e-01   9.4422893685626008e-01   9.5786404816334203e-01   9.4543010334127897e-01   9.5839730460905881e-01   9.4624627938340145e-01   9.5865257629011591e-01   9.4668487347004782e-01   9.5865778652449007e-01   9.4677347603841111e-01   9.5846138511318957e-01   9.4656591300989756e-01   9.5813099234793497e-01   9.4614248169066184e-01   9.5775464954523482e-01   9.4561135578494127e-01   9.5743551104115721e-01   9.4510216221839394e-01   9.5729081547968486e-01   9.4476313696774961e-01   9.5745016142908879e-01   9.4475763554939096e-01   9.5805623038126952e-01   9.4526888033646017e-01   9.5924603398725872e-01   9.4648508926146524e-01   9.6112757103783264e-01   9.4856922999012117e-01   9.6375581016214962e-01   9.5162345602704768e-01   9.6711953585091825e-01   9.5566943785331471e-01   9.7112456134007330e-01   9.6062784706872262e-01   9.7558121654482621e-01   9.6629792801855474e-01   9.8020506911339134e-01   9.7234336768367047e-01   9.8466251987495446e-01   9.7832895366692085e-01   9.8864430222342914e-01   9.8381161668244643e-01   9.9193874665891701e-01   9.8844989914078352e-01   9.9447062139163189e-01   9.9207878366282320e-01   9.9629258071924975e-01   9.9472101389330025e-01   9.9753578513118024e-01   9.9653242531222375e-01   9.9835275929116019e-01   9.9772027187536760e-01   9.9887790298313239e-01   9.9847803513803990e-01   9.9921243476717381e-01   9.9895547717937139e-01   9.9942539262400976e-01   9.9925579108996010e-01   9.9956118669430261e-01   9.9944529801310023e-01   9.9964737694957095e-01   9.9956492318885160e-01   9.9970067072879121e-01   9.9963933159641005e-01   9.9973086852653015e-01   9.9968301680179084e-01   9.9974330387605048e-01   9.9970407449386955e-01   9.9974014901182906e-01   9.9970629779517683e-01   9.9972098304747059e-01   9.9969018458055359e-01   9.9968271232823358e-01   9.9965308977730205e-01   9.9961889430591488e-01   9.9958863389984487e-01   9.9951825083774903e-01   9.9948516784710084e-01   9.9936211638540351e-01   9.9932300045536615e-01   9.9912026899768858e-01   9.9906969853916638e-01   9.9874473816758802e-01   9.9867279040462420e-01   9.9816122695227694e-01   9.9804907407679755e-01   9.9725933194835970e-01   9.9707106047414595e-01   9.9588554792459960e-01   9.9555400716273834e-01   9.9384788496873433e-01   9.9325375406990357e-01   9.9094189485298267e-01   9.8988999547898726e-01   9.8700296545586674e-01   9.8520771300589149e-01   9.8196951642101127e-01   9.7906616562718618e-01   9.7592925678007247e-01   9.7151817827540654e-01   9.6912322773793458e-01   9.6283503008726501e-01   9.6190679486437725e-01   9.5346633493382460e-01   9.5467881061040782e-01   9.4394821390797534e-01   9.4780891608737416e-01   9.3479853358279263e-01   8.0979523605702508e-01   8.1003667621786257e-01   7.2694373276394486e-01   8.1107622682103775e-01   7.2820183637637437e-01   8.1256876354222174e-01   7.3017078740138108e-01   8.1423024685712964e-01   7.3245400669470373e-01   8.1586808472940964e-01   7.3474304976123184e-01   8.1740252974893346e-01   7.3688554834696829e-01   8.1882026192393265e-01   7.3885519499741159e-01   8.2013880279210638e-01   7.4068764086229932e-01   8.2135522441346820e-01   7.4241307626264408e-01   8.2238113081744613e-01   7.4396898025760605e-01   8.2304518131383886e-01   7.4514170806855562e-01   8.2320070450746108e-01   7.4568062551473180e-01   8.2275782775951722e-01   7.4541267072255857e-01   8.2168064791552942e-01   7.4424683983546447e-01   8.2004629741596791e-01   7.4220322850342590e-01   8.1813202557023812e-01   7.3955911897282844e-01   8.1634763179551684e-01   7.3685479019764166e-01   8.1508753671519174e-01   7.3469899141406014e-01   8.1460559642547126e-01   7.3353383966497621e-01   8.1501554184331082e-01   7.3356573142270920e-01   8.1636472259538928e-01   7.3485247534756160e-01   8.1870857958569032e-01   7.3745239619769842e-01   8.2207977009209299e-01   7.4144101125986450e-01   8.2644764572571650e-01   7.4683944907024824e-01   8.3169327990764041e-01   7.5354872277224683e-01   8.3762997517475823e-01   7.6135951418507974e-01   8.4401665439364804e-01   7.6997160943147269e-01   8.5058221712710524e-01   7.7902487755027239e-01   8.5705359693154159e-01   7.8812502100277637e-01   8.6322802815262678e-01   7.9693411957815175e-01   8.6899866710474394e-01   8.0524687452335264e-01   8.7432582630278510e-01   8.1298788468452121e-01   8.7916694376391935e-01   8.2011099695594947e-01   8.8344705410539670e-01   8.2652208743063649e-01   8.8707162156675978e-01   8.3206934310843206e-01   8.8996558922131574e-01   8.3660976649935914e-01   8.9207810130553644e-01   8.4003975773525807e-01   8.9338895184233225e-01   8.4230371642405000e-01   8.9391107483567533e-01   8.4338941322250072e-01   8.9371255943868444e-01   8.4335795251018941e-01   8.9292171628200945e-01   8.4236121969603883e-01   8.9173517849791328e-01   8.4065772859120125e-01   8.9039955656824277e-01   8.3859256379849656e-01   8.8919901484316932e-01   8.3657129898800320e-01   8.8843285687329177e-01   8.3502129949146020e-01   8.8843573701640211e-01   8.3439933117454068e-01   8.8959795396023422e-01   8.3523699226566095e-01   8.9232226897408318e-01   8.3813633441963586e-01   8.9692808074361374e-01   8.4364155380152894e-01   9.0360147001273550e-01   8.5213327089429913e-01   9.1236774318109071e-01   8.6378475026651724e-01   9.2305151389236684e-01   8.7852426072519807e-01   9.3518855052919425e-01   8.9590379055196123e-01   9.4797849125817246e-01   9.1494812834981565e-01   9.6039422404270791e-01   9.3417465831716362e-01   9.7144489307909709e-01   9.5192726739924205e-01   9.8044154739071854e-01   9.6684948652062030e-01   9.8715736116422437e-01   9.7826433041126681e-01   9.9179798120666363e-01   9.8626477922958311e-01   9.9481528717414247e-01   9.9148103688033795e-01   9.9669874606765130e-01   9.9471189673316951e-01   9.9785011307219873e-01   9.9665630844283615e-01   9.9855027873408775e-01   9.9781544701912028e-01   9.9897807007253558e-01   9.9850904220942238e-01   9.9924143394693521e-01   9.9892813816600146e-01   9.9940382795839089e-01   9.9918328077814333e-01   9.9950190510502046e-01   9.9933738779781767e-01   9.9955637378940676e-01   9.9942574370470827e-01   9.9957812090381193e-01   9.9946727928453494e-01   9.9957143229704737e-01   9.9947057920519777e-01   9.9953521482134222e-01   9.9943650565304443e-01   9.9946279601504284e-01   9.9935856496734199e-01   9.9934013265198729e-01   9.9922109446363350e-01   9.9914201579221051e-01   9.9899478777684725e-01   9.9882508366480161e-01   9.9862803375225739e-01   9.9831597311246556e-01   9.9803166690837342e-01   9.9749202482937338e-01   9.9705306102935165e-01   9.9615246746831210e-01   9.9543516035746160e-01   9.9398063321860908e-01   9.9275778145534344e-01   9.9051070067502212e-01   9.8837301177438464e-01   9.8513231940487023e-01   9.8137876049938022e-01   9.7718367610302326e-01   9.7071632723864743e-01   9.6615753215980549e-01   9.5546766303549879e-01   9.5195271156717409e-01   9.3529896845466642e-01   9.3501107402876027e-01   9.1078006342926254e-01   9.1626050009195170e-01   8.8333767157550036e-01   8.9689688160185688e-01   8.5487514078958948e-01   8.7811710804999688e-01   8.2729358480954163e-01   8.6088226878728435e-01   8.0209678592065081e-01   7.8020233482391987e-01   4.6955650137860266e-01   4.7158461429743637e-01   3.2000999264208957e-01   4.7439389422639328e-01   3.2225054222689037e-01   4.7746257701264416e-01   3.2492449069184404e-01   4.8040013163196138e-01   3.2759589656359328e-01   4.8308445921007009e-01   3.3004322759250043e-01   4.8556219920309163e-01   3.3228276753443436e-01   4.8792362928367866e-01   3.3440836180108896e-01   4.9025565777514130e-01   3.3653097688482297e-01   4.9242865456537310e-01   3.3864510584445784e-01   4.9402211903357113e-01   3.4044154398194304e-01   4.9463457035499125e-01   3.4145752019093673e-01   4.9401838333859510e-01   3.4137361429731294e-01   4.9200817761007726e-01   3.3998616227814815e-01   4.8866751625471061e-01   3.3723364987233634e-01   4.8454720290637127e-01   3.3344787927558156e-01   4.8058997057350961e-01   3.2945067586344950e-01   4.7768629099098986e-01   3.2618312629171720e-01   4.7634291401148943e-01   3.2428376923995594e-01   4.7667022581901597e-01   3.2394619645961947e-01   4.7865215712602888e-01   3.2512637396466132e-01   4.8240049109340882e-01   3.2784821346667209e-01   4.8810520674884800e-01   3.3230795964027920e-01   4.9584899415917355e-01   3.3868704255368670e-01   5.0554724907989801e-01   3.4702854611309114e-01   5.1695173522256443e-01   3.5721259931074734e-01   5.2968592904059786e-01   3.6898763483029290e-01   5.4323368222462132e-01   3.8195357998877039e-01   5.5700092209607677e-01   3.9557560998532043e-01   5.7047986497606251e-01   4.0929287320739477e-01   5.8340506717262663e-01   4.2272914750209289e-01   5.9570399722336820e-01   4.3574815799233946e-01   6.0730406877414100e-01   4.4831029343625228e-01   6.1791423418250957e-01   4.6018379262357406e-01   6.2711505483184082e-01   4.7087600802705187e-01   6.3455883568263849e-01   4.7986109657780801e-01   6.4001476995352913e-01   4.8676623283759785e-01   6.4332338866984029e-01   4.9132753940285823e-01   6.4443014172297231e-01   4.9338680419796643e-01   6.4346403641328975e-01   4.9297329173123006e-01   6.4078998840735313e-01   4.9041060109935480e-01   6.3700288391235571e-01   4.8632014072844088e-01   6.3285487912580551e-01   4.8155908685209725e-01   6.2912735913222495e-01   4.7704555761963996e-01   6.2656948316775618e-01   4.7364115031630177e-01   6.2594820081859337e-01   4.7214549282256246e-01   6.2824165937177767e-01   4.7350780389937425e-01   6.3459469001601265e-01   4.7896178735404432e-01   6.4608175918869681e-01   4.8986627332013227e-01   6.6358516529107348e-01   5.0752135484803196e-01   6.8784048524959451e-01   5.3324790555705825e-01   7.1931891901910217e-01   5.6843634406070953e-01   7.5778238074014226e-01   6.1421036669428808e-01   8.0158352618324913e-01   6.7046664108013421e-01   8.4733494960871558e-01   7.3462474584995630e-01   8.9049607541800813e-01   8.0105102259738648e-01   9.2684276363749418e-01   8.6222103572312048e-01   9.5405986925097863e-01   9.1163688326546444e-01   9.7236459968155786e-01   9.4669663294287809e-01   9.8368081578563460e-01   9.6897372821579419e-01   9.9030876993148398e-01   9.8207083357903746e-01   9.9409504230566070e-01   9.8945303788915051e-01   9.9625179410320075e-01   9.9356209744237822e-01   9.9749330640539158e-01   9.9586509340946228e-01   9.9821911836141941e-01   9.9717739260997418e-01   9.9864782634794791e-01   9.9793737031749630e-01   9.9889801330536476e-01   9.9837822506168927e-01   9.9903305612627091e-01   9.9862297725036320e-01   9.9908491547894474e-01   9.9873448331432513e-01   9.9906552234109947e-01   9.9873998228179117e-01   9.9897100140023054e-01   9.9864135737825499e-01   9.9878047003346548e-01   9.9841592295448867e-01   9.9844933911115663e-01   9.9800873942377466e-01   9.9789421244625187e-01   9.9731301792086524e-01   9.9696388053563711e-01   9.9613070775223123e-01   9.9538583889358712e-01   9.9409735368213092e-01   9.9267364783739009e-01   9.9054675002867454e-01   9.8797751866123440e-01   9.8428404430606842e-01   9.7987923650551623e-01   9.7325755428035365e-01   9.6621961538639245e-01   9.5424329708611177e-01   9.4424198904118839e-01   9.2300126385310899e-01   9.1144423197392199e-01   8.7568133386018421e-01   8.6711822580942599e-01   8.1159278532275225e-01   8.1349610765754377e-01   7.3528206974234367e-01   7.5521307616692035e-01   6.5515528018827507e-01   6.9744138775210862e-01   5.7946305209401783e-01   6.4428996839219566e-01   5.1344494250389572e-01   5.9820632553105868e-01   4.5907479166473947e-01   5.6006934382528495e-01   4.1610306602938268e-01   5.2960483227336752e-01   3.8309524874092155e-01   3.5822966201393414e-01   1.0911991825979132e-01   1.0991612868572431e-01   5.6219090617335092e-02   1.1092815458079407e-01   5.6560467572212766e-02   1.1193773937965268e-01   5.6969776499372335e-02   1.1285852055500907e-01   5.7358546099303589e-02   1.1371682327031996e-01   5.7720005981027021e-02   1.1456763501930295e-01   5.8080965676371131e-02   1.1546902150021682e-01   5.8469560055974680e-02   1.1640730717786094e-01   5.8904827296886064e-02   1.1718628302457862e-01   5.9324684256074775e-02   1.1756026535541091e-01   5.9587342285019114e-02   1.1736627771725128e-01   5.9580318094907082e-02   1.1649575966646808e-01   5.9235994108181547e-02   1.1494071860809732e-01   5.8519388024774438e-02   1.1293798017317379e-01   5.7497474000467320e-02   1.1094884667229907e-01   5.6380626534666710e-02   1.0943149779928726e-01   5.5434015859520396e-02   1.0863999915351159e-01   5.4842884918808260e-02   1.0860992238898536e-01   5.4665949226544851e-02   1.0928967627689241e-01   5.4879585601938737e-02   1.1070664829918388e-01   5.5470636194039975e-02   1.1298425792630470e-01   5.6490329785313653e-02   1.1623589147083502e-01   5.8013282344254687e-02   1.2050844103926130e-01   6.0084432231710075e-02   1.2578111617854840e-01   6.2714214603459009e-02   1.3196791260198290e-01   6.5878511194157482e-02   1.3889525273488831e-01   6.9514531065637486e-02   1.4630047000385729e-01   7.3504617502320416e-02   1.5391072014221047e-01   7.7701064671289163e-02   1.6154658076558973e-01   8.1980623831533914e-02   1.6915753775586415e-01   8.6290211164068112e-02   1.7672898687556732e-01   9.0627411284731882e-02   1.8407335046735793e-01   9.4947233555272639e-02   1.9078267486103903e-01   9.9052536459858967e-02   1.9644820260301329e-01   1.0267369063703297e-01   2.0077197032347849e-01   1.0559499627755124e-01   2.0353095361805548e-01   1.0766172554704820e-01   2.04584659