<?xml version="1.0"?>
<VTKFile type="UnstructuredGrid"  version="0.1"  >
<UnstructuredGrid>
<Piece  NumberOfPoints="2356" NumberOfCells="4511">
<Points>
<DataArray  type="Float64"  NumberOfComponents="3"  format="ascii">0.718695652173913 0 0  0.7269565217391304 0 0  0.7269565217391304 0.008333333333333333 0  0.7352173913043478 0 0  0.7352173913043478 0.008333333333333333 0  0.7434782608695653 0 0  0.7434782608695653 0.008333333333333333 0  0.7517391304347827 0 0  0.7517391304347827 0.008333333333333333 0  0.7599999999999999 0 0  0.7599999999999999 0.008333333333333333 0  0.7682608695652173 0 0  0.7682608695652173 0.008333333333333333 0  0.7765217391304348 0 0  0.7765217391304348 0.008333333333333333 0  0.7847826086956522 0 0  0.7847826086956522 0.008333333333333333 0  0.7930434782608695 0 0  0.7930434782608695 0.008333333333333333 0  0.8013043478260868 0 0  0.8013043478260868 0.008333333333333333 0  0.8095652173913043 0 0  0.8095652173913043 0.008333333333333333 0  0.8178260869565217 0 0  0.8178260869565217 0.008333333333333333 0  0.8260869565217391 0 0  0.8260869565217391 0.008333333333333333 0  0.8343478260869565 0 0  0.8343478260869565 0.008333333333333333 0  0.8426086956521739 0 0  0.8426086956521739 0.008333333333333333 0  0.8508695652173912 0 0  0.8508695652173912 0.008333333333333333 0  0.8591304347826086 0 0  0.8591304347826086 0.008333333333333333 0  0.8673913043478261 0 0  0.8673913043478261 0.008333333333333333 0  0.8756521739130434 0 0  0.8756521739130434 0.008333333333333333 0  0.8839130434782608 0 0  0.8839130434782608 0.008333333333333333 0  0.8921739130434783 0 0  0.8921739130434783 0.008333333333333333 0  0.9004347826086956 0 0  0.9004347826086956 0.008333333333333333 0  0.908695652173913 0 0  0.908695652173913 0.008333333333333333 0  0.9169565217391303 0 0  0.9169565217391303 0.008333333333333333 0  0.9252173913043478 0 0  0.9252173913043478 0.008333333333333333 0  0.9334782608695652 0 0  0.9334782608695652 0.008333333333333333 0  0.9417391304347826 0 0  0.9417391304347826 0.008333333333333333 0  0.95 0 0  0.95 0.008333333333333333 0  0.9582608695652173 0 0  0.9582608695652173 0.008333333333333333 0  0.9665217391304347 0 0  0.9665217391304347 0.008333333333333333 0  0.9747826086956521 0 0  0.9747826086956521 0.008333333333333333 0  0.9830434782608696 0 0  0.9830434782608696 0.008333333333333333 0  0.991304347826087 0 0  0.991304347826087 0.008333333333333333 0  0.9995652173913042 0 0  0.9995652173913042 0.008333333333333333 0  1.007826086956522 0 0  1.007826086956522 0.008333333333333333 0  1.016086956521739 0 0  1.016086956521739 0.008333333333333333 0  1.024347826086957 0 0  1.024347826086957 0.008333333333333333 0  1.032608695652174 0 0  1.032608695652174 0.008333333333333333 0  1.040869565217391 0 0  1.040869565217391 0.008333333333333333 0  1.049130434782609 0 0  1.049130434782609 0.008333333333333333 0  1.057391304347826 0 0  1.057391304347826 0.008333333333333333 0  1.065652173913043 0 0  1.065652173913043 0.008333333333333333 0  1.073913043478261 0 0  1.073913043478261 0.008333333333333333 0  0.7352173913043478 0.01666666666666667 0  0.7434782608695653 0.01666666666666667 0  0.7517391304347827 0.01666666666666667 0  0.7599999999999999 0.01666666666666667 0  0.7682608695652173 0.01666666666666667 0  0.7765217391304348 0.01666666666666667 0  0.7847826086956522 0.01666666666666667 0  0.7930434782608695 0.01666666666666667 0  0.8013043478260868 0.01666666666666667 0  0.8095652173913043 0.01666666666666667 0  0.8178260869565217 0.01666666666666667 0  0.8260869565217391 0.01666666666666667 0  0.8343478260869565 0.01666666666666667 0  0.8426086956521739 0.01666666666666667 0  0.8508695652173912 0.01666666666666667 0  0.8591304347826086 0.01666666666666667 0  0.8673913043478261 0.01666666666666667 0  0.8756521739130434 0.01666666666666667 0  0.8839130434782608 0.01666666666666667 0  0.8921739130434783 0.01666666666666667 0  0.9004347826086956 0.01666666666666667 0  0.908695652173913 0.01666666666666667 0  0.9169565217391303 0.01666666666666667 0  0.9252173913043478 0.01666666666666667 0  0.9334782608695652 0.01666666666666667 0  0.9417391304347826 0.01666666666666667 0  0.95 0.01666666666666667 0  0.9582608695652173 0.01666666666666667 0  0.9665217391304347 0.01666666666666667 0  0.9747826086956521 0.01666666666666667 0  0.9830434782608696 0.01666666666666667 0  0.991304347826087 0.01666666666666667 0  0.9995652173913042 0.01666666666666667 0  1.007826086956522 0.01666666666666667 0  1.016086956521739 0.01666666666666667 0  1.024347826086957 0.01666666666666667 0  1.032608695652174 0.01666666666666667 0  1.040869565217391 0.01666666666666667 0  1.049130434782609 0.01666666666666667 0  1.057391304347826 0.01666666666666667 0  1.065652173913043 0.01666666666666667 0  1.073913043478261 0.01666666666666667 0  1.082173913043478 0.01666666666666667 0  0.7434782608695653 0.025 0  0.7517391304347827 0.025 0  0.7599999999999999 0.025 0  0.7682608695652173 0.025 0  0.7765217391304348 0.025 0  0.7847826086956522 0.025 0  0.7930434782608695 0.025 0  0.8013043478260868 0.025 0  0.8095652173913043 0.025 0  0.8178260869565217 0.025 0  0.8260869565217391 0.025 0  0.8343478260869565 0.025 0  0.8426086956521739 0.025 0  0.8508695652173912 0.025 0  0.8591304347826086 0.025 0  0.8673913043478261 0.025 0  0.8756521739130434 0.025 0  0.8839130434782608 0.025 0  0.8921739130434783 0.025 0  0.9004347826086956 0.025 0  0.908695652173913 0.025 0  0.9169565217391303 0.025 0  0.9252173913043478 0.025 0  0.9334782608695652 0.025 0  0.9417391304347826 0.025 0  0.95 0.025 0  0.9582608695652173 0.025 0  0.9665217391304347 0.025 0  0.9747826086956521 0.025 0  0.9830434782608696 0.025 0  0.991304347826087 0.025 0  0.9995652173913042 0.025 0  1.007826086956522 0.025 0  1.016086956521739 0.025 0  1.024347826086957 0.025 0  1.032608695652174 0.025 0  1.040869565217391 0.025 0  1.049130434782609 0.025 0  1.057391304347826 0.025 0  1.065652173913043 0.025 0  1.073913043478261 0.025 0  1.082173913043478 0.025 0  1.090434782608696 0.025 0  0.7517391304347827 0.03333333333333333 0  0.7599999999999999 0.03333333333333333 0  0.7682608695652173 0.03333333333333333 0  0.7765217391304348 0.03333333333333333 0  0.7847826086956522 0.03333333333333333 0  0.7930434782608695 0.03333333333333333 0  0.8013043478260868 0.03333333333333333 0  0.8095652173913043 0.03333333333333333 0  0.8178260869565217 0.03333333333333333 0  0.8260869565217391 0.03333333333333333 0  0.8343478260869565 0.03333333333333333 0  0.8426086956521739 0.03333333333333333 0  0.8508695652173912 0.03333333333333333 0  0.8591304347826086 0.03333333333333333 0  0.8673913043478261 0.03333333333333333 0  0.8756521739130434 0.03333333333333333 0  0.8839130434782608 0.03333333333333333 0  0.8921739130434783 0.03333333333333333 0  0.9004347826086956 0.03333333333333333 0  0.908695652173913 0.03333333333333333 0  0.9169565217391303 0.03333333333333333 0  0.9252173913043478 0.03333333333333333 0  0.9334782608695652 0.03333333333333333 0  0.9417391304347826 0.03333333333333333 0  0.95 0.03333333333333333 0  0.9582608695652173 0.03333333333333333 0  0.9665217391304347 0.03333333333333333 0  0.9747826086956521 0.03333333333333333 0  0.9830434782608696 0.03333333333333333 0  0.991304347826087 0.03333333333333333 0  0.9995652173913042 0.03333333333333333 0  1.007826086956522 0.03333333333333333 0  1.016086956521739 0.03333333333333333 0  1.024347826086957 0.03333333333333333 0  1.032608695652174 0.03333333333333333 0  1.040869565217391 0.03333333333333333 0  1.049130434782609 0.03333333333333333 0  1.057391304347826 0.03333333333333333 0  1.065652173913043 0.03333333333333333 0  1.073913043478261 0.03333333333333333 0  1.082173913043478 0.03333333333333333 0  1.090434782608696 0.03333333333333333 0  1.098695652173913 0.03333333333333333 0  0.7599999999999999 0.04166666666666666 0  0.7682608695652173 0.04166666666666666 0  0.7765217391304348 0.04166666666666666 0  0.7847826086956522 0.04166666666666666 0  0.7930434782608695 0.04166666666666666 0  0.8013043478260868 0.04166666666666666 0  0.8095652173913043 0.04166666666666666 0  0.8178260869565217 0.04166666666666666 0  0.8260869565217391 0.04166666666666666 0  0.8343478260869565 0.04166666666666666 0  0.8426086956521739 0.04166666666666666 0  0.8508695652173912 0.04166666666666666 0  0.8591304347826086 0.04166666666666666 0  0.8673913043478261 0.04166666666666666 0  0.8756521739130434 0.04166666666666666 0  0.8839130434782608 0.04166666666666666 0  0.8921739130434783 0.04166666666666666 0  0.9004347826086956 0.04166666666666666 0  0.908695652173913 0.04166666666666666 0  0.9169565217391303 0.04166666666666666 0  0.9252173913043478 0.04166666666666666 0  0.9334782608695652 0.04166666666666666 0  0.9417391304347826 0.04166666666666666 0  0.95 0.04166666666666666 0  0.9582608695652173 0.04166666666666666 0  0.9665217391304347 0.04166666666666666 0  0.9747826086956521 0.04166666666666666 0  0.9830434782608696 0.04166666666666666 0  0.991304347826087 0.04166666666666666 0  0.9995652173913042 0.04166666666666666 0  1.007826086956522 0.04166666666666666 0  1.016086956521739 0.04166666666666666 0  1.024347826086957 0.04166666666666666 0  1.032608695652174 0.04166666666666666 0  1.040869565217391 0.04166666666666666 0  1.049130434782609 0.04166666666666666 0  1.057391304347826 0.04166666666666666 0  1.065652173913043 0.04166666666666666 0  1.073913043478261 0.04166666666666666 0  1.082173913043478 0.04166666666666666 0  1.090434782608696 0.04166666666666666 0  1.098695652173913 0.04166666666666666 0  1.10695652173913 0.04166666666666666 0  0.7682608695652173 0.05 0  0.7765217391304348 0.05 0  0.7847826086956522 0.05 0  0.7930434782608695 0.05 0  0.8013043478260868 0.05 0  0.8095652173913043 0.05 0  0.8178260869565217 0.05 0  0.8260869565217391 0.05 0  0.8343478260869565 0.05 0  0.8426086956521739 0.05 0  0.8508695652173912 0.05 0  0.8591304347826086 0.05 0  0.8673913043478261 0.05 0  0.8756521739130434 0.05 0  0.8839130434782608 0.05 0  0.89217391
[...]
<PointData  Vectors="Displacement"> 
<DataArray  type="Float64"  Name="Displacement"  NumberOfComponents="3" format="ascii">1.1291051443177317e-04 7.8460209529194243e-04 0.0000000000000000e+00  1.1374377236280275e-04 7.9228170032502783e-04 0.0000000000000000e+00  1.0603558132180082e-04 7.9198988957230828e-04 0.0000000000000000e+00  1.1457954537746403e-04 7.9987800885025990e-04 0.0000000000000000e+00  1.0695543768789742e-04 7.9958561346353031e-04 0.0000000000000000e+00  1.1541738242799962e-04 8.0739203092938339e-04 0.0000000000000000e+00  1.0787631546157914e-04 8.0709917019488415e-04 0.0000000000000000e+00  1.1625702609036851e-04 8.1482437289534342e-04 0.0000000000000000e+00  1.0879815832150969e-04 8.1453109944084722e-04 0.0000000000000000e+00  1.1709843454713263e-04 8.2217555996563915e-04 0.0000000000000000e+00  1.0972095726445869e-04 8.2188186980546398e-04 0.0000000000000000e+00  1.1794173475100766e-04 8.2944625164956519e-04 0.0000000000000000e+00  1.1064474063415900e-04 8.2915209567160767e-04 0.0000000000000000e+00  1.1878714275013318e-04 8.3663737227187033e-04 0.0000000000000000e+00  1.1156956611549746e-04 8.3634267453266823e-04 0.0000000000000000e+00  1.1963485399698101e-04 8.4375015372680764e-04 0.0000000000000000e+00  1.1249549507276658e-04 8.4345484766969777e-04 0.0000000000000000e+00  1.2048493758182631e-04 8.5078603389789130e-04 0.0000000000000000e+00  1.1342255906991308e-04 8.5049009800712745e-04 0.0000000000000000e+00  1.2133728895603058e-04 8.5774643753061379e-04 0.0000000000000000e+00  1.1435074197695901e-04 8.5744990737688482e-04 0.0000000000000000e+00  1.2219166527291392e-04 8.6463255343859275e-04 0.0000000000000000e+00  1.1527998718509566e-04 8.6433550523115350e-04 0.0000000000000000e+00  1.2304778034397356e-04 8.7144521735436626e-04 0.0000000000000000e+00  1.1621022325500005e-04 8.7114773461146916e-04 0.0000000000000000e+00  1.2390540851091162e-04 8.7818494293804097e-04 0.0000000000000000e+00  1.1714139319925458e-04 8.7788708455074904e-04 0.0000000000000000e+00  1.2476444922189465e-04 8.8485206771265730e-04 0.0000000000000000e+00  1.1807347227793932e-04 8.8455385250223704e-04 0.0000000000000000e+00  1.2562493212407063e-04 8.9144693112231906e-04 0.0000000000000000e+00  1.1900646823465131e-04 8.9114834216035639e-04 0.0000000000000000e+00  1.2648697590612851e-04 8.9797000580746063e-04 0.0000000000000000e+00  1.1994040893012886e-04 8.9767100665933666e-04 0.0000000000000000e+00  1.2735073158069094e-04 9.0442194799546249e-04 0.0000000000000000e+00  1.2087532687029758e-04 9.0412249989071057e-04 0.0000000000000000e+00  1.2821633789820993e-04 9.1080357908892261e-04 0.0000000000000000e+00  1.2181124866390386e-04 9.1050365122339715e-04 0.0000000000000000e+00  1.2908390060768437e-04 9.1711583586069785e-04 0.0000000000000000e+00  1.2274819193917251e-04 9.1681540753201364e-04 0.0000000000000000e+00  1.2995349125068638e-04 9.2335972311831935e-04 0.0000000000000000e+00  1.2368616740654931e-04 9.2305878117460236e-04 0.0000000000000000e+00  1.3082515387972111e-04 9.2953628340208350e-04 0.0000000000000000e+00  1.2462518179164389e-04 9.2923481952476980e-04 0.0000000000000000e+00  1.3169891078422874e-04 9.3564657988450407e-04 0.0000000000000000e+00  1.2556523877817142e-04 9.3534458978089899e-04 0.0000000000000000e+00  1.3257476586510457e-04 9.4169168216032739e-04 0.0000000000000000e+00  1.2650633880477590e-04 9.4138916539830469e-04 0.0000000000000000e+00  1.3345270805853975e-04 9.4767265176856619e-04 0.0000000000000000e+00  1.2744847974424997e-04 9.4736961086361424e-04 0.0000000000000000e+00  1.3433271485707620e-04 9.5359053144565662e-04 0.0000000000000000e+00  1.2839165780403574e-04 9.5328697112423975e-04 0.0000000000000000e+00  1.3521475490293331e-04 9.5944633780779853e-04 0.0000000000000000e+00  1.2933586753888433e-04 9.5914226501204439e-04 0.0000000000000000e+00  1.3609879079641180e-04 9.6524105437548874e-04 0.0000000000000000e+00  1.3028110179084338e-04 9.6493647795322594e-04 0.0000000000000000e+00  1.3698478363968885e-04 9.7097562665388255e-04 0.0000000000000000e+00  1.3122735246397005e-04 9.7067055608460510e-04 0.0000000000000000e+00  1.3787269883617053e-04 9.7665096315333803e-04 0.0000000000000000e+00  1.3217461197069763e-04 9.7634540677432266e-04 0.0000000000000000e+00  1.3876251113588873e-04 9.8226794343774459e-04 0.0000000000000000e+00  1.3312287461284081e-04 9.8196190703349014e-04 0.0000000000000000e+00  1.3965420705805521e-04 9.8782743081617542e-04 0.0000000000000000e+00  1.3407213714401896e-04 9.8752091718658707e-04 0.0000000000000000e+00  1.4054778447049172e-04 9.9333028517082853e-04 0.0000000000000000e+00  1.3502239857376332e-04 9.9302329446234361e-04 0.0000000000000000e+00  1.4144325033531985e-04 9.9877737306188017e-04 0.0000000000000000e+00  1.3597365963719286e-04 9.9846990340908071e-04 0.0000000000000000e+00  1.4234061772279845e-04 1.0041695743853286e-03 0.0000000000000000e+00  1.3692592224820479e-04 1.0038616225779276e-03 0.0000000000000000e+00  1.4323990267593067e-04 1.0095077859540130e-03 0.0000000000000000e+00  1.3787918897689223e-04 1.0091993480955295e-03 0.0000000000000000e+00  1.4414112117062779e-04 1.0147929222439319e-03 0.0000000000000000e+00  1.3883346255088027e-04 1.0144839943991447e-03 0.0000000000000000e+00  1.4504428630717259e-04 1.0200259135038547e-03 0.0000000000000000e+00  1.3978874535862138e-04 1.0197164923473776e-03 0.0000000000000000e+00  1.4594940593387571e-04 1.0252077013937324e-03 0.0000000000000000e+00  1.4074503896816077e-04 1.0248977848191611e-03 0.0000000000000000e+00  1.4685648102061741e-04 1.0303392325668956e-03 0.0000000000000000e+00  1.4170234371587123e-04 1.0300288201625766e-03 0.0000000000000000e+00  1.4776550517502999e-04 1.0354214509992769e-03 0.0000000000000000e+00  1.4266065848813269e-04 1.0351105442482564e-03 0.0000000000000000e+00  1.4867646556028440e-04 1.0404552903964213e-03 0.0000000000000000e+00  1.4361998078810662e-04 1.0401438925345880e-03 0.0000000000000000e+00  1.4958934520046814e-04 1.0454416681202078e-03 0.0000000000000000e+00  1.4458030709229823e-04 1.0451297837190832e-03 0.0000000000000000e+00  1.5050412640936836e-04 1.0503814818467528e-03 0.0000000000000000e+00  1.4554163328974764e-04 1.0500691163266539e-03 0.0000000000000000e+00  9.9328814682208476e-05 7.9926515321512956e-04 0.0000000000000000e+00  1.0033279188364050e-04 8.0677870792297444e-04 0.0000000000000000e+00  1.0133684695844166e-04 8.1421062810084184e-04 0.0000000000000000e+00  1.0234101993875253e-04 8.2156135108335700e-04 0.0000000000000000e+00  1.0334526053612846e-04 8.2883146398940433e-04 0.0000000000000000e+00  1.0434948639402834e-04 8.3602182989819145e-04 0.0000000000000000e+00  1.0535363952714247e-04 8.4313369693765118e-04 0.0000000000000000e+00  1.0635771926219143e-04 8.5016860551490752e-04 0.0000000000000000e+00  1.0736179028286930e-04 8.5712810829526682e-04 0.0000000000000000e+00  1.0836596526183269e-04 8.6401347922444220e-04 0.0000000000000000e+00  1.0937036895215993e-04 8.7082556140626283e-04 0.0000000000000000e+00  1.1037510072058844e-04 8.7756480695928949e-04 0.0000000000000000e+00  1.1138020980645467e-04 8.8423146666996263e-04 0.0000000000000000e+00  1.1238568940313903e-04 8.9082581412283255e-04 0.0000000000000000e+00  1.1339148818140119e-04 8.9734829819629216e-04 0.0000000000000000e+00  1.1439753075777446e-04 9.0379958759941731e-04 0.0000000000000000e+00  1.1540373808322775e-04 9.1018053072868844e-04 0.0000000000000000e+00  1.1641004170552044e-04 9.1649208606279663e-04 0.0000000000000000e+00  1.1741639062793618e-04 9.2273526713248914e-04 0.0000000000000000e+00  1.1842275256006706e-04 9.2891111701201633e-04 0.0000000000000000e+00  1.1942911133246589e-04 9.3502070014383815e-04 0.0000000000000000e+00  1.2043546281822090e-04 9.4106508989709426e-04 0.0000000000000000e+00  1.2144181242243913e-04 9.4704534987878500e-04 0.0000000000000000e+00  1.2244817363986742e-04 9.5296252374016237e-04 0.0000000000000000e+00  1.2345456567421431e-04 9.5881763114098468e-04 0.0000000000000000e+00  1.2446101036566579e-04 9.6461165977472919e-04 0.0000000000000000e+00  1.2546752918914591e-04 9.7034555724712416e-04 0.0000000000000000e+00  1.2647414054248741e-04 9.7602023051060255e-04 0.0000000000000000e+00  1.2748085779052274e-04 9.8163655476697577e-04 0.0000000000000000e+00  1.2848768809656342e-04 9.8719538872380440e-04 0.0000000000000000e+00  1.2949463230647502e-04 9.9269758884396823e-04 0.0000000000000000e+00  1.3050168587103552e-04 9.9814401949400175e-04 0.0000000000000000e+00  1.3150884053987537e-04 1.0035355591191081e-03 0.0000000000000000e+00  1.3251608632327834e-04 1.0088731036676233e-03 0.0000000000000000e+00  1.3352341344431383e-04 1.0141575673407494e-03 0.0000000000000000e+00  1.3453081407069115e-04 1.0193898808777263e-03 0.0000000000000000e+00  1.3553828366026359e-04 1.0245709873590906e-03 0.0000000000000000e+00  1.3654582169916979e-04 1.0297018358032535e-03 0.0000000000000000e+00  1.3755343170753767e-04 1.0347833731542298e-03 0.0000000000000000e+00  1.3856112042326236e-04 1.0398165361854507e-03 0.0000000000000000e+00  1.3956889625404845e-04 1.0448022450734395e-03 0.0000000000000000e+00  1.4057676694777593e-04 1.0497414004261951e-03 0.0000000000000000e+00  1.4158473627988487e-04 1.0546348838111380e-03 0.0000000000000000e+00  9.2788709804626567e-05 8.0643065139624599e-04 0.0000000000000000e+00  9.3874903837428989e-05 8.1386289514485098e-04 0.0000000000000000e+00  9.4960666782392211e-05 8.2121390045502391e-04 0.0000000000000000e+00  9.6045755814110970e-05 8.2848427091381774e-04 0.0000000000000000e+00  9.7129765085155872e-05 8.3567481909420426e-04 0.0000000000000000e+00  9.8212311632168463e-05 8.4278676175834042e-04 0.0000000000000000e+00  9.9293257324857900e-05 8.4982167212041299e-04 0.0000000000000000e+00  1.0037280044585346e-04 8.5678116569849706e-04 0.0000000000000000e+00  1.0145139374617586e-04 8.6366656591351648e-04 0.0000000000000000e+00  1.0252955334776093e-04 8.7047873004257061e-04 0.0000000000000000e+00  1.0360766049674035e-04 8.7721808754515833e-04 0.0000000000000000e+00  1.0468585089459127e-04 8.8388485321791747e-04 0.0000000000000000e+00  1.0576402694342651e-04 8.9047927989697193e-04 0.0000000000000000e+00  1.0684195215224027e-04 8.9700182034104479e-04 0.0000000000000000e+00  1.0791936109336922e-04 9.0345316502657967e-04 0.0000000000000000e+00  1.0899603345289989e-04 9.0983418523961953e-04 0.0000000000000000e+00  1.1007181651176174e-04 9.1614585043070670e-04 0.0000000000000000e+00  1.1114661324425209e-04 9.2238916990582793e-04 0.0000000000000000e+00  1.1222036297528444e-04 9.2856517349238898e-04 0.0000000000000000e+00  1.1329303344434235e-04 9.3467491508362045e-04 0.0000000000000000e+00  1.1436462115031768e-04 9.4071946457211701e-04 0.0000000000000000e+00  1.1543514593896723e-04 9.4669988185033197e-04 0.0000000000000000e+00  1.1650464246008860e-04 9.5261720512470618e-04 0.0000000000000000e+00  1.1757315778786243e-04 9.5847245238651728e-04 0.0000000000000000e+00  1.1864074981912338e-04 9.6426661364080394e-04 0.0000000000000000e+00  1.1970747985855676e-04 9.7000063942271047e-04 0.0000000000000000e+00  1.2077340178151408e-04 9.7567543839372699e-04 0.0000000000000000e+00  1.2183855263282376e-04 9.8129188580304270e-04 0.0000000000000000e+00  1.2290294913681126e-04 9.8685084073312271e-04 0.0000000000000000e+00  1.2396658993268925e-04 9.9235316102869609e-04 0.0000000000000000e+00  1.2502946012053583e-04 9.9779971282670278e-04 0.0000000000000000e+00  1.2609153612373365e-04 1.0031913756795025e-03 0.0000000000000000e+00  1.2715279040911561e-04 1.0085290457703935e-03 0.0000000000000000e+00  1.2821319605775051e-04 1.0138136366627923e-03 0.0000000000000000e+00  1.2927273098066328e-04 1.0190460778933149e-03 0.0000000000000000e+00  1.3033138159019263e-04 1.0242273111719835e-03 0.0000000000000000e+00  1.3138914541162451e-04 1.0293582845179558e-03 0.0000000000000000e+00  1.3244603186525413e-04 1.0344399444991979e-03 0.0000000000000000e+00  1.3350206065504836e-04 1.0394732283215352e-03 0.0000000000000000e+00  1.3455725771674670e-04 1.0444590573218673e-03 0.0000000000000000e+00  1.3561164959998372e-04 1.0493983345825971e-03 0.0000000000000000e+00  1.3666525725107315e-04 1.0542919466573278e-03 0.0000000000000000e+00  1.3771808867560535e-04 1.0591407678472130e-03 0.0000000000000000e+00  8.6413580328223642e-05 8.1348773671533132e-04 0.0000000000000000e+00  8.7581536931814847e-05 8.2083910749024421e-04 0.0000000000000000e+00  8.8748507293671491e-05 8.2811001842093726e-04 0.0000000000000000e+00  8.9913470075523731e-05 8.3530133153617860e-04 0.0000000000000000e+00  9.1075061357500858e-05 8.4241410764493679e-04 0.0000000000000000e+00  9.2232583498679137e-05 8.4944972666015214e-04 0.0000000000000000e+00  9.3386481148305798e-05 8.5640969031098007e-04 0.0000000000000000e+00  9.4538048872418978e-05 8.6329531416766685e-04 0.0000000000000000e+00  9.5688785931509146e-05 8.7010753969155280e-04 0.0000000000000000e+00  9.6839757738311887e-05 8.7684692625456559e-04 0.0000000000000000e+00  9.7991222137597343e-05 8.8351378936891729e-04 0.0000000000000000e+00  9.9142734687471579e-05 8.9010842312922612e-04 0.0000000000000000e+00  1.0029353991000076e-04 8.9663127562683738e-04 0.0000000000000000e+00  1.0144293483161095e-04 9.0308300785557258e-04 0.0000000000000000e+00  1.0259047710884987e-04 9.0946446626449578e-04 0.0000000000000000e+00  1.0373596950101852e-04 9.1577660680390734e-04 0.0000000000000000e+00  1.0487934568580146e-04 9.2202043360932429e-04 0.0000000000000000e+00  1.0602055992342573e-04 9.2819696858122472e-04 0.0000000000000000e+00  1.0715955778138778e-04 9.3430724751899163e-04 0.0000000000000000e+00  1.0829633198465406e-04 9.4035232455091261e-04 0.0000000000000000e+00  1.0943094494726857e-04 9.4633325754783315e-04 0.0000000000000000e+00  1.1056346690222011e-04 9.5225108075797039e-04 0.0000000000000000e+00  1.1169396786550363e-04 9.5810680275406951e-04 0.0000000000000000e+00  1.1282255296428346e-04 9.6390141012832700e-04 0.0000000000000000e+00  1.1394935128543352e-04 9.6963585735897889e-04 0.0000000000000000e+00  1.1507448013430680e-04 9.7531106139398633e-04 0.0000000000000000e+00  1.1619801612855432e-04 9.8092790759388734e-04 0.0000000000000000e+00  1.1731997983080404e-04 9.8648726152933798e-04 0.0000000000000000e+00  1.1844035443842141e-04 9.9198998613938627e-04 0.0000000000000000e+00  1.1955910062324702e-04 9.9743695107505311e-04 0.0000000000000000e+00  1.2067616811893325e-04 1.0028290383221137e-03 0.0000000000000000e+00  1.2179150045595996e-04 1.0081671441894498e-03 0.0000000000000000e+00  1.2290504356089179e-04 1.0134521807496945e-03 0.0000000000000000e+00  1.2401675176184211e-04 1.0186850741314181e-03 0.0000000000000000e+00  1.2512659544003783e-04 1.0238667613775424e-03 0.0000000000000000e+00  1.2623456666699791e-04 1.0289981850614967e-03 0.0000000000000000e+00  1.2734068346843163e-04 1.0340802870501375e-03 0.0000000000000000e+00  1.2844498722763047e-04 1.0391140014117198e-03 0.0000000000000000e+00  1.2954753575034763e-04 1.0441002491277606e-03 0.0000000000000000e+00  1.3064838983789601e-04 1.0490399349172119e-03 0.0000000000000000e+00  1.3174760415858453e-04 1.0539339490878736e-03 0.0000000000000000e+00  1.3284522139758018e-04 1.0587831729137048e-03 0.0000000000000000e+00  1.3394126649677392e-04 1.0635884886309680e-03 0.0000000000000000e+00  8.0165710886383196e-05 8.2045012899077815e-04 0.0000000000000000e+00  8.1413850554267427e-05 8.2772136282035504e-04 0.0000000000000000e+00  8.2659112129847598e-05 8.3491334385206320e-04 0.0000000000000000e+00  8.3899930839276878e-05 8.4202724796710309e-04 0.0000000000000000e+00  8.5135287801285290e-05 8.4906422965959143e-04 0.0000000000000000e+00  8.6365505804620211e-05 8.5602540574967578e-04 0.0000000000000000e+00  8.7592067953571654e-05 8.6291180618165101e-04 0.0000000000000000e+00  8.8816851277240890e-05 8.6972430349402277e-04 0.0000000000000000e+00  9.0041306640069294e-05 8.7646360212785372e-04 0.0000000000000000e+00  9.1265937413614588e-05 8.8313028854882045e-04 0.0000000000000000e+00  9.2490319854698029e-05 8.8972489378930249e-04 0.0000000000000000e+00  9.3713542166459435e-05 8.9624797236147950e-04 0.0000000000000000e+00  9.4934686067241059e-05 9.0270016901273142e-04 0.0000000000000000e+00  9.6153122233577778e-05 9.0908224271513561e-04 0.0000000000000000e+00  9.7368543354383832e-05 9.1539506641579935e-04 0.0000000000000000e+00  9.8580834814130131e-05 9.2163959962900555e-04 0.0000000000000000e+00  9.9789933072341738e-05 9.2781685698773385e-04 0.0000000000000000e+00  1.0099576973455452e-04 9.3392787699430159e-04 0.0000000000000000e+00  1.0219831920594796e-04 9.3997369766367779e-04 0.0000000000000000e+00  1.0339764032978266e-04 9.4595535320292151e-04 0.0000000000000000e+00  1.0459382723873611e-04 9.5187387513116133e-04 0.0000000000000000e+00  1.0578697590002102e-04 9.5773027203527176e-04 0.0000000000000000e+00  1.0697721373475819e-04 9.6352551862195779e-04 0.0000000000000000e+00  1.0816470231402865e-04 9.6926056126668233e-04 0.0000000000000000e+00  1.0934959679315450e-04 9.7493632090632325e-04 0.0000000000000000e+00  1.1053200554645563e-04 9.8055369668772780e-04 0.0000000000000000e+00  1.1171196892092914e-04 9.8611357319411787e-04 0.0000000000000000e+00  1.1288947260896574e-04 9.9161682609183932e-04 0.0000000000000000e+00  1.1406447038116307e-04 9.9706433274312839e-04 0.0000000000000000e+00  1.1523689943337213e-04 1.0024569789095865e-03 0.0000000000000000e+00  1.1640668878025074e-04 1.0077956630442750e-03 0.0000000000000000e+00  1.1757376842590785e-04 1.0130812964215699e-03 0.0000000000000000e+00  1.1873807854353093e-04 1.0183148023035762e-03 0.0000000000000000e+00  1.1989957857905776e-04 1.0234971122477839e-03 0.0000000000000000e+00  1.2105825513989989e-04 1.0286291614151866e-03 0.0000000000000000e+00  1.2221412710578162e-04 1.0337118828136365e-03 0.0000000000000000e+00  1.2336724386060674e-04 1.0387462025404279e-03 0.0000000000000000e+00  1.2451767651086714e-04 1.0437330359739450e-03 0.0000000000000000e+00  1.2566550229538840e-04 1.0486732868009395e-03 0.0000000000000000e+00  1.2681079038821813e-04 1.0535678474259528e-03 0.0000000000000000e+00  1.2795359248460954e-04 1.0584176032591636e-03 0.0000000000000000e+00  1.2909393234242339e-04 1.0632234427217708e-03 0.0000000000000000e+00  1.3023175933596023e-04 1.0679862814260263e-03 0.0000000000000000e+00  7.5095592601313370e-05 8.2208425437100608e-04 0.0000000000000000e+00  7.6500491639146782e-05 8.2926765277178776e-04 0.0000000000000000e+00  7.7900199859109849e-05 8.3637819786741953e-04 0.0000000000000000e+00  7.9294141879155468e-05 8.4341663013941281e-04 0.0000000000000000e+00  8.0682198524661063e-05 8.5038351512834918e-04 0.0000000000000000e+00  8.2064702915762670e-05 8.5727941370399496e-04 0.0000000000000000e+00  8.3442214918056433e-05 8.6410497045084098e-04 0.0000000000000000e+00  8.4815216499581507e-05 8.7086090936684007e-04 0.0000000000000000e+00  8.6183885707676158e-05 8.7754797689026769e-04 0.0000000000000000e+00  8.7548039873447842e-05 8.8416685940583559e-04 0.0000000000000000e+00  8.8907235477427252e-05 8.9071814852785113e-04 0.0000000000000000e+00  9.0260936699638461e-05 8.9720238180236896e-04 0.0000000000000000e+00  9.1608657803430183e-05 9.0362011364171285e-04 0.0000000000000000e+00  9.2950029573701557e-05 9.0997198014046595e-04 0.0000000000000000e+00  9.4284797704811624e-05 9.1625872149908908e-04 0.0000000000000000e+00  9.5612790488450026e-05 9.2248116316603099e-04 0.0000000000000000e+00  9.6933892485861583e-05 9.2864017455065312e-04 0.0000000000000000e+00  9.8248036581855111e-05 9.3473663177456488e-04 0.0000000000000000e+00  9.9555202150909461e-05 9.4077141127031129e-04 0.0000000000000000e+00  1.0085540599753375e-04 9.4674539821974215e-04 0.0000000000000000e+00  1.0214869081382922e-04 9.5265947126593428e-04 0.0000000000000000e+00  1.0343511755826282e-04 9.5851448543395892e-04 0.0000000000000000e+00  1.0471475724007100e-04 9.6431127730400303e-04 0.0000000000000000e+00  1.0598767700871382e-04 9.7005067369704289e-04 0.0000000000000000e+00  1.0725392441045653e-04 9.7573349357243976e-04 0.0000000000000000e+