<?xml version="1.0"?>
<VTKFile type="UnstructuredGrid"  version="0.1"  >
<UnstructuredGrid>
<Piece  NumberOfPoints="2398" NumberOfCells="4596">
<Points>
<DataArray  type="Float64"  NumberOfComponents="3"  format="ascii">0.4047826086956521 0 0  0.4130434782608696 0 0  0.4130434782608696 0.008333333333333333 0  0.4213043478260869 0 0  0.4213043478260869 0.008333333333333333 0  0.4295652173913043 0 0  0.4295652173913043 0.008333333333333333 0  0.4378260869565217 0 0  0.4378260869565217 0.008333333333333333 0  0.4460869565217391 0 0  0.4460869565217391 0.008333333333333333 0  0.4543478260869565 0 0  0.4543478260869565 0.008333333333333333 0  0.4626086956521739 0 0  0.4626086956521739 0.008333333333333333 0  0.4708695652173913 0 0  0.4708695652173913 0.008333333333333333 0  0.4791304347826086 0 0  0.4791304347826086 0.008333333333333333 0  0.4873913043478261 0 0  0.4873913043478261 0.008333333333333333 0  0.4956521739130435 0 0  0.4956521739130435 0.008333333333333333 0  0.5039130434782608 0 0  0.5039130434782608 0.008333333333333333 0  0.5121739130434783 0 0  0.5121739130434783 0.008333333333333333 0  0.5204347826086956 0 0  0.5204347826086956 0.008333333333333333 0  0.528695652173913 0 0  0.528695652173913 0.008333333333333333 0  0.5369565217391304 0 0  0.5369565217391304 0.008333333333333333 0  0.5452173913043478 0 0  0.5452173913043478 0.008333333333333333 0  0.5534782608695652 0 0  0.5534782608695652 0.008333333333333333 0  0.5617391304347825 0 0  0.5617391304347825 0.008333333333333333 0  0.57 0 0  0.57 0.008333333333333333 0  0.5782608695652174 0 0  0.5782608695652174 0.008333333333333333 0  0.5865217391304348 0 0  0.5865217391304348 0.008333333333333333 0  0.5947826086956521 0 0  0.5947826086956521 0.008333333333333333 0  0.6030434782608696 0 0  0.6030434782608696 0.008333333333333333 0  0.6113043478260869 0 0  0.6113043478260869 0.008333333333333333 0  0.6195652173913043 0 0  0.6195652173913043 0.008333333333333333 0  0.6278260869565218 0 0  0.6278260869565218 0.008333333333333333 0  0.6360869565217391 0 0  0.6360869565217391 0.008333333333333333 0  0.6443478260869565 0 0  0.6443478260869565 0.008333333333333333 0  0.6526086956521739 0 0  0.6526086956521739 0.008333333333333333 0  0.6608695652173913 0 0  0.6608695652173913 0.008333333333333333 0  0.6691304347826087 0 0  0.6691304347826087 0.008333333333333333 0  0.677391304347826 0 0  0.677391304347826 0.008333333333333333 0  0.6856521739130435 0 0  0.6856521739130435 0.008333333333333333 0  0.6939130434782609 0 0  0.6939130434782609 0.008333333333333333 0  0.7021739130434783 0 0  0.7021739130434783 0.008333333333333333 0  0.7104347826086956 0 0  0.7104347826086956 0.008333333333333333 0  0.718695652173913 0 0  0.718695652173913 0.008333333333333333 0  0.7269565217391304 0.008333333333333333 0  0.4213043478260869 0.01666666666666667 0  0.4295652173913043 0.01666666666666667 0  0.4378260869565217 0.01666666666666667 0  0.4460869565217391 0.01666666666666667 0  0.4543478260869565 0.01666666666666667 0  0.4626086956521739 0.01666666666666667 0  0.4708695652173913 0.01666666666666667 0  0.4791304347826086 0.01666666666666667 0  0.4873913043478261 0.01666666666666667 0  0.4956521739130435 0.01666666666666667 0  0.5039130434782608 0.01666666666666667 0  0.5121739130434783 0.01666666666666667 0  0.5204347826086956 0.01666666666666667 0  0.528695652173913 0.01666666666666667 0  0.5369565217391304 0.01666666666666667 0  0.5452173913043478 0.01666666666666667 0  0.5534782608695652 0.01666666666666667 0  0.5617391304347825 0.01666666666666667 0  0.57 0.01666666666666667 0  0.5782608695652174 0.01666666666666667 0  0.5865217391304348 0.01666666666666667 0  0.5947826086956521 0.01666666666666667 0  0.6030434782608696 0.01666666666666667 0  0.6113043478260869 0.01666666666666667 0  0.6195652173913043 0.01666666666666667 0  0.6278260869565218 0.01666666666666667 0  0.6360869565217391 0.01666666666666667 0  0.6443478260869565 0.01666666666666667 0  0.6526086956521739 0.01666666666666667 0  0.6608695652173913 0.01666666666666667 0  0.6691304347826087 0.01666666666666667 0  0.677391304347826 0.01666666666666667 0  0.6856521739130435 0.01666666666666667 0  0.6939130434782609 0.01666666666666667 0  0.7021739130434783 0.01666666666666667 0  0.7104347826086956 0.01666666666666667 0  0.718695652173913 0.01666666666666667 0  0.7269565217391304 0.01666666666666667 0  0.7352173913043478 0.01666666666666667 0  0.4295652173913043 0.025 0  0.4378260869565217 0.025 0  0.4460869565217391 0.025 0  0.4543478260869565 0.025 0  0.4626086956521739 0.025 0  0.4708695652173913 0.025 0  0.4791304347826086 0.025 0  0.4873913043478261 0.025 0  0.4956521739130435 0.025 0  0.5039130434782608 0.025 0  0.5121739130434783 0.025 0  0.5204347826086956 0.025 0  0.528695652173913 0.025 0  0.5369565217391304 0.025 0  0.5452173913043478 0.025 0  0.5534782608695652 0.025 0  0.5617391304347825 0.025 0  0.57 0.025 0  0.5782608695652174 0.025 0  0.5865217391304348 0.025 0  0.5947826086956521 0.025 0  0.6030434782608696 0.025 0  0.6113043478260869 0.025 0  0.6195652173913043 0.025 0  0.6278260869565218 0.025 0  0.6360869565217391 0.025 0  0.6443478260869565 0.025 0  0.6526086956521739 0.025 0  0.6608695652173913 0.025 0  0.6691304347826087 0.025 0  0.677391304347826 0.025 0  0.6856521739130435 0.025 0  0.6939130434782609 0.025 0  0.7021739130434783 0.025 0  0.7104347826086956 0.025 0  0.718695652173913 0.025 0  0.7269565217391304 0.025 0  0.7352173913043478 0.025 0  0.7434782608695653 0.025 0  0.4378260869565217 0.03333333333333333 0  0.4460869565217391 0.03333333333333333 0  0.4543478260869565 0.03333333333333333 0  0.4626086956521739 0.03333333333333333 0  0.4708695652173913 0.03333333333333333 0  0.4791304347826086 0.03333333333333333 0  0.4873913043478261 0.03333333333333333 0  0.4956521739130435 0.03333333333333333 0  0.5039130434782608 0.03333333333333333 0  0.5121739130434783 0.03333333333333333 0  0.5204347826086956 0.03333333333333333 0  0.528695652173913 0.03333333333333333 0  0.5369565217391304 0.03333333333333333 0  0.5452173913043478 0.03333333333333333 0  0.5534782608695652 0.03333333333333333 0  0.5617391304347825 0.03333333333333333 0  0.57 0.03333333333333333 0  0.5782608695652174 0.03333333333333333 0  0.5865217391304348 0.03333333333333333 0  0.5947826086956521 0.03333333333333333 0  0.6030434782608696 0.03333333333333333 0  0.6113043478260869 0.03333333333333333 0  0.6195652173913043 0.03333333333333333 0  0.6278260869565218 0.03333333333333333 0  0.6360869565217391 0.03333333333333333 0  0.6443478260869565 0.03333333333333333 0  0.6526086956521739 0.03333333333333333 0  0.6608695652173913 0.03333333333333333 0  0.6691304347826087 0.03333333333333333 0  0.677391304347826 0.03333333333333333 0  0.6856521739130435 0.03333333333333333 0  0.6939130434782609 0.03333333333333333 0  0.7021739130434783 0.03333333333333333 0  0.7104347826086956 0.03333333333333333 0  0.718695652173913 0.03333333333333333 0  0.7269565217391304 0.03333333333333333 0  0.7352173913043478 0.03333333333333333 0  0.7434782608695653 0.03333333333333333 0  0.7517391304347827 0.03333333333333333 0  0.4460869565217391 0.04166666666666666 0  0.4543478260869565 0.04166666666666666 0  0.4626086956521739 0.04166666666666666 0  0.4708695652173913 0.04166666666666666 0  0.4791304347826086 0.04166666666666666 0  0.4873913043478261 0.04166666666666666 0  0.4956521739130435 0.04166666666666666 0  0.5039130434782608 0.04166666666666666 0  0.5121739130434783 0.04166666666666666 0  0.5204347826086956 0.04166666666666666 0  0.528695652173913 0.04166666666666666 0  0.5369565217391304 0.04166666666666666 0  0.5452173913043478 0.04166666666666666 0  0.5534782608695652 0.04166666666666666 0  0.5617391304347825 0.04166666666666666 0  0.57 0.04166666666666666 0  0.5782608695652174 0.04166666666666666 0  0.5865217391304348 0.04166666666666666 0  0.5947826086956521 0.04166666666666666 0  0.6030434782608696 0.04166666666666666 0  0.6113043478260869 0.04166666666666666 0  0.6195652173913043 0.04166666666666666 0  0.6278260869565218 0.04166666666666666 0  0.6360869565217391 0.04166666666666666 0  0.6443478260869565 0.04166666666666666 0  0.6526086956521739 0.04166666666666666 0  0.6608695652173913 0.04166666666666666 0  0.6691304347826087 0.04166666666666666 0  0.677391304347826 0.04166666666666666 0  0.6856521739130435 0.04166666666666666 0  0.6939130434782609 0.04166666666666666 0  0.7021739130434783 0.04166666666666666 0  0.7104347826086956 0.04166666666666666 0  0.718695652173913 0.04166666666666666 0  0.7269565217391304 0.04166666666666666 0  0.7352173913043478 0.04166666666666666 0  0.7434782608695653 0.04166666666666666 0  0.7517391304347827 0.04166666666666666 0  0.7599999999999999 0.04166666666666666 0  0.4543478260869565 0.05 0  0.4626086956521739 0.05 0  0.4708695652173913 0.05 0  0.4791304347826086 0.05 0  0.4873913043478261 0.05 0  0.4956521739130435 0.05 0  0.5039130434782608 0.05 0  0.5121739130434783 0.05 0  0.5204347826086956 0.05 0  0.528695652173913 0.05 0  0.5369565217391304 0.05 0  0.5452173913043478 0.05 0  0.5534782608695652 0.05 0  0.5617391304347825 0.05 0  0.57 0.05 0  0.5782608695652174 0.05 0  0.5865217391304348 0.05 0  0.5947826086956521 0.05 0  0.6030434782608696 0.05 0  0.6113043478260869 0.05 0  0.6195652173913043 0.05 0  0.6278260869565218 0.05 0  0.6360869565217391 0.05 0  0.6443478260869565 0.05 0  0.6526086956521739 0.05 0  0.6608695652173913 0.05 0  0.6691304347826087 0.05 0  0.677391304347826 0.05 0  0.6856521739130435 0.05 0  0.6939130434782609 0.05 0  0.7021739130434783 0.05 0  0.7104347826086956 0.05 0  0.718695652173913 0.05 0  0.7269565217391304 0.05 0  0.7352173913043478 0.05 0  0.7434782608695653 0.05 0  0.7517391304347827 0.05 0  0.7599999999999999 0.05 0  0.7682608695652173 0.05 0  0.4626086956521739 0.05833333333333333 0  0.4708695652173913 0.05833333333333333 0  0.4791304347826086 0.05833333333333333 0  0.4873913043478261 0.05833333333333333 0  0.4956521739130435 0.05833333333333333 0  0.503913043478260
[...]
<CellData  Scalars="rho"> 
<DataArray  type="Float64"  Name="rho"  format="ascii">3.3984496376512741e-01   3.3952030323410054e-01   3.3957570253774033e-01   3.3919377416154001e-01   3.3924981268881826e-01   3.3886546391240946e-01   3.3892211872930272e-01   3.3853544135417513e-01   3.3859268950350618e-01   3.3820379048539412e-01   3.3826160990547455e-01   3.3787057627508049e-01   3.3792894535673829e-01   3.3753587521151623e-01   3.3759477510856750e-01   3.3719976226248788e-01   3.3725916191680622e-01   3.3686233026829160e-01   3.3692220712632487e-01   3.3652364049835920e-01   3.3658397253451422e-01   3.3618376923058779e-01   3.3624453677305244e-01   3.3584278306593612e-01   3.3590395897091840e-01   3.3550078723745791e-01   3.3556234126095025e-01   3.3515787036329253e-01   3.3521977068024822e-01   3.3481413163700952e-01   3.3487635124363163e-01   3.3446964622926278e-01   3.3453215635661571e-01   3.3412451897811957e-01   3.3418728805361453e-01   3.3377883952697390e-01   3.3384183621438090e-01   3.3343272459152601e-01   3.3349591209313562e-01   3.3308628342847396e-01   3.3314962345329285e-01   3.3273964159275821e-01   3.3280309567282501e-01   3.3239291064860393e-01   3.3245643829290322e-01   3.3204622853151927e-01   3.3210978735019964e-01   3.3169971615415178e-01   3.3176326155212882e-01   3.3135351856362422e-01   3.3141700594889589e-01   3.3100775611616079e-01   3.3107114241600683e-01   3.3066257991294751e-01   3.3072581726507749e-01   3.3031812486676110e-01   3.3038116550800140e-01   3.2997454524449527e-01   3.3003734087897607e-01   3.2963197725246124e-01   3.2969447944914415e-01   3.2929057994438227e-01   3.2935273850930297e-01   3.2895049278935046e-01   3.2901225839087184e-01   3.2861187167522604e-01   3.2867319561277114e-01   3.2827484965689846e-01   3.2833568502158489e-01   3.2793957941742408e-01   3.2799987804253916e-01   3.2760619183549317e-01   3.2766590826506509e-01   3.2727483105729299e-01   3.2733392051273830e-01   3.2700403864570265e-01   3.3925708252440701e-01   3.3893069716093510e-01   3.3888184341600908e-01   3.3860253603019780e-01   3.3855435194800987e-01   3.3827268501802010e-01   3.3822515315580720e-01   3.3794120911002490e-01   3.3789431304698486e-01   3.3760819127063141e-01   3.3756191323124790e-01   3.3727369227145837e-01   3.3722801776328770e-01   3.3693779607286700e-01   3.3689270580023573e-01   3.3660057812156707e-01   3.3655604766729730e-01   3.3626212274095119e-01   3.3621813279613316e-01   3.3592248470584990e-01   3.3587902116350804e-01   3.3558174682973829e-01   3.3553878880185611e-01   3.3524000035792034e-01   3.3519751509946022e-01   3.3489734885600336e-01   3.3485531100262672e-01   3.3455386603114068e-01   3.3451225136302210e-01   3.3420965490913623e-01   3.3416843460684503e-01   3.3386479569269051e-01   3.3382394374433666e-01   3.3351939996167196e-01   3.3347888344274867e-01   3.3317356703941342e-01   3.3313335313178932e-01   3.3282741944491301e-01   3.3278747236483186e-01   3.3248106638209762e-01   3.3244134898637362e-01   3.3213463575891333e-01   3.3209511073671588e-01   3.3178824616746855e-01   3.3174887008394355e-01   3.3144203743408540e-01   3.3140276865607970e-01   3.3109613259943732e-01   3.3105692647919149e-01   3.3075067670137470e-01   3.3071148974935038e-01   3.3040579922598262e-01   3.3036658514687400e-01   3.3006165436668550e-01   3.3002236614874292e-01   3.2971837666047993e-01   3.2967896766271565e-01   3.2937612038318020e-01   3.2933654294825510e-01   3.2903502570701010e-01   3.2899522928862684e-01   3.2869525128288557e-01   3.2865518695253515e-01   3.2835693280883849e-01   3.2831655291597944e-01   3.2802022360227234e-01   3.2797948070117799e-01   3.2768525741038285e-01   3.2764410415263789e-01   3.2735218407182842e-01   3.2731057453233842e-01   3.2702112922193061e-01   3.2697901978020394e-01   3.2669223234004380e-01   3.2664958046442522e-01   3.2632237423082400e-01   3.3835768224716034e-01   3.3802986210359021e-01   3.3788091973628914e-01   3.3770037024988198e-01   3.3755213853348132e-01   3.3736929183677417e-01   3.3722175801113519e-01   3.3703668542870663e-01   3.3688983917443643e-01   3.3670263648261095e-01   3.3655646340437967e-01   3.3636720608901999e-01   3.3622169472420266e-01   3.3603047674237091e-01   3.3588561125742772e-01   3.3569251568322217e-01   3.3554827838470341e-01   3.3535340479164899e-01   3.3520978019630177e-01   3.3501320663836864e-01   3.3487017979202266e-01   3.3467202099493892e-01   3.3452956694516722e-01   3.3432993205026801e-01   3.3418802656833063e-01   3.3398703667409091e-01   3.3384565751638323e-01   3.3364341148752169e-01   3.3350253357845150e-01   3.3329916072145288e-01   3.3315875731088762e-01   3.3295437411323031e-01   3.3281441507377635e-01   3.3260917196086126e-01   3.3246962450709394e-01   3.3226365595832835e-01   3.3212448787639159e-01   3.3191795207289587e-01   3.3177912802993964e-01   3.3157216976087367e-01   3.3143365395043745e-01   3.3122643911362815e-01   3.3108819292159791e-01   3.3088088402352650e-01   3.3074286336382031e-01   3.3053564551040759e-01   3.3039780843927113e-01   3.3019085081823935e-01   3.3005315316613471e-01   3.2984664893249854e-01   3.2970904599518541e-01   3.2950317368100135e-01   3.2936561900451899e-01   3.2916057907902574e-01   3.2902302592015570e-01   3.2881899930284325e-01   3.2868140123147027e-01   3.2847859030747817e-01   3.2834089885973894e-01   3.2813949263134007e-01   3.2800165786143132e-01   3.2780186260044741e-01   3.2766383658140608e-01   3.2746583362145348e-01   3.2732756987944234e-01   3.2713155850765546e-01   3.2699300998736897e-01   3.2679916819428151e-01   3.2666028923322682e-01   3.2646880804933259e-01   3.2632955462476010e-01   3.2614059772365928e-01   3.2600092823335475e-01   3.2581467086120963e-01   3.2567454468047929e-01   3.2535051531920539e-01   3.3716109177784687e-01   3.3683218228969292e-01   3.3658865071026306e-01   3.3650171626925557e-01   3.3625894804044032e-01   3.3616977224162808e-01   3.3592776219223952e-01   3.3583641142571591e-01   3.3559514880116204e-01   3.3550171705014448e-01   3.3526119261701998e-01   3.3516574478486488e-01   3.3492595128938879e-01   3.3482857686660999e-01   3.3458950185942599e-01   3.3449027928900266e-01   3.3425191020783657e-01   3.3415093038471749e-01   3.3391325546137179e-01   3.3381060960419573e-01   3.3357360480405107e-01   3.3346941687858683e-01   3.3323306303809186e-01   3.3312742603989720e-01   3.3289170416772534e-01   3.3278473009384441e-01   3.3254961936861399e-01   3.3244141502509433e-01   3.3220688770359486e-01   3.3209758838909942e-01   3.3186361822901722e-01   3.3175334987297772e-01   3.3151990371880513e-01   3.3140882566720858e-01   3.3117587065737203e-01   3.3106411581194822e-01   3.3083162170262653e-01   3.3071934741944287e-01   3.3048727825933821e-01   3.3037463101499537e-01   3.3014295102909580e-01   3.3003010197545046e-01   3.2979877039898003e-01   3.2968588734180693e-01   3.2945486101508098e-01   3.2934213252391586e-01   3.2911136827875975e-01   3.2899896722344524e-01   3.2876842094576192e-01   3.2865654335009931e-01   3.2842616921440287e-01   3.2831499439322664e-01   3.2808474637577428e-01   3.2797447343251146e-01   3.2774430494014145e-01   3.2763511728830802e-01   3.2740498041357752e-01   3.2729708194421753e-01   3.2706692873474019e-01   3.2696050668821341e-01   3.2673028817951877e-01   3.2662554490476670e-01   3.2639521468996840e-01   3.2629232968339117e-01   3.2606184088257306e-01   3.2596101128271865e-01   3.2573031852730189e-01   3.2563171546509823e-01   3.2540077509630844e-01   3.2530458067024537e-01   3.2507335122500303e-01   3.2497972166998990e-01   3.2474816292427361e-01   3.2465726505192805e-01   3.2442533937341972e-01   3.2410498531340248e-01   3.3568495929555736e-01   3.3535536584327502e-01   3.3502328549620902e-01   3.3502433633762002e-01   3.3469308923390451e-01   3.3469194723123258e-01   3.3436153028665894e-01   3.3435825727208451e-01   3.3402866444756202e-01   3.3402334704670272e-01   3.3369457214279225e-01   3.3368727111661045e-01   3.3335930920847667e-01   3.3335011231234474e-01   3.3302295257215658e-01   3.3301192862159928e-01   3.3268556387618015e-01   3.3267281040027480e-01   3.3234722354743995e-01   3.3233283833145377e-01   3.3200800999762070e-01   3.3199210391077277e-01   3.3166801671547924e-01   3.3165067996953285e-01   3.3132731646137198e-01   3.3130866205697346e-01   3.3098600054041089e-01   3.3096614514837103e-01   3.3064415716840506e-01   3.3062324139836413e-01   3.3030189938770310e-01   3.3028005681707295e-01   3.2995932554466295e-01   3.2993671752710840e-01   3.2961656513465670e-01   3.2959332176051886e-01   3.2927371820305301e-01   3.2924999860345316e-01   3.2893090729464558e-01   3.2890686448046125e-01   3.2858824713825591e-01   3.2856406020492385e-01   3.2824587552649237e-01   3.2822171486512564e-01   3.2790391916834044e-01   3.2787997532146645e-01   3.2756252547194503e-01   3.2753897260218207e-01   3.2722182282875878e-01   3.2719885919642044e-01   3.2688196341903342e-01   3.2685976928343452e-01   3.2654308138943561e-01   3.2652185537021533e-01   3.2620532868706725e-01   3.2618525768356166e-01   3.2586884321894749e-01   3.2585013015325931e-01   3.2553378112671716e-01   3.2551661039051194e-01   3.2520027882407526e-01   3.2518484834988809e-01   3.2486848890151793e-01   3.2485497665053387e-01   3.2453854240945357e-01   3.2452713951649803e-01   3.2421058744721365e-01   3.2420145738259892e-01   3.2388474611694784e-01   3.2387806111750606e-01   3.2356115170942179e-01   3.2355706234645887e-01   3.2323991609837305e-01   3.2323857984380699e-01   3.2292116255605974e-01   3.2260498851136132e-01   3.3394828113537728e-01   3.3361846988633270e-01   3.3320402004926303e-01   3.3328734956340411e-01   3.3287381944039240e-01   3.3295499292374325e-01   3.3254238372194778e-01   3.3262145585614039e-01   3.3220976368602495e-01   3.3228681669138926e-01   3.3187603826135303e-01   3.3195112789924147e-01   3.3154125964025666e-01   3.3161446614763318e-01   3.3120550159142353e-01   3.3127690007430932e-01   3.3086882487039437e-01   3.3093851997189361e-01   3.3053132034656413e-01   3.3059939750425577e-01   3.3019305851628072e-01   3.3025962510685714e-01   3.2985412893214544e-01   3.2991928063902676e-01   3.2951461042748792e-01   3.2957846191149331e-01   3.2917459483539374e-01   3.2923727092583149e-01   3.2883417548588106e-01   3.2889582389631916e-01   3.2849347163091813e-01   3.2855422651882726e-01   3.2815258307029727e-01   3.2821260231312355e-01   3.2781163593871171e-01   3.2787105515868509e-01   3.2747073289623785e-01   3.2752971693727084e-01   3.2713000184036362e-01   3.2718871072976258e-01   3.2678956133875742e-01   3.2684818016857753e-01   3.2644955471207188e-01   3.2650825312155163e-01   3.2611010817515457e-01   3.2616907623899460e-01   3.2577136755439945e-01   3.2583078382243019e-01   3.2543346398033118e-01   3.2549352866624409e-01   3.2509655100212298e-01   3.2515744624269477e-01   3.2476076472920623e-01   3.2482269062632485e-01   3.2442625757522392e-01   3.2448940112527780e-01   3.2409316891004564e-01   3.2415772917029517e-01   3.2376165104777266e-01   3.2382780986103998e-01   3.2343183890862798e-01   3.2349979082970565e-01   3.2310388176198029e-01   3.2317380052831873e-01   3.2277790894792702e-01   3.2284997725749809e-01   3.2245406147206535e-01   3.2252843623701577e-01   3.2213245767670967e-01   3.2220930360114663e-01   3.2181322482216318e-01   3.2189268453881464e-01   3.2149647051910385e-01   3.2157868967402703e-01   3.2118230885211047e-01   3.2087082930291116e-01   3.3197041743459610e-01   3.3164092174445936e-01   3.3115023371407815e-01   3.3131024752509042e-01   3.3082058599905534e-01   3.3097845981027435e-01   3.3048982965254609e-01   3.3064561564646111e-01   3.3015801246828624e-01   3.3031178493179486e-01   3.2982520907888757e-01   3.2997702032058546e-01   3.2949146807925495e-01   3.2964140269192754e-01   3.2915686548341200e-01   3.2930500028179399e-01   3.2882146715976263e-01   3.2896790083939348e-01   3.2848535830883613e-01   3.2863017661498900e-01   3.2814861022866654e-01   3.2829191917640199e-01   3.2781131104843481e-01   3.2795321080538747e-01   3.2747354154330272e-01   3.2761415370997249e-01   3.2713539904825267e-01   3.2727485477565127e-01   3.2679698188468564e-01   3.2693542825918243e-01   3.2645840863400910e-01   3.2659598023330716e-01   3.2611977906061174e-01   3.2625663700278229e-01   3.2578122062750525e-01   3.2591750746767534e-01   3.2544284148977282e-01   3.2557872783159419e-01   3.2510477246275377e-01   3.2524042414056287e-01   3.2476713671634544e-01   3.2490273843238321e-01   3.2443007674543256e-01   3.2456579921533724e-01   3.2409371860582592e-01   3.2422975509701407e-01   3.2375820939955385e-01   3.2389474361139675e-01   3.2342368462113819e-01   3.2356091884320204e-01   3.2309029933154021e-01   3.2322841690135806e-01   3.2275819037277459e-01   3.2289739140495943e-01   3.2242751003996467e-01   3.2256797815474364e-01   3.2209839512679478e-01   3.2224032674699332e-01   3.2177099548312210e-01   3.2191457010395130e-01   3.2144544427405197e-01   3.2159085232274687e-01   3.2112188782567386e-01   3.2126929639759555e-01   3.2080045107153671e-01   3.2095003653889653e-01   3.2048127044994457e-01   3.2063318270863739e-01   3.2016445946910643e-01   3.2031885512886910e-01   3.1985013984113986e-01   3.2000714957401472e-01   3.1953841080752687e-01   3.1969816816334079e-01   3.1922937757422698e-01   3.1892312101447789e-01   3.2977068446411889e-01   3.2944210291552850e-01   3.2888121256934388e-01   3.2911246857849441e-01   3.2855273344972336e-01   3.2878184536844940e-01   3.2822326880696751e-01   3.2845028367094020e-01   3.2789286733569939e-01   3.2811785168616181e-01   3.2756159455431938e-01   3.2778460766581191e-01   3.2722950455296562e-01   3.2745063090200399e-01   3.2689667428056862e-01   3.2711598743664921e-01   3.2656316584032147e-01   3.2678076428945929e-01   3.2622906392433093e-01   3.2644503201846847e-01   3.2589443858890382e-01   3.2610888680488054e-01   3.2555937950168401e-01   3.2577241592001788e-01   3.2522397406505604e-01   3.2543572555390771e-01   3.2488832244885474e-01   3.2509891849328065e-01   3.2455252349129599e-01   3.2476211235370506e-01   3.2421669370720468e-01   3.2442541668733965e-01   3.2388093880493679e-01   3.2408895762182188e-01   3.2354538550959194e-01   3.2375285048527008e-01   3.2321014475838561e-01   3.2341723491564756e-01   3.2287535416205354e-01   3.2308223482709397e-01   3.2254113736176315e-01   3.2274799120834557e-01   3.2220763301514060e-01   3.2241463841411105e-01   3.2187497149058147e-01   3.2208232849662832e-01   3.2154330556909488e-01   3.2175119963363696e-01   3.2121277213697219e-01   3.2142140587122286e-01   3.2088352593937236e-01   3.2109308208501769e-01   3.2055570251437238e-01   3.2076637967410598e-01   3.2022945301993300e-01   3.2044143314134932e-01   3.1990491218980988e-01   3.2011838956281857e-01   3.1958222850963952e-01   3.1979737918504292e-01   3.1926153242729655e-01   3.1947854199057713e-01   3.1894296735272842e-01   3.1916199679781548e-01   3.1862665335998441e-01   3.1884787233590495e-01   3.1831272261957244e-01   3.1853627187759542e-01   3.1800128152306145e-01   3.1822730731612642e-01   3.1769244484872611e-01   3.1792106622543470e-01   3.1738630306914678e-01   3.1761764182547414e-01   3.1708295333538056e-01   3.1678246772793950e-01   3.2736828420292358e-01   3.2704127129896898e-01   3.2641615647020716e-01   3.2671333076801523e-01   3.2608951987994372e-01   3.2638452117193140e-01   3.2576202029314455e-01   3.2605489227812073e-01   3.2543370177279146e-01   3.2572451235918581e-01   3.2510463135999212e-01   3.2539343907474266e-01   3.2477486176942483e-01   3.2506174910574642e-01   3.2444446801099619e-01   3.2472950714710053e-01   3.2411351027292096e-01   3.2439679951492778e-01   3.2378207226371247e-01   3.2406370135673523e-01   3.2345022582843225e-01   3.2373031720431272e-01   3.2311807017333333e-01   3.2339672968185135e-01   3.2278569185713468e-01   3.2306304754118964e-01   3.2245318964155129e-01   3.2272937453154421e-01   3.2212066319176574e-01   3.2239583146702561e-01   3.2178823280901953e-01   3.2206252757271658e-01   3.2145600531356555e-01   3.2172959298642650e-01   3.2112410888510751e-01   3.2139714819450804e-01   3.2079266053494965e-01   3.2106533078486993e-01   3.2046179712200795e-01   3.2073426503398883e-01   3.2013164177234527e-01   3.2040409729215230e-01   3.1980233739363345e-01   3.2007496625574045e-01   3.1947401993026453e-01   3.1974702471215771e-01   3.1914684361573070e-01   3.1942040899589935e-01   3.1882094373241976e-01   3.1909527274237243e-01   3.1849647442291107e-01   3.1877174973714578e-01   3.1817357090648296e-01   3.1844998957561521e-01   3.1785238243295999e-01   3.1813012587517586e-01   3.1753304317072301e-01   3.1781230335610677e-01   3.1721569994793442e-01   3.1749664872555877e-01   3.1690048024658013e-01   3.1718329729961320e-01   3.1658752294946130e-01   3.1687236248987888e-01   3.1627694298153508e-01   3.1656396638520318e-01   3.1596886640883848e-01   3.1625820485742817e-01   3.1566339292503165e-01   3.1595518142109874e-01   3.1536062891161282e-01   3.1565497616339966e-01   3.1506065758854190e-01   3.1535767390675451e-01   3.1476356819579809e-01   3.1446942354681295e-01   3.2478244278426832e-01   3.2445771470859291e-01   3.2377437004442206e-01   3.2413217928000548e-01   3.2345030991180695e-01   3.2380589215847194e-01   3.2312550373226223e-01   3.2347890368006055e-01   3.2279999577770674e-01   3.2315127925738174e-01   3.2247385072024176e-01   3.2282307596368476e-01   3.2214712057281791e-01   3.2249436585046876e-01   3.2181987635691500e-01   3.2216521578879781e-01   3.2149217731428492e-01   3.2183571805272182e-01   3.2116411386768973e-01   3.2150595163411039e-01   3.2083576082169318e-01   3.2117601795935996e-01   3.2050721793710818e-01   3.2084599840666922e-01   3.2017856471541239e-01   3.2051600751494491e-01   3.1984990788924506e-01   3.2018614903627268e-01   3.1952134919758907e-01   3.1985654797240015e-01   3.1919301147808993e-01   3.1952731463728268e-01   3.1886500385189454e-01   3.1919858276950308e-01   3.1853745568176145e-01   3.1887047134626029e-01   3.1821048597344326e-01   3.1854311930354501e-01   3.1788423059496673e-01   3.1821665806412958e-01   3.1755881773940769e-01   3.1789123762279159e-01   3.1723439673300180e-01   3.1756699539373584e-01   3.1691110314507803e-01   3.1724408349026167e-01   3.1658909018383863e-01   3.1692263882272048e-01   3.1626849334673296e-01   3.1660281337743340e-01   3.1594946626167730e-01   3.1628474129131101e-01   3.1563214395567901e-01   3.1596857098750164e-01   3.1531667556156995e-01   3.1565443454326242e-01   3.1500319384614439e-01   3.1534247273179239e-01   3.1469184243680765e-01   3.1503280789396143e-01   3.1438274442110536e-01   3.1472556976864441e-01   3.1407603379047921e-01   3.1442086633901101e-01   3.1377182029076117e-01   3.1411881174667372e-01   3.1347022279333703e-01   3.1381949548205179e-01   3.1317133433403105e-01   3.1352301340115868e-01   3.1287525455683479e-01   3.1322943759855337e-01   3.1258205867464278e-01   3.1293884248531562e-01   3.1229182633174996e-01   3.1200460958051884e-01   3.2203267748108955e-01   3.2171100582685486e-01   3.2097555450477139e-01   3.2138864220756991e-01   3.2065485785416492e-01   3.2106564099270613e-01   3.2033352784579955e-01   3.2074205072306577e-01   3.2001160846269505e-01   3.2041793485882297e-01   3.1968916076880949e-01   3.2009334934144840e-01   3.1936623790871432e-01   3.1976836214163007e-01   3.1904290588764633e-01   3.1944305252510863e-01   3.1871922860585450e-01   3.1911750919684551e-01   3.1839530173695169e-01   3.1879180911218002e-01   3.1807119474387735e-01   3.1846604895120650e-01   3.1774700403025202e-01   3.1814032122905161e-01   3.1742281326584232e-01   3.1781474473892457e-01   3.1709874050130188e-01   3.1748942322920687e-01   3.1677488693927380e-01   3.1716448294774485e-01   3.1645137609784763e-01   3.1684003395966120e-01   3.1612831558056792e-01   3.1651621303928118e-01   3.1580583811515511e-01   3.1619314080461391e-01   3.1548406476345320