<?xml version="1.0"?>
<VTKFile type="UnstructuredGrid"  version="0.1"  >
<UnstructuredGrid>
<Piece  NumberOfPoints="2488" NumberOfCells="4774">
<Points>
<DataArray  type="Float64"  NumberOfComponents="3"  format="ascii">0 0 0  0.008260869565217391 0 0  0.008260869565217391 0.008333333333333333 0  0 0.008333333333333333 0  0.01652173913043478 0 0  0.01652173913043478 0.008333333333333333 0  0.02478260869565217 0 0  0.02478260869565217 0.008333333333333333 0  0.03304347826086956 0 0  0.03304347826086956 0.008333333333333333 0  0.04130434782608695 0 0  0.04130434782608695 0.008333333333333333 0  0.04956521739130434 0 0  0.04956521739130434 0.008333333333333333 0  0.05782608695652174 0 0  0.05782608695652174 0.008333333333333333 0  0.06608695652173913 0 0  0.06608695652173913 0.008333333333333333 0  0.07434782608695652 0 0  0.07434782608695652 0.008333333333333333 0  0.08260869565217391 0 0  0.08260869565217391 0.008333333333333333 0  0.0908695652173913 0 0  0.0908695652173913 0.008333333333333333 0  0.09913043478260869 0 0  0.09913043478260869 0.008333333333333333 0  0.1073913043478261 0 0  0.1073913043478261 0.008333333333333333 0  0.1156521739130435 0 0  0.1156521739130435 0.008333333333333333 0  0.1239130434782609 0 0  0.1239130434782609 0.008333333333333333 0  0.1321739130434783 0 0  0.1321739130434783 0.008333333333333333 0  0.1404347826086956 0 0  0.1404347826086956 0.008333333333333333 0  0.148695652173913 0 0  0.148695652173913 0.008333333333333333 0  0.1569565217391304 0 0  0.1569565217391304 0.008333333333333333 0  0.1652173913043478 0 0  0.1652173913043478 0.008333333333333333 0  0.1734782608695652 0 0  0.1734782608695652 0.008333333333333333 0  0.1817391304347826 0 0  0.1817391304347826 0.008333333333333333 0  0.19 0 0  0.19 0.008333333333333333 0  0.1982608695652174 0 0  0.1982608695652174 0.008333333333333333 0  0.2065217391304348 0 0  0.2065217391304348 0.008333333333333333 0  0.2147826086956522 0 0  0.2147826086956522 0.008333333333333333 0  0.2230434782608696 0 0  0.2230434782608696 0.008333333333333333 0  0.2313043478260869 0.008333333333333333 0  0.008260869565217391 0.01666666666666667 0  0 0.01666666666666667 0  0.01652173913043478 0.01666666666666667 0  0.02478260869565217 0.01666666666666667 0  0.03304347826086956 0.01666666666666667 0  0.04130434782608695 0.01666666666666667 0  0.04956521739130434 0.01666666666666667 0  0.05782608695652174 0.01666666666666667 0  0.06608695652173913 0.01666666666666667 0  0.07434782608695652 0.01666666666666667 0  0.08260869565217391 0.01666666666666667 0  0.0908695652173913 0.01666666666666667 0  0.09913043478260869 0.01666666666666667 0  0.1073913043478261 0.01666666666666667 0  0.1156521739130435 0.01666666666666667 0  0.1239130434782609 0.01666666666666667 0  0.1321739130434783 0.01666666666666667 0  0.1404347826086956 0.01666666666666667 0  0.148695652173913 0.01666666666666667 0  0.1569565217391304 0.01666666666666667 0  0.1652173913043478 0.01666666666666667 0  0.1734782608695652 0.01666666666666667 0  0.1817391304347826 0.01666666666666667 0  0.19 0.01666666666666667 0  0.1982608695652174 0.01666666666666667 0  0.2065217391304348 0.01666666666666667 0  0.2147826086956522 0.01666666666666667 0  0.2230434782608696 0.01666666666666667 0  0.2313043478260869 0.01666666666666667 0  0.2395652173913043 0.01666666666666667 0  0.008260869565217391 0.025 0  0 0.025 0  0.01652173913043478 0.025 0  0.02478260869565217 0.025 0  0.03304347826086956 0.025 0  0.04130434782608695 0.025 0  0.04956521739130434 0.025 0  0.05782608695652174 0.025 0  0.06608695652173913 0.025 0  0.07434782608695652 0.025 0  0.08260869565217391 0.025 0  0.0908695652173913 0.025 0  0.09913043478260869 0.025 0  0.1073913043478261 0.025 0  0.1156521739130435 0.025 0  0.1239130434782609 0.025 0  0.1321739130434783 0.025 0  0.1404347826086956 0.025 0  0.148695652173913 0.025 0  0.1569565217391304 0.025 0  0.1652173913043478 0.025 0  0.1734782608695652 0.025 0  0.1817391304347826 0.025 0  0.19 0.025 0  0.1982608695652174 0.025 0  0.2065217391304348 0.025 0  0.2147826086956522 0.025 0  0.2230434782608696 0.025 0  0.2313043478260869 0.025 0  0.2395652173913043 0.025 0  0.2478260869565218 0.025 0  0.008260869565217391 0.03333333333333333 0  0 0.03333333333333333 0  0.01652173913043478 0.03333333333333333 0  0.02478260869565217 0.03333333333333333 0  0.03304347826086956 0.03333333333333333 0  0.04130434782608695 0.03333333333333333 0  0.04956521739130434 0.03333333333333333 0  0.05782608695652174 0.03333333333333333 0  0.06608695652173913 0.03333333333333333 0  0.07434782608695652 0.03333333333333333 0  0.08260869565217391 0.03333333333333333 0  0.0908695652173913 0.03333333333333333 0  0.09913043478260869 0.03333333333333333 0  0.1073913043478261 0.03333333333333333 0  0.1156521739130435 0.03333333333333333 0  0.1239130434782609 0.03333333333333333 0  0.1321739130434783 0.03333333333333333 0  0.1404347826086956 0.03333333333333333 0  0.148695652173913 0.03333333333333333 0  0.1569565217391304 0.03333333333333333 0  0.1652173913043478 0.03333333333333333 0  0.1734782608695652 0.03333333333333333 0  0.1817391304347826 0.03333333333333333 0  0.19 0.03333333333333333 0  0.1982608695652174 0.03333333333333333 0  0.2065217391304348 0.03333333333333333 0  0.2147826086956522 0.03333333333333333 0  0.2230434782608696 0.03333333333333333 0  0.2313043478260869 0.03333333333333333 0  0.2395652173913043 0.03333333333333333 0  0.2478260869565218 0.03333333333333333 0  0.2560869565217391 0.03333333333333333 0  0.008260869565217391 0.04166666666666666 0  0 0.04166666666666666 0  0.01652173913043478 0.04166666666666666 0  0.02478260869565217 0.04166666666666666 0  0.03304347826086956 0.04166666666666666 0  0.04130434782608695 0.04166666666666666 0  0.04956521739130434 0.04166666666666666 0  0.05782608695652174 0.04166666666666666 0  0.06608695652173913 0.04166666666666666 0  0.07434782608695652 0.04166666666666666 0  0.08260869565217391 0.04166666666666666 0  0.0908695652173913 0.04166666666666666 0  0.09913043478260869 0.04166666666666666 0  0.1073913043478261 0.04166666666666666 0  0.1156521739130435 0.04166666666666666 0  0.1239130434782609 0.04166666666666666 0  0.1321739130434783 0.04166666666666666 0  0.1404347826086956 0.04166666666666666 0  0.148695652173913 0.04166666666666666 0  0.1569565217391304 0.04166666666666666 0  0.1652173913043478 0.04166666666666666 0  0.1734782608695652 0.04166666666666666 0  0.1817391304347826 0.04166666666666666 0  0.19 0.04166666666666666 0  0.1982608695652174 0.04166666666666666 0  0.2065217391304348 0.04166666666666666 0  0.2147826086956522 0.04166666666666666 0  0.2230434782608696 0.04166666666666666 0  0.2313043478260869 0.04166666666666666 0  0.2395652173913043 0.04166666666666666 0  0.2478260869565218 0.04166666666666666 0  0.2560869565217391 0.04166666666666666 0  0.008260869565217391 0.05 0  0 0.05 0  0.01652173913043478 0.05 0  0.02478260869565217 0.05 0  0.03304347826086956 0.05 0  0.04130434782608695 0.05 0  0.04956521739130434 0.05 0  0.05782608695652174 0.05 0  0.06608695652173913 0.05 0  0.07434782608695652 0.05 0  0.08260869565217391 0.05 0  0.0908695652173913 0.05 0  0.09913043478260869 0.05 0  0.1073913043478261 0.05 0  0.1156521739130435 0.05 0  0.1239130434782609 0.05 0  0.1321739130434783 0.05 0  0.1404347826086956 0.05 0  0.148695652173913 0.05 0  0.1569565217391304 0.05 0  0.1652173913043478 0.05 0  0.1734782608695652 0.05 0  0.1817391304347826 0.05 0  0.19 0.05 0  0.1982608695652174 0.05 0  0.2065217391304348 0.05 0  0.2147826086956522 0.05 0  0.2230434782608696 0.05 0  0.2313043478260869 0.05 0  0.2395652173913043 0.05 0  0.2478260869565218 0.05 0  0.2560869565217391 0.05 0  0.2643478260869565 0.05 0  0.008260869565217391 0.05833333333333333 0  0 0.05833333333333333 0  0.01652173913043478 0.05833333333333333 0  0.02478260869565217 0.05833333333333333 0  0.03304347826086956 0.05833333333333333 0  0.04130434782608695 0.05833333333333333 0  0.04956521739130434 0.05833333333333333 0  0.05782608695652174 0.05833333333333333 0  0.06608695652173913 0.05833333333333333 0  0.07434782608695652 0.05833333333333333 0  0.08260869565217391 0.05833333333333333 0  0.0908695652173913 0.05833333333333333 0  0.09913043478260869 0.05833333333333333 0  0.1073913043478261 0.05833333333333333 0  0.1156521739130435 0.05833333333333333 0  0.1239130434782609 0.05833333333333333 0  0.1321739130434783 0.05833333333333333 0  0.1404347826086956 0.05833333333333333 0  0.148695652173913 0.05833333333333333 0  0.1569565217391304 0.05833333333333333 0  0.1652173913043478 0.05833333333333333 0  0.1734782608695652 0.05833333333333333 0  0.1817391304347826 0.05833333333333333 0  0.19 0.05833333333333333 0  0.1982608695652174 0.05833333333333333 0  0.2065217391304348 0.05833333333333333 0  0.2147826086956522 0.05833333333333333 0  0.2230434782608696 0.05833333333333333 0  0.2313043478260869 0.05833333333333333 0  0.2395652173913043 0.05833333333333333 0  0.2478260869565218 0.05833333333333333 0  0.2560869565217391 0.05833333333333333 0  0.2643478260869565 0.05833333333333333 0  0.008260869565217391 0.06666666666666667 0  0 0.06666666666666667 0  0.01652173913043478 0.06666666666666667 0  0.02478260869565217 0.06666666666666667 0  0.03304347826086956 0.06666666666666667 0  0.04130434782608695 0.06666666666666667 0  0.04956521739130434 0.06666666666666667 0  0.05782608695652174 0.06666666666666667 0  0.06608695652173913 0.06666666666666667 0  0.07434782608695652 0.06666666666666667 0  0.08260869565217391 0.06666666666666667 0  0.0908695652173913 0.06666666666666667 0  0.09913043478260869 0.06666666666666667 0  0.1073913043478261 0.06666666666666667 0  0.1156521739130435 0.06666666666666667 0  0.1239130434782609 0.06666666666666667 0  0.1321739130434783 0.06666666666666667 0  0.1404347826086956 0.06666666666666667 0  0.148695652173913 0.06666666666666667 0  0.1569565217391304 0.06666666666666667 0  0.1652173913043478 0.06666666666666667 0  0.1734782608695652 0.06666666666666667 0  0.18173913
[...]
<PointData  Vectors="Displacement"> 
<DataArray  type="Float64"  Name="Displacement"  NumberOfComponents="3" format="ascii">0.0000000000000000e+00 0.0000000000000000e+00 0.0000000000000000e+00  3.0756288852917769e-06 1.7531683823094549e-06 0.0000000000000000e+00  2.1677291660166054e-06 9.8363967772333419e-07 0.0000000000000000e+00  0.0000000000000000e+00 0.0000000000000000e+00 0.0000000000000000e+00  5.7579442218221935e-06 3.0464248082930103e-06 0.0000000000000000e+00  4.5206831628408270e-06 2.2456399624047158e-06 0.0000000000000000e+00  8.3521422395177451e-06 4.4662499270227531e-06 0.0000000000000000e+00  6.8195746324516788e-06 3.6681184334547961e-06 0.0000000000000000e+00  1.0923805802585138e-05 6.1468331771432872e-06 0.0000000000000000e+00  9.0747387681867942e-06 5.3516892720064595e-06 0.0000000000000000e+00  1.3490093612515524e-05 8.1439019777678014e-06 0.0000000000000000e+00  1.1301150765760435e-05 7.3510310945599014e-06 0.0000000000000000e+00  1.6055002774150109e-05 1.0486865676380090e-05 0.0000000000000000e+00  1.3507814018525090e-05 9.6959776359021488e-06 0.0000000000000000e+00  1.8618654205720985e-05 1.3193752966383175e-05 0.0000000000000000e+00  1.5699454446902605e-05 1.2404887489335680e-05 0.0000000000000000e+00  2.1180000604731486e-05 1.6276950721723269e-05 0.0000000000000000e+00  1.7878233086366266e-05 1.5490345528471648e-05 0.0000000000000000e+00  2.3737750197610799e-05 1.9745660017509926e-05 0.0000000000000000e+00  2.0044929130301959e-05 1.8961592189020982e-05 0.0000000000000000e+00  2.6290635602139318e-05 2.3607437027697972e-05 0.0000000000000000e+00  2.2199554976737070e-05 2.2826180270806120e-05 0.0000000000000000e+00  2.8837262686296853e-05 2.7869246666514515e-05 0.0000000000000000e+00  2.4341521690090090e-05 2.7091148884135928e-05 0.0000000000000000e+00  3.1375588054439836e-05 3.2538132577980901e-05 0.0000000000000000e+00  2.6469414480651291e-05 3.1763862492174788e-05 0.0000000000000000e+00  3.3902674008123140e-05 3.7620586429417039e-05 0.0000000000000000e+00  2.8581054268188348e-05 3.6851115871153564e-05 0.0000000000000000e+00  3.6414945749362343e-05 4.3121800559309798e-05 0.0000000000000000e+00  3.0673860926373665e-05 4.2358189240644527e-05 0.0000000000000000e+00  3.8908325768397678e-05 4.9045920927145437e-05 0.0000000000000000e+00  3.2744926688410202e-05 4.8289300817991703e-05 0.0000000000000000e+00  4.1377823615648745e-05 5.5396574081164797e-05 0.0000000000000000e+00  3.4790650130726615e-05 5.4648392196524764e-05 0.0000000000000000e+00  4.3816740433553515e-05 6.2176752577356982e-05 0.0000000000000000e+00  3.6806141203705060e-05 6.1439171400304640e-05 0.0000000000000000e+00  4.6217314479635930e-05 6.9385908809249929e-05 0.0000000000000000e+00  3.8786165981109131e-05 6.8661123273228551e-05 0.0000000000000000e+00  4.8571385549546905e-05 7.7020292964476928e-05 0.0000000000000000e+00  4.0725548765788054e-05 7.6310394411919553e-05 0.0000000000000000e+00  5.0870061821018315e-05 8.5073881248338181e-05 0.0000000000000000e+00  4.2618780173802255e-05 8.4381140693373500e-05 0.0000000000000000e+00  5.3102173698658837e-05 9.3539079815292179e-05 0.0000000000000000e+00  4.4458673040205457e-05 9.2866851615597501e-05 0.0000000000000000e+00  5.5254657493182738e-05 1.0240225778639797e-04 0.0000000000000000e+00  4.6237256535618931e-05 1.0175425227774484e-04 0.0000000000000000e+00  5.7313957287216902e-05 1.1164254711509811e-04 0.0000000000000000e+00  4.7946800373496278e-05 1.1102230452078329e-04 0.0000000000000000e+00  5.9266655061398257e-05 1.2123277442533261e-04 0.0000000000000000e+00  4.9579921625952056e-05 1.2064371275240888e-04 0.0000000000000000e+00  6.1099153837806838e-05 1.3114028874062749e-04 0.0000000000000000e+00  5.1129022519870942e-05 1.3058609260277639e-04 0.0000000000000000e+00  6.2797720505293058e-05 1.4132593986858924e-04 0.0000000000000000e+00  5.2586249821056360e-05 1.4081053720364480e-04 0.0000000000000000e+00  6.4350461105104869e-05 1.5174179441790120e-04 0.0000000000000000e+00  5.3945179572678761e-05 1.5126818616513450e-04 0.0000000000000000e+00  5.5201060427779929e-05 1.6190472511141675e-04 0.0000000000000000e+00  1.6882385844314332e-06 5.9443244452458967e-07 0.0000000000000000e+00  0.0000000000000000e+00 0.0000000000000000e+00 0.0000000000000000e+00  3.5323009592021967e-06 1.6361307670047156e-06 0.0000000000000000e+00  5.4271878827111081e-06 3.0053160208452198e-06 0.0000000000000000e+00  7.3088300114349598e-06 4.6788911693564737e-06 0.0000000000000000e+00  9.1660478150184733e-06 6.6794215555585211e-06 0.0000000000000000e+00  1.0999804710686062e-05 9.0282377883737377e-06 0.0000000000000000e+00  1.2812624611962916e-05 1.1741611776445643e-05 0.0000000000000000e+00  1.4606277879764760e-05 1.4831738927699748e-05 0.0000000000000000e+00  1.6381832129853377e-05 1.8307607419723978e-05 0.0000000000000000e+00  1.8139911074135050e-05 2.2176590772917757e-05 0.0000000000000000e+00  1.9880659567508885e-05 2.6445757194383933e-05 0.0000000000000000e+00  2.1603152885740627e-05 3.1123175164046950e-05 0.0000000000000000e+00  2.3305645831724598e-05 3.6216048442338391e-05 0.0000000000000000e+00  2.4986506821601374e-05 4.1729306227487263e-05 0.0000000000000000e+00  2.6644389149858948e-05 4.7666854309837432e-05 0.0000000000000000e+00  2.8277426045043026e-05 5.4033057103798655e-05 0.0000000000000000e+00  2.9881877747902808e-05 6.0833262548118864e-05 0.0000000000000000e+00  3.1454539594189630e-05 6.8065986402141913e-05 0.0000000000000000e+00  3.2993632675617178e-05 7.5726367181856060e-05 0.0000000000000000e+00  3.4497914752454094e-05 8.3808465989270440e-05 0.0000000000000000e+00  3.5963540096510390e-05 9.2308588526008239e-05 0.0000000000000000e+00  3.7386310795393677e-05 1.0121329995965067e-04 0.0000000000000000e+00  3.8763712363213612e-05 1.1050034052531375e-04 0.0000000000000000e+00  4.0094449333695630e-05 1.2014200411942784e-04 0.0000000000000000e+00  4.1376473676732262e-05 1.3010710133026237e-04 0.0000000000000000e+00  4.2606207203594443e-05 1.4035810355273099e-04 0.0000000000000000e+00  4.3781723805094270e-05 1.5084404345160209e-04 0.0000000000000000e+00  4.4902124577565004e-05 1.6150990272842912e-04 0.0000000000000000e+00  4.5967384530666791e-05 1.7229669740491746e-04 0.0000000000000000e+00  1.2975601099662807e-06 3.6170727404024660e-07 0.0000000000000000e+00  0.0000000000000000e+00 0.0000000000000000e+00 0.0000000000000000e+00  2.7000010296897603e-06 1.2311571664139950e-06 0.0000000000000000e+00  4.1611404824016714e-06 2.5105593734494319e-06 0.0000000000000000e+00  5.6364124460053994e-06 4.1514287230918691e-06 0.0000000000000000e+00  7.1015502649921550e-06 6.1426807193904937e-06 0.0000000000000000e+00  8.5484256804045101e-06 8.4909687576281789e-06 0.0000000000000000e+00  9.9746499114319746e-06 1.1207433883445869e-05 0.0000000000000000e+00  1.1379320201547979e-05 1.4302452114926470e-05 0.0000000000000000e+00  1.2762399355895447e-05 1.7783620483627236e-05 0.0000000000000000e+00  1.4124503998677235e-05 2.1657390359869438e-05 0.0000000000000000e+00  1.5466333014828465e-05 2.5930558499745143e-05 0.0000000000000000e+00  1.6786962335519904e-05 3.0612685285268890e-05 0.0000000000000000e+00  1.8084437666558087e-05 3.5711524497481055e-05 0.0000000000000000e+00  1.9357986931185466e-05 4.1230658644882324e-05 0.0000000000000000e+00  2.0608305104928775e-05 4.7172976157112772e-05 0.0000000000000000e+00  2.1835549971180715e-05 5.3543747591740323e-05 0.0000000000000000e+00  2.3035858288574126e-05 6.0352306870334008e-05 0.0000000000000000e+00  2.4207435326363394e-05 6.7593904947903818e-05 0.0000000000000000e+00  2.5352366072762951e-05 7.5260940917708149e-05 0.0000000000000000e+00  2.6474728975965228e-05 8.3347006330495549e-05 0.0000000000000000e+00  2.7572869635063189e-05 9.1855498720077179e-05 0.0000000000000000e+00  2.8645141127446973e-05 1.0077148255518392e-04 0.0000000000000000e+00  2.9694215217592419e-05 1.1006921807613485e-04 0.0000000000000000e+00  3.0725839034615041e-05 1.1972001933672811e-04 0.0000000000000000e+00  3.1743837729093408e-05 1.2969593362882766e-04 0.0000000000000000e+00  3.2747859418093436e-05 1.3996309969091988e-04 0.0000000000000000e+00  3.3740870069830425e-05 1.5046542706911297e-04 0.0000000000000000e+00  3.4726091054162893e-05 1.6114776162039861e-04 0.0000000000000000e+00  3.5706482731443557e-05 1.7194977807493249e-04 0.0000000000000000e+00  3.6684614960753086e-05 1.8281125051026375e-04 0.0000000000000000e+00  9.3798215733942847e-07 2.2146858357643645e-07 0.0000000000000000e+00  0.0000000000000000e+00 0.0000000000000000e+00 0.0000000000000000e+00  1.9393178595644838e-06 9.7438381334023978e-07 0.0000000000000000e+00  2.9835817460979045e-06 2.1764211450341036e-06 0.0000000000000000e+00  4.0463592679374686e-06 3.7758181688442536e-06 0.0000000000000000e+00  5.1090273704565809e-06 5.7482598794934555e-06 0.0000000000000000e+00  6.1607987404034651e-06 8.0893473777349010e-06 0.0000000000000000e+00  7.1952898522898525e-06 1.0805321442466802e-05 0.0000000000000000e+00  8.2080753254045222e-06 1.3904099221020110e-05 0.0000000000000000e+00  9.1973091913994633e-06 1.7390238274356030e-05 0.0000000000000000e+00  1.0163485212666235e-05 2.1268067752789578e-05 0.0000000000000000e+00  1.1108144102058730e-05 2.5543642877862560e-05 0.0000000000000000e+00  1.2029586197690139e-05 3.0230017808785568e-05 0.0000000000000000e+00  1.2924311644283994e-05 3.5335653755859160e-05 0.0000000000000000e+00  1.3792146613363303e-05 4.0860405010709247e-05 0.0000000000000000e+00  1.4636881860675199e-05 4.6804725270113844e-05 0.0000000000000000e+00  1.5461687958387476e-05 5.3176148918237185e-05 0.0000000000000000e+00  1.6259975092718580e-05 5.9993932794762181e-05 0.0000000000000000e+00  1.7030112962020812e-05 6.7244295745108181e-05 0.0000000000000000e+00  1.7778597210034245e-05 7.4913604471334714e-05 0.0000000000000000e+00  1.8517170052342764e-05 8.2994069393712224e-05 0.0000000000000000e+00  1.9244347401448528e-05 9.1506537728583355e-05 0.0000000000000000e+00  1.9959500770765116e-05 1.0043056516466597e-04 0.0000000000000000e+00  2.0670258273589165e-05 1.0973194656459523e-04 0.0000000000000000e+00  2.1391564807224183e-05 1.1937951163302660e-04 0.0000000000000000e+00  2.2135332822899097e-05 1.2935333210711825e-04 0.0000000000000000e+00  2.2902943569623062e-05 1.3962798486742977e-04 0.0000000000000000e+00  2.3704107114298993e-05 1.5013413954651216e-04 0.0000000000000000e+00  2.4547777879918482e-05 1.6081963399660869e-04 0.0000000000000000e+00  2.5440303182265772e-05 1.7162210363293811e-04 0.0000000000000000e+00  2.6385499140502468e-05 1.8248048042438878e-04 0.0000000000000000e+00  2.7384326381602518e-05 1.9334088447509144e-04 0.0000000000000000e+00  5.9412178706603236e-07 1.4750382218488142e-07 0.0000000000000000e+00  0.0000000000000000e+00 0.0000000000000000e+00 0.0000000000000000e+00  1.2173092230927578e-06 8.3275133091432881e-07 0.0000000000000000e+00  1.8629329482821277e-06 1.9824569928737220e-06 0.0000000000000000e+00  2.5208165689317680e-06 3.5462111209452622e-06 0.0000000000000000e+00  3.1815426965529510e-06 5.4960267829410878e-06 0.0000000000000000e+00  3.8371944047825889e-06 7.8240267418647921e-06 0.0000000000000000e+00  4.4794086289455778e-06 1.0535684857673681e-05 0.0000000000000000e+00  5.0999030347365221e-06 1.3637406466420058e-05 0.0000000000000000e+00  5.6947973746807308e-06 1.7128244971823526e-05 0.0000000000000000e+00  6.2650030240812772e-06 2.1008558362513705e-05 0.0000000000000000e+00  6.8143183190221603e-06 2.5282895811213934e-05 0.0000000000000000e+00  7.3392567152764614e-06 2.9973018024552922e-05 0.0000000000000000e+00  7.8323892092739092e-06 3.5088498114545982e-05 0.0000000000000000e+00  8.2932565366475581e-06 4.0619916806498203e-05 0.0000000000000000e+00  8.7303960180059547e-06 4.6561835143712002e-05 0.0000000000000000e+00  9.1529492924746296e-06 5.2926862368404979e-05 0.0000000000000000e+00  9.5472821977182168e-06 5.9759407480465672e-05 0.0000000000000000e+00  9.9105480753349942e-06 6.7022836099688219e-05 0.0000000000000000e+00  1.0252612361292790e-05 7.4691389157240199e-05 0.0000000000000000e+00  1.0596718407855164e-05 8.2751926887360302e-05 0.0000000000000000e+00  1.0938297464473940e-05 9.1267507322496111e-05 0.0000000000000000e+00  1.1278379941349012e-05 1.0020159399133078e-04 0.0000000000000000e+00  1.1628976647725471e-05 1.0950375449906713e-04 0.0000000000000000e+00  1.2011547882512047e-05 1.1913297213875403e-04 0.0000000000000000e+00  1.2453887652399198e-05 1.2908756877659378e-04 0.0000000000000000e+00  1.2960893367895998e-05 1.3936482853557037e-04 0.0000000000000000e+00  1.3548644699566684e-05 1.4985871435404456e-04 0.0000000000000000e+00  1.4235343320360182e-05 1.6052997082909877e-04 0.0000000000000000e+00  1.5035853689520355e-05 1.7131501553611440e-04 0.0000000000000000e+00  1.5950718973039634e-05 1.8215123979404380e-04 0.0000000000000000e+00  1.6975862199308462e-05 1.9298752333061546e-04 0.0000000000000000e+00  2.6033024169436858e-07 1.2754417878754231e-07 0.0000000000000000e+00  0.0000000000000000e+00 0.0000000000000000e+00 0.0000000000000000e+00  5.1982961197819953e-07 7.8851784376253387e-07 0.0000000000000000e+00  7.8116435849203437e-07 1.9133232024134004e-06 0.0000000000000000e+00  1.0447021621059911e-06 3.4533817871214081e-06 0.0000000000000000e+00  1.3101614823997411e-06 5.3808495708428455e-06 0.0000000000000000e+00  1.5747712116224835e-06 7.6908370961447097e-06 0.0000000000000000e+00  1.8292406641539143e-06 1.0395245600406914e-05 0.0000000000000000e+00  2.0603837415776015e-06 1.3501547299606365e-05 0.0000000000000000e+00  2.2620247207504064e-06 1.6998542314151986e-05 0.0000000000000000e+00  2.4363176028790766e-06 2.0879406754079272e-05 0.0000000000000000e+00  2.5924899672498488e-06 2.5144929484892179e-05 0.0000000000000000e+00  2.7241319533848893e-06 2.9838338467251355e-05 0.0000000000000000e+00  2.8167714050248314e-06 3.4971455920377943e-05 0.0000000000000000e+00  2.8685738406693914e-06 4.0514709933480667e-05 0.0000000000000000e+00  2.8921436832172766e-06 4.6447833560794734e-05 0.0000000000000000e+00  2.9079991984095876e-06 5.2791367062890828e-05 0.0000000000000000e+00  2.8901665992919642e-06 5.9652217060450334e-05 0.0000000000000000e+00  2.8398233917333342e-06 6.6939630459601833e-05 0.0000000000000000e+00  2.7648228853618911e-06 7.4610661836653372e-05 0.0000000000000000e+00  2.6951250948126642e-06 8.2627612811703082e-05 0.0000000000000000e+00  2.6173955224505014e-06 9.1151952170306355e-05 0.0000000000000000e+00  2.5495997045149434e-06 1.0010230076832329e-04 0.0000000000000000e+00  2.5145555063387473e-06 1.0941010311992217e-04 0.0000000000000000e+00  2.5237657465502766e-06 1.1901458277174779e-04 0.0000000000000000e+00  2.5920772053698636e-06 1.2891382638878797e-04 0.0000000000000000e+00  2.7982221955131346e-06 1.3919426115694368e-04 0.0000000000000000e+00  3.1503676158238737e-06 1.4966091271551170e-04 0.0000000000000000e+00  3.6387823375844459e-06 1.6028675485307240e-04 0.0000000000000000e+00  4.3421393229436705e-06 1.7102451748135386e-04 0.0000000000000000e+00  5.2475418677385938e-06 1.8182013078014652e-04 0.0000000000000000e+00  6.3085262327239956e-06 1.9261205911211165e-04 0.0000000000000000e+00  7.5276940143529523e-06 2.0335729385249012e-04 0.0000000000000000e+00  -6.6738714061867837e-08 1.5637206219452009e-07 0.0000000000000000e+00  0.0000000000000000e+00 0.0000000000000000e+00 0.0000000000000000e+00  -1.6105591669216210e-07 8.3311191321621207e-07 0.0000000000000000e+00  -2.7227904319858330e-07 1.9600492980075223e-06 0.0000000000000000e+00  -3.9191842989137226e-07 3.4900343283661224e-06 0.0000000000000000e+00  -5.1189213978759462e-07 5.3959232107681873e-06 0.0000000000000000e+00  -6.2911761983563062e-07 7.6815698737001326e-06 0.0000000000000000e+00  -7.5393674180919469e-07 1.0376293754312884e-05 0.0000000000000000e+00  -9.0571421948517632e-07 1.3493707626370859e-05 0.0000000000000000e+00  -1.0934786976206978e-06 1.7002298856829841e-05 0.0000000000000000e+00  -1.3139714935570526e-06 2.0882804945096534e-05 0.0000000000000000e+00  -1.5480159121415989e-06 2.5124453537270831e-05 0.0000000000000000e+00  -1.8083979203653778e-06 2.9819878514637329e-05 0.0000000000000000e+00  -2.1158559320072042e-06 3.4985546723446183e-05 0.0000000000000000e+00  -2.4713610066423508e-06 4.0552171444860567e-05 0.0000000000000000e+00  -2.8603195956485143e-06 4.6474472058653258e-05 0.0000000000000000e+00  -3.2673168796055413e-06 5.2764522286918187e-05 0.0000000000000000e+00  -3.7281568404896378e-06 5.9679524881132274e-05 0.0000000000000000e+00  -4.2008636505343719e-06 6.6998523377688978e-05 0.0000000000000000e+00  -4.6757956418883842e-06 7.4690377439521238e-05 0.0000000000000000e+00  -5.1583454853560062e-06 8.2641649831441706e-05 0.0000000000000000e+00  -5.7504341096486646e-06 9.1185880619219962e-05 0.0000000000000000e+00  -6.2775640299183342e-06 1.0014420166565070e-04 0.0000000000000000e+00  -6.6889818586123124e-06 1.0943463821324191e-04 0.0000000000000000e+00  -6.9480211719156477e-06 1.1898822579029962e-04 0.0000000000000000e+00  -7.1509740057505189e-06 1.2883260515052550e-04 0.0000000000000000e+00  -7.4479244698890195e-06 1.3911248635628897e-04 0.0000000000000000e+00  -7.3742708106851731e-06 1.4954317142658585e-04 0.0000000000000000e+00  -7.1495137334111037e-06 1.6011823277599846e-04 0.0000000000000000e+00  -6.4896563864381573e-06 1.7079035900895639e-04 0.0000000000000000e+00  -5.6389206860347167e-06 1.8151820799260435e-04 0.0000000000000000e+00  -2.2611236566663520e-06 1.9153638057444925e-04 0.0000000000000000e+00  -1.2728527841800996e-07 2.0196105870465072e-04 0.0000000000000000e+00  -3.9196304264959692e-07 2.3409741327051831e-07 0.0000000000000000e+00  0.0000000000000000e+00 0.0000000000000000e+00 0.0000000000000000e+00  -8.3387183843638765e-07 9.6383743656195241e-07 0.0000000000000000e+00  -1.3056290910774070e-06 2.1182399443277970e-06 0.0000000000000000e+00  -1.7946674451271459e-06 3.6515586517532765e-06 0.0000000000000000e+00  -2.2858048992543918e-06 5.5347058915837378e-06 0.0000000000000000e+00  -2.7723886918455105e-06 7.7855125394057204e-06 0.0000000000000000e+00  -3.2686611312843696e-06 1.0467073178849387e-05 0.0000000000000000e+00  -3.7979029611573971e-06 1.3607592662817320e-05 0.0000000000000000e+00  -4.3632285726828253e-06 1.7140435293879011e-05 0.0000000000000000e+00  -4.9729497717994700e-06 2.1022992610140376e-05 0.0000000000000000e+00  -5.5870776589152846e-06 2.5214916440650807e-05 0.0000000000000000e+00  -6.2491909144789718e-06 2.9912803069044712e-05 0.0000000000000000e+00  -6.9746378151721812e-06 3.5127656274296189e-05 0.0000000000000000e+00  -7.7192310578134464e-06 4.0733746530044858e-05 0.0000000000000000e+00  -8.4920310814094622e-06 4.6642220640934354e-05 0.0000000000000000e+00  -9.2809655842940393e-06 5.2877219698210486e-05 0.0000000000000000e+00  -1.0370153655392931e-05 5.9847592348612792e-05 0.0000000000000000e+00  -1.1230113128019436e-05 6.7172085055803573e-05 0.0000000000000000e+00  -1.2003505358170606e-05 7.4827681645949396e-05 0.0000000000000000e+00  -1.2529730933317358e-05 8.2714326813173591e-05 0.0000000000000000e+00  -1.3793086583221382e-05 9.1320812288651340e-05 0.0000000000000000e+00  -1.4990001259205878e-05 1.0029015778057144e-04 0.0000000000000000e+00  -1.5855379354268396e-05 1.0955392794636214e-04 0.0000000000000000e+00  -1.6091794782310300e-05 1.1906157382591906e-04 0.0000000000000000e+00  -1.3222764041300250e-05 1.2904005656744373e-04 0.0000000000000000e+00  -1.1727792542801165e-05 1.3902610271875399e-04 0.0000000000000000e+00  -1.0720509130649966e-05 1.4912590947700150e-04 0.0000000000000000e+00  -9.8322972320491372e-06 1.5936732724675768e-04 0.0000000000000000e+00  -8.8439092931988434e-06 1.6963605615195760e-04 0.0000000000000000e+00  -7.6118928141341915e-06 1.7988690113008039e-04 0.0000000000000000e+00  -6.0417907268235540e-06 1.8966816838790043e-04 0.0000000000000000e+00  -4.5584459018002232e-06 2.0016203373530357e-04 0.0000000000000000e+00  -7.2662560167435254e-07 3.6867078004837988e-07 0.0000000000000000e+00  0.0000000000000000e+00 0.0000000000000000e+00 0.0000000000000000e+00  -