<?xml version="1.0"?>
<VTKFile type="UnstructuredGrid"  version="0.1"  >
<UnstructuredGrid>
<Piece  NumberOfPoints="2452" NumberOfCells="4705">
<Points>
<DataArray  type="Float64"  NumberOfComponents="3"  format="ascii">0.2230434782608696 0 0  0.2313043478260869 0 0  0.2313043478260869 0.008333333333333333 0  0.2395652173913043 0 0  0.2395652173913043 0.008333333333333333 0  0.2478260869565218 0 0  0.2478260869565218 0.008333333333333333 0  0.2560869565217391 0 0  0.2560869565217391 0.008333333333333333 0  0.2643478260869565 0 0  0.2643478260869565 0.008333333333333333 0  0.2726086956521739 0 0  0.2726086956521739 0.008333333333333333 0  0.2808695652173913 0 0  0.2808695652173913 0.008333333333333333 0  0.2891304347826087 0 0  0.2891304347826087 0.008333333333333333 0  0.2973913043478261 0 0  0.2973913043478261 0.008333333333333333 0  0.3056521739130434 0 0  0.3056521739130434 0.008333333333333333 0  0.3139130434782609 0 0  0.3139130434782609 0.008333333333333333 0  0.3221739130434783 0 0  0.3221739130434783 0.008333333333333333 0  0.3304347826086956 0 0  0.3304347826086956 0.008333333333333333 0  0.338695652173913 0 0  0.338695652173913 0.008333333333333333 0  0.3469565217391304 0 0  0.3469565217391304 0.008333333333333333 0  0.3552173913043478 0 0  0.3552173913043478 0.008333333333333333 0  0.3634782608695652 0 0  0.3634782608695652 0.008333333333333333 0  0.3717391304347826 0 0  0.3717391304347826 0.008333333333333333 0  0.3799999999999999 0 0  0.3799999999999999 0.008333333333333333 0  0.3882608695652174 0 0  0.3882608695652174 0.008333333333333333 0  0.3965217391304348 0 0  0.3965217391304348 0.008333333333333333 0  0.4047826086956521 0 0  0.4047826086956521 0.008333333333333333 0  0.4130434782608696 0.008333333333333333 0  0.2395652173913043 0.01666666666666667 0  0.2478260869565218 0.01666666666666667 0  0.2560869565217391 0.01666666666666667 0  0.2643478260869565 0.01666666666666667 0  0.2726086956521739 0.01666666666666667 0  0.2808695652173913 0.01666666666666667 0  0.2891304347826087 0.01666666666666667 0  0.2973913043478261 0.01666666666666667 0  0.3056521739130434 0.01666666666666667 0  0.3139130434782609 0.01666666666666667 0  0.3221739130434783 0.01666666666666667 0  0.3304347826086956 0.01666666666666667 0  0.338695652173913 0.01666666666666667 0  0.3469565217391304 0.01666666666666667 0  0.3552173913043478 0.01666666666666667 0  0.3634782608695652 0.01666666666666667 0  0.3717391304347826 0.01666666666666667 0  0.3799999999999999 0.01666666666666667 0  0.3882608695652174 0.01666666666666667 0  0.3965217391304348 0.01666666666666667 0  0.4047826086956521 0.01666666666666667 0  0.4130434782608696 0.01666666666666667 0  0.4213043478260869 0.01666666666666667 0  0.2478260869565218 0.025 0  0.2560869565217391 0.025 0  0.2643478260869565 0.025 0  0.2726086956521739 0.025 0  0.2808695652173913 0.025 0  0.2891304347826087 0.025 0  0.2973913043478261 0.025 0  0.3056521739130434 0.025 0  0.3139130434782609 0.025 0  0.3221739130434783 0.025 0  0.3304347826086956 0.025 0  0.338695652173913 0.025 0  0.3469565217391304 0.025 0  0.3552173913043478 0.025 0  0.3634782608695652 0.025 0  0.3717391304347826 0.025 0  0.3799999999999999 0.025 0  0.3882608695652174 0.025 0  0.3965217391304348 0.025 0  0.4047826086956521 0.025 0  0.4130434782608696 0.025 0  0.4213043478260869 0.025 0  0.4295652173913043 0.025 0  0.2560869565217391 0.03333333333333333 0  0.2643478260869565 0.03333333333333333 0  0.2726086956521739 0.03333333333333333 0  0.2808695652173913 0.03333333333333333 0  0.2891304347826087 0.03333333333333333 0  0.2973913043478261 0.03333333333333333 0  0.3056521739130434 0.03333333333333333 0  0.3139130434782609 0.03333333333333333 0  0.3221739130434783 0.03333333333333333 0  0.3304347826086956 0.03333333333333333 0  0.338695652173913 0.03333333333333333 0  0.3469565217391304 0.03333333333333333 0  0.3552173913043478 0.03333333333333333 0  0.3634782608695652 0.03333333333333333 0  0.3717391304347826 0.03333333333333333 0  0.3799999999999999 0.03333333333333333 0  0.3882608695652174 0.03333333333333333 0  0.3965217391304348 0.03333333333333333 0  0.4047826086956521 0.03333333333333333 0  0.4130434782608696 0.03333333333333333 0  0.4213043478260869 0.03333333333333333 0  0.4295652173913043 0.03333333333333333 0  0.4378260869565217 0.03333333333333333 0  0.2643478260869565 0.04166666666666666 0  0.2560869565217391 0.04166666666666666 0  0.2726086956521739 0.04166666666666666 0  0.2808695652173913 0.04166666666666666 0  0.2891304347826087 0.04166666666666666 0  0.2973913043478261 0.04166666666666666 0  0.3056521739130434 0.04166666666666666 0  0.3139130434782609 0.04166666666666666 0  0.3221739130434783 0.04166666666666666 0  0.3304347826086956 0.04166666666666666 0  0.338695652173913 0.04166666666666666 0  0.3469565217391304 0.04166666666666666 0  0.3552173913043478 0.04166666666666666 0  0.3634782608695652 0.04166666666666666 0  0.3717391304347826 0.04166666666666666 0  0.3799999999999999 0.04166666666666666 0  0.3882608695652174 0.04166666666666666 0  0.3965217391304348 0.04166666666666666 0  0.4047826086956521 0.04166666666666666 0  0.4130434782608696 0.04166666666666666 0  0.4213043478260869 0.04166666666666666 0  0.4295652173913043 0.04166666666666666 0  0.4378260869565217 0.04166666666666666 0  0.4460869565217391 0.04166666666666666 0  0.2643478260869565 0.05 0  0.2726086956521739 0.05 0  0.2808695652173913 0.05 0  0.2891304347826087 0.05 0  0.2973913043478261 0.05 0  0.3056521739130434 0.05 0  0.3139130434782609 0.05 0  0.3221739130434783 0.05 0  0.3304347826086956 0.05 0  0.338695652173913 0.05 0  0.3469565217391304 0.05 0  0.3552173913043478 0.05 0  0.3634782608695652 0.05 0  0.3717391304347826 0.05 0  0.3799999999999999 0.05 0  0.3882608695652174 0.05 0  0.3965217391304348 0.05 0  0.4047826086956521 0.05 0  0.4130434782608696 0.05 0  0.4213043478260869 0.05 0  0.4295652173913043 0.05 0  0.4378260869565217 0.05 0  0.4460869565217391 0.05 0  0.4543478260869565 0.05 0  0.2726086956521739 0.05833333333333333 0  0.2643478260869565 0.05833333333333333 0  0.2808695652173913 0.05833333333333333 0  0.2891304347826087 0.05833333333333333 0  0.2973913043478261 0.05833333333333333 0  0.3056521739130434 0.05833333333333333 0  0.3139130434782609 0.05833333333333333 0  0.3221739130434783 0.05833333333333333 0  0.3304347826086956 0.05833333333333333 0  0.338695652173913 0.05833333333333333 0  0.3469565217391304 0.05833333333333333 0  0.3552173913043478 0.05833333333333333 0  0.3634782608695652 0.05833333333333333 0  0.3717391304347826 0.05833333333333333 0  0.3799999999999999 0.05833333333333333 0  0.3882608695652174 0.05833333333333333 0  0.3965217391304348 0.05833333333333333 0  0.4047826086956521 0.05833333333333333 0  0.4130434782608696 0.05833333333333333 0  0.4213043478260869 0.05833333333333333 0  0.4295652173913043 0.05833333333333333 0  0.4378260869565217 0.05833333333333333 0  0.4460869565217391 0.05833333333333333 0  0.4543478260869565 0.05833333333333333 0  0.4626086956521739 0.05833333333333333 0  0.2726086956521739 0.06666666666666667 0  0.2643478260869565 0.06666666666666667 0  0.2808695652173913 0.06666666666666667 0  0.2891304347826087 0.06666666666666667 0  0.2973913043478261 0.06666666666666667 0  0.3056521739130434 0.06666666666666667 0  0.3139130434782609 0.06666666666666667 0  0.3221739130434783 0.06666666666666667 0  0.3304347826086956 0.06666666666666667 0  0.338695652173913 0.06666666666666667 0  0.3469565217391304 0.06666666666666667 0  0.3552173913043478 0.06666666666666667 0  0.3634782608695652 0.06666666666666667 0  0.3717391304347826 0.06666666666666667 0  0.3799999999999999 0.06666666666666667 0  0.3882608695652174 0.06666666666666667 0  0.3965217391304348 0.06666666666666667 0  0.4047826086956521 0.06666666666666667 0  0.4130434782608696 0.06666666666666667 0  0.4213043478260869 0.06666666666666667 0  0.4295652173913043 0.06666666666666667 0  0.4378260869565217 0.06666666666666667 0  0.4460869565217391 0.06666666666666667 0  0.4543478260869565 0.06666666666666667 0  0.4626086956521739 0.06666666666666667 0  0.4708695652173913 0.06666666666666667 0  0.2726086956521739 0.075 0  0.2643478260869565 0.075 0  0.2808695652173913 0.075 0  0.2891304347826087 0.075 0  0.2973913043478261 0.075 0  0.3056521739130434 0.075 0  0.3139130434782609 0.075 0  0.3221739130434783 0.075 0  0.3304347826086956 0.075 0  0.338695652173913 0.075 0  0.3469565217391304 0.075 0  0.3552173913043478 0.075 0  0.3634782608695652 0.075 0  0.3717391304347826 0.075 0  0.3799999999999999 0.075 0  0.3882608695652174 0.075 0  0.3965217391304348 0.075 0  0.4047826086956521 0.075 0  0.4130434782608696 0.075 0  0.4213043478260869 0.075 0  0.4295652173913043 0.075 0  0.4378260869565217 0.075 0  0.4460869565217391 0.075 0  0.4543478260869565 0.075 0  0.4626086956521739 0.075 0  0.4708695652173913 0.075 0  0.4791304347826086 0.075 0  0.2726086956521739 0.08333333333333333 0  0.2643478260869565 0.08333333333333333 0  0.2808695652173913 0.08333333333333333 0  0.2891304347826087 0.08333333333333333 0  0.2973913043478261 0.08333333333333333 0  0.3056521739130434 0.08333333333333333 0  0.3139130434782609 0.08333333333333333 0  0.3221739130434783 0.08333333333333333 0  0.3304347826086956 0.08333333333333333 0  0.338695652173913 0.08333333333333333 0  0.3469565217391304 0.08333333333333333 0  0.3552173913043478 0.08333333333333333 0  0.3634782608695652 0.08333333333333333 0  0.3717391304347826 0.08333333333333333 0  0.3799999999999999 0.08333333333333333 0  0.3882608695652174 0.08333333333333333 0  0.3965217391304348 0.08333333333333333 0  0.4047826086956521 0.08333333333333333 0  0.4130434782608696 0.08333333333333333 0  0.4213043478260869 0.08333333333333333 0  0.4295652173913043 0.08333333333333333 0  0.4378260869565217 0.08333333333333333 0  0.4460869565217391 0.08333333333333333 0  0.4543478260869565 0.08333333333333333 0  0.4626086956521739 0.08333333333333333 0  0.4708695652173913 0.08333333333333333 0  0.4791304347826086 0.0833333
[...]
<PointData  Vectors="Displacement"> 
<DataArray  type="Float64"  Name="Displacement"  NumberOfComponents="3" format="ascii">7.3659197381107167e-05 1.8615347437261396e-04 0.0000000000000000e+00  7.5335357627312824e-05 1.9961687951713955e-04 0.0000000000000000e+00  6.1916629632962285e-05 1.9910677583697908e-04 0.0000000000000000e+00  7.6803925319146314e-05 2.1326888836105957e-04 0.0000000000000000e+00  6.3249617329233173e-05 2.1281610638862223e-04 0.0000000000000000e+00  7.8059002454846391e-05 2.2701735882079308e-04 0.0000000000000000e+00  6.4454000599729701e-05 2.2662265277293190e-04 0.0000000000000000e+00  7.9099729481846846e-05 2.4077156743876978e-04 0.0000000000000000e+00  6.5529303752868116e-05 2.4043538800873527e-04 0.0000000000000000e+00  7.9929140135707102e-05 2.5444188814078411e-04 0.0000000000000000e+00  6.6475580258133931e-05 2.5416446880311181e-04 0.0000000000000000e+00  8.0556276983803331e-05 2.6794012297466272e-04 0.0000000000000000e+00  6.7294458117236823e-05 2.6771997512739938e-04 0.0000000000000000e+00  8.1000072304667167e-05 2.8118382660002433e-04 0.0000000000000000e+00  6.7992502069568085e-05 2.8101564045663956e-04 0.0000000000000000e+00  8.1291483175880265e-05 2.9410487539548055e-04 0.0000000000000000e+00  6.8584464500700876e-05 2.9397852070564312e-04 0.0000000000000000e+00  8.1467468668989710e-05 3.0666366000004343e-04 0.0000000000000000e+00  6.9089313390518752e-05 3.0656792788016761e-04 0.0000000000000000e+00  8.1561056184972054e-05 3.1885004420774025e-04 0.0000000000000000e+00  6.9523786181340533e-05 3.1877647305305988e-04 0.0000000000000000e+00  8.1595398133070546e-05 3.3067230669667252e-04 0.0000000000000000e+00  6.9899025679007683e-05 3.3061634357680394e-04 0.0000000000000000e+00  8.1585466596682392e-05 3.4214285693160860e-04 0.0000000000000000e+00  7.0222559823382644e-05 3.4210192395778304e-04 0.0000000000000000e+00  8.1545396731195292e-05 3.5326984933227191e-04 0.0000000000000000e+00  7.0503927529011278e-05 3.5323970158047913e-04 0.0000000000000000e+00  8.1491514504102594e-05 3.6406502355590560e-04 0.0000000000000000e+00  7.0755172451461148e-05 3.6404008408876909e-04 0.0000000000000000e+00  8.1438557030012057e-05 3.7455084147807453e-04 0.0000000000000000e+00  7.0986795037721327e-05 3.7452700438561724e-04 0.0000000000000000e+00  8.1397667404736396e-05 3.8475384752167881e-04 0.0000000000000000e+00  7.1207262132579434e-05 3.8472829302312717e-04 0.0000000000000000e+00  8.1377970150115140e-05 3.9469942515674063e-04 0.0000000000000000e+00  7.1424637414029395e-05 3.9466943087489837e-04 0.0000000000000000e+00  8.1387641579538206e-05 4.0441281996745699e-04 0.0000000000000000e+00  7.1646698293233537e-05 4.0437585106566613e-04 0.0000000000000000e+00  8.1434354776517199e-05 4.1391894327885009e-04 0.0000000000000000e+00  7.1880979879717199e-05 4.1387261370480591e-04 0.0000000000000000e+00  8.1525923924963788e-05 4.2324185394398495e-04 0.0000000000000000e+00  7.2135157850586822e-05 4.2318368464229559e-04 0.0000000000000000e+00  8.1671111794843414e-05 4.3240486950747470e-04 0.0000000000000000e+00  7.2417536507740545e-05 4.3233200472068907e-04 0.0000000000000000e+00  8.1880136793511165e-05 4.4143163742259859e-04 0.0000000000000000e+00  7.2737261434726994e-05 4.4134074066459473e-04 0.0000000000000000e+00  7.3104173814132883e-05 4.5023490030127378e-04 0.0000000000000000e+00  4.9994872522307981e-05 2.1239275070716686e-04 0.0000000000000000e+00  5.1148299270354950e-05 2.2623295736585259e-04 0.0000000000000000e+00  5.2253067651763968e-05 2.4008030419109583e-04 0.0000000000000000e+00  5.3306151688491372e-05 2.5384848820948644e-04 0.0000000000000000e+00  5.4299542503684922e-05 2.6744797091312196e-04 0.0000000000000000e+00  5.5224539409704408e-05 2.8078639111087935e-04 0.0000000000000000e+00  5.6082533332543801e-05 2.9377984051446644e-04 0.0000000000000000e+00  5.6882041340796714e-05 3.0638687731561926e-04 0.0000000000000000e+00  5.7629107924209629e-05 3.1860764305190930e-04 0.0000000000000000e+00  5.8322168619728831e-05 3.3046264591669861e-04 0.0000000000000000e+00  5.8956272848416626e-05 3.4196812023372755e-04 0.0000000000000000e+00  5.9534548270210681e-05 3.5312229671795819e-04 0.0000000000000000e+00  6.0067414823557184e-05 3.6393128314173424e-04 0.0000000000000000e+00  6.0562521476593536e-05 3.7442400329888926e-04 0.0000000000000000e+00  6.1024729033753556e-05 3.8463057992907450e-04 0.0000000000000000e+00  6.1460284800669713e-05 3.9457495304707753e-04 0.0000000000000000e+00  6.1876079087931125e-05 4.0428260357156079e-04 0.0000000000000000e+00  6.2278845185511248e-05 4.1377890347472690e-04 0.0000000000000000e+00  6.2675442867224818e-05 4.2308767065934972e-04 0.0000000000000000e+00  6.3073454488339295e-05 4.3223113564618552e-04 0.0000000000000000e+00  6.3481346939852102e-05 4.4123165650851941e-04 0.0000000000000000e+00  6.3908233084891149e-05 4.5011358479380483e-04 0.0000000000000000e+00  6.4363508325803549e-05 4.5890471576874830e-04 0.0000000000000000e+00  3.7946687329404809e-05 2.2584794612934435e-04 0.0000000000000000e+00  3.9081190048246584e-05 2.3970529724023378e-04 0.0000000000000000e+00  4.0244664665508982e-05 2.5349144597076493e-04 0.0000000000000000e+00  4.1425128469081860e-05 2.6712512128969921e-04 0.0000000000000000e+00  4.2592533838516003e-05 2.8050671353859488e-04 0.0000000000000000e+00  4.3724533202310894e-05 2.9352490026268989e-04 0.0000000000000000e+00  4.4818474606720789e-05 3.0613505611554984e-04 0.0000000000000000e+00  4.5874464448285158e-05 3.1835376749266941e-04 0.0000000000000000e+00  4.6880228863817537e-05 3.3022053746159296e-04 0.0000000000000000e+00  4.7815342548315263e-05 3.4175499778994902e-04 0.0000000000000000e+00  4.8676569955847126e-05 3.5293345843327110e-04 0.0000000000000000e+00  4.9476334226188438e-05 3.6375254942788335e-04 0.0000000000000000e+00  5.0219753786854063e-05 3.7425466851667997e-04 0.0000000000000000e+00  5.0907066217500212e-05 3.8447385324947143e-04 0.0000000000000000e+00  5.1543314938173553e-05 3.9442900755726359e-04 0.0000000000000000e+00  5.2134967290700770e-05 4.0414605328902416e-04 0.0000000000000000e+00  5.2687909077308066e-05 4.1365117833728793e-04 0.0000000000000000e+00  5.3208033283287072e-05 4.2296793794340210e-04 0.0000000000000000e+00  5.3702345421728874e-05 4.3211710197365731e-04 0.0000000000000000e+00  5.4179135616259045e-05 4.4111949394409690e-04 0.0000000000000000e+00  5.4647564458189073e-05 4.4999825165102240e-04 0.0000000000000000e+00  5.5117312765042775e-05 4.5878013177416932e-04 0.0000000000000000e+00  5.5598338093684781e-05 4.6749666079536713e-04 0.0000000000000000e+00  2.5823957886247840e-05 2.3930434960296097e-04 0.0000000000000000e+00  2.7107403873475024e-05 2.5307784471753284e-04 0.0000000000000000e+00  2.8501067615942986e-05 2.6671769146293712e-04 0.0000000000000000e+00  2.9989770890828664e-05 2.8015429423239882e-04 0.0000000000000000e+00  3.1465581190015132e-05 2.9320752090775251e-04 0.0000000000000000e+00  3.2886375903508465e-05 3.0580947842686858e-04 0.0000000000000000e+00  3.4265674678472051e-05 3.1800890730278357e-04 0.0000000000000000e+00  3.5591472363604379e-05 3.2988443805669624e-04 0.0000000000000000e+00  3.6831848916714079e-05 3.4146848560607428e-04 0.0000000000000000e+00  3.7972691236420569e-05 3.5268488275871652e-04 0.0000000000000000e+00  3.9032850315039173e-05 3.6351225447253205e-04 0.0000000000000000e+00  4.0015065293553457e-05 3.7402779989935154e-04 0.0000000000000000e+00  4.0913156485948934e-05 3.8426990148312504e-04 0.0000000000000000e+00  4.1733444709289062e-05 3.9424377055145230e-04 0.0000000000000000e+00  4.2483549758096014e-05 4.0397836944827253e-04 0.0000000000000000e+00  4.3168841028220778e-05 4.1350196045296037e-04 0.0000000000000000e+00  4.3794313775502449e-05 4.2283768140756944e-04 0.0000000000000000e+00  4.4366811636571193e-05 4.3200354088158776e-04 0.0000000000000000e+00  4.4895065141848495e-05 4.4101786255516128e-04 0.0000000000000000e+00  4.5388855457127953e-05 4.4990199835219063e-04 0.0000000000000000e+00  4.5858639239809584e-05 4.5868108873702869e-04 0.0000000000000000e+00  4.6315464577744933e-05 4.6738511771141609e-04 0.0000000000000000e+00  4.6770857103510962e-05 4.7605017399125087e-04 0.0000000000000000e+00  1.3698916961549383e-05 2.5259371268949890e-04 0.0000000000000000e+00  1.2289711037705252e-05 2.3887170040247992e-04 0.0000000000000000e+00  1.5318721833351231e-05 2.6618271253666341e-04 0.0000000000000000e+00  1.7181064149439375e-05 2.7958276746946223e-04 0.0000000000000000e+00  1.9378463020404888e-05 2.9282578759309852e-04 0.0000000000000000e+00  2.1105959957500825e-05 3.0538799659164852e-04 0.0000000000000000e+00  2.2853443505094079e-05 3.1757002402023560e-04 0.0000000000000000e+00  2.4465445572038566e-05 3.2943083983646076e-04 0.0000000000000000e+00  2.6032346785024095e-05 3.4110275825955045e-04 0.0000000000000000e+00  2.7477759602193606e-05 3.5238778221668152e-04 0.0000000000000000e+00  2.8798362784900321e-05 3.6321331482634602e-04 0.0000000000000000e+00  3.0011950999583262e-05 3.7374831742324614e-04 0.0000000000000000e+00  3.1106024444805606e-05 3.8403089207260057e-04 0.0000000000000000e+00  3.2092673500082470e-05 3.9403134509140861e-04 0.0000000000000000e+00  3.2982981629176494e-05 4.0379126904008272e-04 0.0000000000000000e+00  3.3782167386891385e-05 4.1334328342478656e-04 0.0000000000000000e+00  3.4494434805445574e-05 4.2270979192912146e-04 0.0000000000000000e+00  3.5127166910390116e-05 4.3190371146966576e-04 0.0000000000000000e+00  3.5690311978347560e-05 4.4093980073230696e-04 0.0000000000000000e+00  3.6194684754516957e-05 4.4983734593688636e-04 0.0000000000000000e+00  3.6651656856113486e-05 4.5861943353720170e-04 0.0000000000000000e+00  3.7073269040067597e-05 4.6731393995348350e-04 0.0000000000000000e+00  3.7472127885906153e-05 4.7595521584313223e-04 0.0000000000000000e+00  3.7861397128846872e-05 4.8458515571736646e-04 0.0000000000000000e+00  -3.3359655824469698e-08 2.5210899164202942e-04 0.0000000000000000e+00  1.7386471273602843e-06 2.6562466816915423e-04 0.0000000000000000e+00  3.8171605354685652e-06 2.7894099548889117e-04 0.0000000000000000e+00  6.2826149820796687e-06 2.9205671114199529e-04 0.0000000000000000e+00  9.3925509539543520e-06 3.0480730634227450e-04 0.0000000000000000e+00  1.2057637500160000e-05 3.1718587142777688e-04 0.0000000000000000e+00  1.3465026381955877e-05 3.2886055093507175e-04 0.0000000000000000e+00  1.5285608023664576e-05 3.4055856423402878e-04 0.0000000000000000e+00  1.7329793527271903e-05 3.5207160320144731e-04 0.0000000000000000e+00  1.8869713233553515e-05 3.6286063447793179e-04 0.0000000000000000e+00  2.0278360190842896e-05 3.7341669089250987e-04 0.0000000000000000e+00  2.1553077766445344e-05 3.8377321562203944e-04 0.0000000000000000e+00  2.2686134060071877e-05 3.9380524088545145e-04 0.0000000000000000e+00  2.3695326038951133e-05 4.0359692887364005e-04 0.0000000000000000e+00  2.4587203363232138e-05 4.1318742636722942e-04 0.0000000000000000e+00  2.5365709069293199e-05 4.2259774161865866e-04 0.0000000000000000e+00  2.6039836085231470e-05 4.3183123521926082e-04 0.0000000000000000e+00  2.6621608968440715e-05 4.4089825987331851e-04 0.0000000000000000e+00  2.7123017984235518e-05 4.4981646562947927e-04 0.0000000000000000e+00  2.7556253038076402e-05 4.5860660100093497e-04 0.0000000000000000e+00  2.7934132373046488e-05 4.6729394871625321e-04 0.0000000000000000e+00  2.8269699798245790e-05 4.7591084768160814e-04 0.0000000000000000e+00  2.8576196866893103e-05 4.8449748034623422e-04 0.0000000000000000e+00  2.8867525362890276e-05 4.9310373299918451e-04 0.0000000000000000e+00  -3.2656330146413677e-06 2.6302906461596185e-04 0.0000000000000000e+00  -4.8946186068575722e-06 2.4985303101269477e-04 0.0000000000000000e+00  -1.5137048794230555e-06 2.7605049656654831e-04 0.0000000000000000e+00  3.2405385126645940e-07 2.8890139687589097e-04 0.0000000000000000e+00  2.1303242707961105e-06 3.0155086721907751e-04 0.0000000000000000e+00  3.5732123932981737e-06 3.1423920674857812e-04 0.0000000000000000e+00  4.2858175965475488e-06 3.2726171610468073e-04 0.0000000000000000e+00  4.8265593302833064e-06 3.3999354653905817e-04 0.0000000000000000e+00  7.1214426666484957e-06 3.5142491712680443e-04 0.0000000000000000e+00  9.5233373081553858e-06 3.6257526064303186e-04 0.0000000000000000e+00  1.0749042869542073e-05 3.7298534072848481e-04 0.0000000000000000e+00  1.2328809759263037e-05 3.8352312033231457e-04 0.0000000000000000e+00  1.3588426904293724e-05 3.9358271138086005e-04 0.0000000000000000e+00  1.4684822545478831e-05 4.0341017049430285e-04 0.0000000000000000e+00  1.5639693237567666e-05 4.1304801713397589e-04 0.0000000000000000e+00  1.6459599810998727e-05 4.2251666098850319e-04 0.0000000000000000e+00  1.7154870439492415e-05 4.3180068247077605e-04 0.0000000000000000e+00  1.7739450915241981e-05 4.4090621252390675e-04 0.0000000000000000e+00  1.8225926907525000e-05 4.4985098564561993e-04 0.0000000000000000e+00  1.8627122246419015e-05 4.5865293465618121e-04 0.0000000000000000e+00  1.8956811451280419e-05 4.6733411186974271e-04 0.0000000000000000e+00  1.9228370500279836e-05 4.7592492493009141e-04 0.0000000000000000e+00  1.9454673161411433e-05 4.8446323242250168e-04 0.0000000000000000e+00  1.9649546125782846e-05 4.9299533899426981e-04 0.0000000000000000e+00  1.9830415397711520e-05 5.0158171633303821e-04 0.0000000000000000e+00  -8.1082555780159271e-06 2.6064115055696115e-04 0.0000000000000000e+00  -9.5111293202608014e-06 2.4770286380870179e-04 0.0000000000000000e+00  -6.6753743212069522e-06 2.7346777322194145e-04 0.0000000000000000e+00  -5.2553011292515286e-06 2.8618418161864052e-04 0.0000000000000000e+00  -3.9227439929001869e-06 2.9881526462309169e-04 0.0000000000000000e+00  -2.7684998284323125e-06 3.1149953839785036e-04 0.0000000000000000e+00  -1.7904638483619319e-06 3.2428782792363653e-04 0.0000000000000000e+00  -8.3337933673360384e-07 3.3669245823995394e-04 0.0000000000000000e+00  1.5356077428454765e-07 3.4821875833732796e-04 0.0000000000000000e+00  6.9479226091891119e-07 3.5990197350127876e-04 0.0000000000000000e+00  2.5809013879757642e-07 3.7257487323723748e-04 0.0000000000000000e+00  3.1958949020595482e-06 3.8310668458106997e-04 0.0000000000000000e+00  4.9238423700155790e-06 3.9339569198313052e-04 0.0000000000000000e+00  6.0237384070452787e-06 4.0325820103099505e-04 0.0000000000000000e+00  6.9804008339614807e-06 4.1294066387128860e-04 0.0000000000000000e+00  7.8137138252635483e-06 4.2248356660469911e-04 0.0000000000000000e+00  8.5121611825270226e-06 4.3182749253078999e-04 0.0000000000000000e+00  9.0859894489745781e-06 4.4097636216736401e-04 0.0000000000000000e+00  9.5476122015803052e-06 4.4995185664365860e-04 0.0000000000000000e+00  9.9110842115942261e-06 4.5876746671022966e-04 0.0000000000000000e+00  1.0192235935391776e-05 4.6744094473806557e-04 0.0000000000000000e+00  1.0405060473680464e-05 4.7600180828560916e-04 0.0000000000000000e+00  1.0561487874811377e-05 4.8448575662267954e-04 0.0000000000000000e+00  1.0673599087756248e-05 4.9293348817199033e-04 0.0000000000000000e+00  1.0757003151045013e-05 5.0139476586405257e-04 0.0000000000000000e+00  1.0837627529653871e-05 5.0994035692631756e-04 0.0000000000000000e+00  -1.2645670429607860e-05 2.5845866590192972e-04 0.0000000000000000e+00  -1.3806750244571471e-05 2.4571489926777522e-04 0.0000000000000000e+00  -1.1485647120554258e-05 2.7112716703548480e-04 0.0000000000000000e+00  -1.0356350016870816e-05 2.8372628298780798e-04 0.0000000000000000e+00  -9.2925042017268007e-06 2.9627966098949159e-04 0.0000000000000000e+00  -8.3148777472762586e-06 3.0884084669983124e-04 0.0000000000000000e+00  -7.3953359890745729e-06 3.2137345377633738e-04 0.0000000000000000e+00  -6.4911807975136674e-06 3.3360504489183206e-04 0.0000000000000000e+00  -5.6649300102071241e-06 3.4536583163680807e-04 0.0000000000000000e+00  -5.0283512769986094e-06 3.5715838963486875e-04 0.0000000000000000e+00  -4.4006824741506345e-06 3.6916382715990707e-04 0.0000000000000000e+00  -3.4101620767222473e-06 3.7977902497964575e-04 0.0000000000000000e+00  -2.7302542720823600e-06 3.9088600230985880e-04 0.0000000000000000e+00  -2.6280766111730021e-06 4.0304366496960695e-04 0.0000000000000000e+00  -1.4504544032182533e-06 4.1286462241965258e-04 0.0000000000000000e+00  -5.7045682559159858e-07 4.2250894638604108e-04 0.0000000000000000e+00  1.4248260659784162e-07 4.3192639213063445e-04 0.0000000000000000e+00  6.9645557119105580e-07 4.4112074773792581e-04 0.0000000000000000e+00  1.1237170324311850e-06 4.5012972327177994e-04 0.0000000000000000e+00  1.4449896810944574e-06 4.5895828808711979e-04 0.0000000000000000e+00  1.6808751526033368e-06 4.6761822360431849e-04 0.0000000000000000e+00  1.8466683159543594e-06 4.7614118404201949e-04 0.0000000000000000e+00  1.9536907678409810e-06 4.8456159641846610e-04 0.0000000000000000e+00  2.0135330864733883e-06 4.9291310437027066e-04 0.0000000000000000e+00  2.0423028042209663e-06 5.0123036308371736e-04 0.0000000000000000e+00  2.0674770116664115e-06 5.0955122078454420e-04 0.0000000000000000e+00  2.1456346178170170e-06 5.1792013652588093e-04 0.0000000000000000e+00  -1.6832795673812767e-05 2.5646459266592646e-04 0.0000000000000000e+00  -1.7752384144573985e-05 2.4390205177478476e-04 0.0000000000000000e+00  -1.5916205328383200e-05 2.6898096478242072e-04 0.0000000000000000e+00  -1.5023119551061196e-05 2.8145217962088567e-04 0.0000000000000000e+00  -1.4169972611189408e-05 2.9388768289067142e-04 0.0000000000000000e+00  -1.3359770604527458e-05 3.0629647431206018e-04 0.0000000000000000e+00  -1.2575392808132530e-05 3.1862753054556493e-04 0.0000000000000000e+00  -1.1809017724214791e-05 3.3073719782243422e-04 0.0000000000000000e+00  -1.1105939988390384e-05 3.4256783576454525e-04 0.0000000000000000e+00  -1.0504731785777918e-05 3.5432434137645926e-04 0.0000000000000000e+00  -9.9190642549365454e-06 3.6600101141871382e-04 0.0000000000000000e+00  -9.3200009679797151e-06 3.7704135713069784e-04 0.0000000000000000e+00  -8.9516138109334802e-06 3.8831196247791791e-04 0.0000000000000000e+00  -8.6774161364692014e-06 3.9997347369942677e-04 0.0000000000000000e+00  -8.3653028368409469e-06 4.1072191639216496e-04 0.0000000000000000e+00  -8.4305199195385816e-06 4.2274695506021569e-04 0.0000000000000000e+00  -7.8529014743239934e-06 4.3212596800578496e-04 0.0000000000000000e+00  -7.3868343035906409e-06 4.4135526271365264e-04 0.0000000000000000e+00  -7.0200140498874222e-06 4.5039731879967248e-04 0.0000000000000000e+00  -6.7485332029767787e-06 4.5923414601634196e-04 0.0000000000000000e+00  -6.5525859812743900e-06 4.6786794993961017e-04 0.0000000000000000e+00  -6.4183034827086673e-06 4.7633955154762088e-04 0.0000000000000000e+00  -6.3359002711206840e-06 4.8468311566548378e-04 0.0000000000000000e+00  -6.2928087146911511e-06 4.9292348862874070e-04 0.0000000000000000e+00  -6.2686915230769780e-06 5.0107795732914841e-04 0.0000000000000000e+00  -6.2283083551944932e-06 5.0915053790787622e-04 0.0000000000000000e+00  -6.1091196403037619e-06 5.1710966477101761e-04 0.0000000000000000e+00  -5.8943497019675592e-06 5.2460699247905494e-04 0.0000000000000000e+00  -2.0673176306077525e-05 2.5464323228606699e-04 0.0000000000000000e+00  -2.1358277250432537e-05 2.4226044594778152e-04 0.0000000000000000e+00  -1.9983090990324353e-05 2.6700361228634736e-04 0.0000000000000000e+00  -1.9304079350357929e-05 2.7933504588501651e-04 0.0000000000000000e+00  -1.8646409385904632e-05 2.9163429026105828e-04 0.0000000000000000e+00  -1.8011533808070870e-05 3.0389071361163253e-04 0.0000000000000000e+00  -1.7393977121876556e-05 3.1605987092569424e-04 0.0000000000000000e+00  -1.6798897081451218e-05 3.2806468401353996e-04 0.0000000000000000e+00  -1.6256805940672240e-05 3.3988173348413215e-04 0.0000000000000000e+00  -1.5790675599278852e-05 3.5158766633227673e-04 0.0000000000000000e+00  -1.5378801358184740e-05 3.6315733748521400e-04 0.0000000000000000e+00  -1.5042482996078050e-05 3.7442723746125171e-04 0.0000000000000000e+00  -1.4885007045751673e-05 3.8578541922980358e-04 0.0000000000000000e+00  -1.4838193242707888e-05 3.9728145537453488e-04 0.0000000000000000e+