<?xml version="1.0"?>
<VTKFile type="UnstructuredGrid"  version="0.1"  >
<UnstructuredGrid>
<Piece  NumberOfPoints="2488" NumberOfCells="4774">
<Points>
<DataArray  type="Float64"  NumberOfComponents="3"  format="ascii">0 0 0  0.008260869565217391 0 0  0.008260869565217391 0.008333333333333333 0  0 0.008333333333333333 0  0.01652173913043478 0 0  0.01652173913043478 0.008333333333333333 0  0.02478260869565217 0 0  0.02478260869565217 0.008333333333333333 0  0.03304347826086956 0 0  0.03304347826086956 0.008333333333333333 0  0.04130434782608695 0 0  0.04130434782608695 0.008333333333333333 0  0.04956521739130434 0 0  0.04956521739130434 0.008333333333333333 0  0.05782608695652174 0 0  0.05782608695652174 0.008333333333333333 0  0.06608695652173913 0 0  0.06608695652173913 0.008333333333333333 0  0.07434782608695652 0 0  0.07434782608695652 0.008333333333333333 0  0.08260869565217391 0 0  0.08260869565217391 0.008333333333333333 0  0.0908695652173913 0 0  0.0908695652173913 0.008333333333333333 0  0.09913043478260869 0 0  0.09913043478260869 0.008333333333333333 0  0.1073913043478261 0 0  0.1073913043478261 0.008333333333333333 0  0.1156521739130435 0 0  0.1156521739130435 0.008333333333333333 0  0.1239130434782609 0 0  0.1239130434782609 0.008333333333333333 0  0.1321739130434783 0 0  0.1321739130434783 0.008333333333333333 0  0.1404347826086956 0 0  0.1404347826086956 0.008333333333333333 0  0.148695652173913 0 0  0.148695652173913 0.008333333333333333 0  0.1569565217391304 0 0  0.1569565217391304 0.008333333333333333 0  0.1652173913043478 0 0  0.1652173913043478 0.008333333333333333 0  0.1734782608695652 0 0  0.1734782608695652 0.008333333333333333 0  0.1817391304347826 0 0  0.1817391304347826 0.008333333333333333 0  0.19 0 0  0.19 0.008333333333333333 0  0.1982608695652174 0 0  0.1982608695652174 0.008333333333333333 0  0.2065217391304348 0 0  0.2065217391304348 0.008333333333333333 0  0.2147826086956522 0 0  0.2147826086956522 0.008333333333333333 0  0.2230434782608696 0 0  0.2230434782608696 0.008333333333333333 0  0.2313043478260869 0.008333333333333333 0  0.008260869565217391 0.01666666666666667 0  0 0.01666666666666667 0  0.01652173913043478 0.01666666666666667 0  0.02478260869565217 0.01666666666666667 0  0.03304347826086956 0.01666666666666667 0  0.04130434782608695 0.01666666666666667 0  0.04956521739130434 0.01666666666666667 0  0.05782608695652174 0.01666666666666667 0  0.06608695652173913 0.01666666666666667 0  0.07434782608695652 0.01666666666666667 0  0.08260869565217391 0.01666666666666667 0  0.0908695652173913 0.01666666666666667 0  0.09913043478260869 0.01666666666666667 0  0.1073913043478261 0.01666666666666667 0  0.1156521739130435 0.01666666666666667 0  0.1239130434782609 0.01666666666666667 0  0.1321739130434783 0.01666666666666667 0  0.1404347826086956 0.01666666666666667 0  0.148695652173913 0.01666666666666667 0  0.1569565217391304 0.01666666666666667 0  0.1652173913043478 0.01666666666666667 0  0.1734782608695652 0.01666666666666667 0  0.1817391304347826 0.01666666666666667 0  0.19 0.01666666666666667 0  0.1982608695652174 0.01666666666666667 0  0.2065217391304348 0.01666666666666667 0  0.2147826086956522 0.01666666666666667 0  0.2230434782608696 0.01666666666666667 0  0.2313043478260869 0.01666666666666667 0  0.2395652173913043 0.01666666666666667 0  0.008260869565217391 0.025 0  0 0.025 0  0.01652173913043478 0.025 0  0.02478260869565217 0.025 0  0.03304347826086956 0.025 0  0.04130434782608695 0.025 0  0.04956521739130434 0.025 0  0.05782608695652174 0.025 0  0.06608695652173913 0.025 0  0.07434782608695652 0.025 0  0.08260869565217391 0.025 0  0.0908695652173913 0.025 0  0.09913043478260869 0.025 0  0.1073913043478261 0.025 0  0.1156521739130435 0.025 0  0.1239130434782609 0.025 0  0.1321739130434783 0.025 0  0.1404347826086956 0.025 0  0.148695652173913 0.025 0  0.1569565217391304 0.025 0  0.1652173913043478 0.025 0  0.1734782608695652 0.025 0  0.1817391304347826 0.025 0  0.19 0.025 0  0.1982608695652174 0.025 0  0.2065217391304348 0.025 0  0.2147826086956522 0.025 0  0.2230434782608696 0.025 0  0.2313043478260869 0.025 0  0.2395652173913043 0.025 0  0.2478260869565218 0.025 0  0.008260869565217391 0.03333333333333333 0  0 0.03333333333333333 0  0.01652173913043478 0.03333333333333333 0  0.02478260869565217 0.03333333333333333 0  0.03304347826086956 0.03333333333333333 0  0.04130434782608695 0.03333333333333333 0  0.04956521739130434 0.03333333333333333 0  0.05782608695652174 0.03333333333333333 0  0.06608695652173913 0.03333333333333333 0  0.07434782608695652 0.03333333333333333 0  0.08260869565217391 0.03333333333333333 0  0.0908695652173913 0.03333333333333333 0  0.09913043478260869 0.03333333333333333 0  0.1073913043478261 0.03333333333333333 0  0.1156521739130435 0.03333333333333333 0  0.1239130434782609 0.03333333333333333 0  0.1321739130434783 0.03333333333333333 0  0.1404347826086956 0.03333333333333333 0  0.148695652173913 0.03333333333333333 0  0.1569565217391304 0.03333333333333333 0  0.1652173913043478 0.03333333333333333 0  0.1734782608695652 0.03333333333333333 0  0.1817391304347826 0.03333333333333333 0  0.19 0.03333333333333333 0  0.1982608695652174 0.03333333333333333 0  0.2065217391304348 0.03333333333333333 0  0.2147826086956522 0.03333333333333333 0  0.2230434782608696 0.03333333333333333 0  0.2313043478260869 0.03333333333333333 0  0.2395652173913043 0.03333333333333333 0  0.2478260869565218 0.03333333333333333 0  0.2560869565217391 0.03333333333333333 0  0.008260869565217391 0.04166666666666666 0  0 0.04166666666666666 0  0.01652173913043478 0.04166666666666666 0  0.02478260869565217 0.04166666666666666 0  0.03304347826086956 0.04166666666666666 0  0.04130434782608695 0.04166666666666666 0  0.04956521739130434 0.04166666666666666 0  0.05782608695652174 0.04166666666666666 0  0.06608695652173913 0.04166666666666666 0  0.07434782608695652 0.04166666666666666 0  0.08260869565217391 0.04166666666666666 0  0.0908695652173913 0.04166666666666666 0  0.09913043478260869 0.04166666666666666 0  0.1073913043478261 0.04166666666666666 0  0.1156521739130435 0.04166666666666666 0  0.1239130434782609 0.04166666666666666 0  0.1321739130434783 0.04166666666666666 0  0.1404347826086956 0.04166666666666666 0  0.148695652173913 0.04166666666666666 0  0.1569565217391304 0.04166666666666666 0  0.1652173913043478 0.04166666666666666 0  0.1734782608695652 0.04166666666666666 0  0.1817391304347826 0.04166666666666666 0  0.19 0.04166666666666666 0  0.1982608695652174 0.04166666666666666 0  0.2065217391304348 0.04166666666666666 0  0.2147826086956522 0.04166666666666666 0  0.2230434782608696 0.04166666666666666 0  0.2313043478260869 0.04166666666666666 0  0.2395652173913043 0.04166666666666666 0  0.2478260869565218 0.04166666666666666 0  0.2560869565217391 0.04166666666666666 0  0.008260869565217391 0.05 0  0 0.05 0  0.01652173913043478 0.05 0  0.02478260869565217 0.05 0  0.03304347826086956 0.05 0  0.04130434782608695 0.05 0  0.04956521739130434 0.05 0  0.05782608695652174 0.05 0  0.06608695652173913 0.05 0  0.07434782608695652 0.05 0  0.08260869565217391 0.05 0  0.0908695652173913 0.05 0  0.09913043478260869 0.05 0  0.1073913043478261 0.05 0  0.1156521739130435 0.05 0  0.1239130434782609 0.05 0  0.1321739130434783 0.05 0  0.1404347826086956 0.05 0  0.148695652173913 0.05 0  0.1569565217391304 0.05 0  0.1652173913043478 0.05 0  0.1734782608695652 0.05 0  0.1817391304347826 0.05 0  0.19 0.05 0  0.1982608695652174 0.05 0  0.2065217391304348 0.05 0  0.2147826086956522 0.05 0  0.2230434782608696 0.05 0  0.2313043478260869 0.05 0  0.2395652173913043 0.05 0  0.2478260869565218 0.05 0  0.2560869565217391 0.05 0  0.2643478260869565 0.05 0  0.008260869565217391 0.05833333333333333 0  0 0.05833333333333333 0  0.01652173913043478 0.05833333333333333 0  0.02478260869565217 0.05833333333333333 0  0.03304347826086956 0.05833333333333333 0  0.04130434782608695 0.05833333333333333 0  0.04956521739130434 0.05833333333333333 0  0.05782608695652174 0.05833333333333333 0  0.06608695652173913 0.05833333333333333 0  0.07434782608695652 0.05833333333333333 0  0.08260869565217391 0.05833333333333333 0  0.0908695652173913 0.05833333333333333 0  0.09913043478260869 0.05833333333333333 0  0.1073913043478261 0.05833333333333333 0  0.1156521739130435 0.05833333333333333 0  0.1239130434782609 0.05833333333333333 0  0.1321739130434783 0.05833333333333333 0  0.1404347826086956 0.05833333333333333 0  0.148695652173913 0.05833333333333333 0  0.1569565217391304 0.05833333333333333 0  0.1652173913043478 0.05833333333333333 0  0.1734782608695652 0.05833333333333333 0  0.1817391304347826 0.05833333333333333 0  0.19 0.05833333333333333 0  0.1982608695652174 0.05833333333333333 0  0.2065217391304348 0.05833333333333333 0  0.2147826086956522 0.05833333333333333 0  0.2230434782608696 0.05833333333333333 0  0.2313043478260869 0.05833333333333333 0  0.2395652173913043 0.05833333333333333 0  0.2478260869565218 0.05833333333333333 0  0.2560869565217391 0.05833333333333333 0  0.2643478260869565 0.05833333333333333 0  0.008260869565217391 0.06666666666666667 0  0 0.06666666666666667 0  0.01652173913043478 0.06666666666666667 0  0.02478260869565217 0.06666666666666667 0  0.03304347826086956 0.06666666666666667 0  0.04130434782608695 0.06666666666666667 0  0.04956521739130434 0.06666666666666667 0  0.05782608695652174 0.06666666666666667 0  0.06608695652173913 0.06666666666666667 0  0.07434782608695652 0.06666666666666667 0  0.08260869565217391 0.06666666666666667 0  0.0908695652173913 0.06666666666666667 0  0.09913043478260869 0.06666666666666667 0  0.1073913043478261 0.06666666666666667 0  0.1156521739130435 0.06666666666666667 0  0.1239130434782609 0.06666666666666667 0  0.1321739130434783 0.06666666666666667 0  0.1404347826086956 0.06666666666666667 0  0.148695652173913 0.06666666666666667 0  0.1569565217391304 0.06666666666666667 0  0.1652173913043478 0.06666666666666667 0  0.1734782608695652 0.06666666666666667 0  0.18173913
[...]
<PointData  Vectors="Displacement"> 
<DataArray  type="Float64"  Name="Displacement"  NumberOfComponents="3" format="ascii">0.0000000000000000e+00 0.0000000000000000e+00 0.0000000000000000e+00  3.4347065117822209e-06 1.9323830897637775e-06 0.0000000000000000e+00  2.3983559947766784e-06 1.0738017130283692e-06 0.0000000000000000e+00  0.0000000000000000e+00 0.0000000000000000e+00 0.0000000000000000e+00  6.4451369889394132e-06 3.4042788670616939e-06 0.0000000000000000e+00  5.0042032135389205e-06 2.5094287864549186e-06 0.0000000000000000e+00  9.3609524190543356e-06 5.0675339662477943e-06 0.0000000000000000e+00  7.5498061640325498e-06 4.1759922826596355e-06 0.0000000000000000e+00  1.2249486073658063e-05 7.0677915728521539e-06 0.0000000000000000e+00  1.0044741235313198e-05 6.1810024128482421e-06 0.0000000000000000e+00  1.5127437600108452e-05 9.4620757945383230e-06 0.0000000000000000e+00  1.2504736353951632e-05 8.5795534734930436e-06 0.0000000000000000e+00  1.7999527230350075e-05 1.2278191062379532e-05 0.0000000000000000e+00  1.4940179148718176e-05 1.1399216465790294e-05 0.0000000000000000e+00  2.0868190470512657e-05 1.5532611257533423e-05 0.0000000000000000e+00  1.7357856041889128e-05 1.4656292680144968e-05 0.0000000000000000e+00  2.3735646296914605e-05 1.9237943211727928e-05 0.0000000000000000e+00  1.9762299917515182e-05 1.8363389429268526e-05 0.0000000000000000e+00  2.6603631409585647e-05 2.3406251182581783e-05 0.0000000000000000e+00  2.2156217298977873e-05 2.2532884931942761e-05 0.0000000000000000e+00  2.9472576215338273e-05 2.8050045490778168e-05 0.0000000000000000e+00  2.4540457539969534e-05 2.7177933462460029e-05 0.0000000000000000e+00  3.2341745266607400e-05 3.3180850971304128e-05 0.0000000000000000e+00  2.6914738540195983e-05 3.2310344083452229e-05 0.0000000000000000e+00  3.5209730466239723e-05 3.8809204257901853e-05 0.0000000000000000e+00  2.9278171883304444e-05 3.7940730968407527e-05 0.0000000000000000e+00  3.8074440116701142e-05 4.4945452341693302e-05 0.0000000000000000e+00  3.1629221594267084e-05 4.4079609574684270e-05 0.0000000000000000e+00  4.0932108981649565e-05 5.1600763742558536e-05 0.0000000000000000e+00  3.3964831752437150e-05 5.0738945225015305e-05 0.0000000000000000e+00  4.3777444836787019e-05 5.8784482304736146e-05 0.0000000000000000e+00  3.6280976862998822e-05 5.7928453166249946e-05 0.0000000000000000e+00  4.6604776668163122e-05 6.6502962072862167e-05 0.0000000000000000e+00  3.8573683169185012e-05 6.5654277267155855e-05 0.0000000000000000e+00  4.9408463600189398e-05 7.4760911839392549e-05 0.0000000000000000e+00  4.0839123408923339e-05 7.3920935622967540e-05 0.0000000000000000e+00  5.2181630252810851e-05 8.3563352152806874e-05 0.0000000000000000e+00  4.3072407500153518e-05 8.2734036885865264e-05 0.0000000000000000e+00  5.4914448630679545e-05 9.2914821004422784e-05 0.0000000000000000e+00  4.5266420864458826e-05 9.2099416650442663e-05 0.0000000000000000e+00  5.7595942915015605e-05 1.0281299734397126e-04 0.0000000000000000e+00  4.7414307664558615e-05 1.0201430204334791e-04 0.0000000000000000e+00  6.0214968295726596e-05 1.1325105230036645e-04 0.0000000000000000e+00  4.9509848739516165e-05 1.1247153883102165e-04 0.0000000000000000e+00  6.2758658315489440e-05 1.2421966296786730e-04 0.0000000000000000e+00  5.1545988155028101e-05 1.2346244176722780e-04 0.0000000000000000e+00  6.5208634972553409e-05 1.3570766948320200e-04 0.0000000000000000e+00  5.3511512826718797e-05 1.3497861620681765e-04 0.0000000000000000e+00  6.7543865484526061e-05 1.4768903946239573e-04 0.0000000000000000e+00  5.5394987613931430e-05 1.4699372295518901e-04 0.0000000000000000e+00  6.9743837993374493e-05 1.6012485517722240e-04 0.0000000000000000e+00  5.7186462081375765e-05 1.5946811765308219e-04 0.0000000000000000e+00  7.1788883331132575e-05 1.7296593262628235e-04 0.0000000000000000e+00  5.8876987201183461e-05 1.7235251610739198e-04 0.0000000000000000e+00  7.3659197381107167e-05 1.8615347437261396e-04 0.0000000000000000e+00  6.0457094737026493e-05 1.8558881148584560e-04 0.0000000000000000e+00  6.1916629632962285e-05 1.9910677583697908e-04 0.0000000000000000e+00  1.8333483288509874e-06 6.4101774123547290e-07 0.0000000000000000e+00  0.0000000000000000e+00 0.0000000000000000e+00 0.0000000000000000e+00  3.8383443404669825e-06 1.8349611227208424e-06 0.0000000000000000e+00  5.8967760271820625e-06 3.4458352465033780e-06 0.0000000000000000e+00  7.9367943054604843e-06 5.4433385851869145e-06 0.0000000000000000e+00  9.9458127893094036e-06 7.8464638008219999e-06 0.0000000000000000e+00  1.1925698580793532e-05 1.0672650808253042e-05 0.0000000000000000e+00  1.3881067559729514e-05 1.3935267498945425e-05 0.0000000000000000e+00  1.5816129882368877e-05 1.7646351613473668e-05 0.0000000000000000e+00  1.7733484332199087e-05 2.1818876072734790e-05 0.0000000000000000e+00  1.9633358025390828e-05 2.6467446069117386e-05 0.0000000000000000e+00  2.1515147607806339e-05 3.1603829732645298e-05 0.0000000000000000e+00  2.3378425649436144e-05 3.7238140452796554e-05 0.0000000000000000e+00  2.5222660920348808e-05 4.3380783338359457e-05 0.0000000000000000e+00  2.7045023541242299e-05 5.0045720707428876e-05 0.0000000000000000e+00  2.8841742711782159e-05 5.7242849367370726e-05 0.0000000000000000e+00  3.0610450859064330e-05 6.4976832365835283e-05 0.0000000000000000e+00  3.2350307208124411e-05 7.3251092033365460e-05 0.0000000000000000e+00  3.4059229384845998e-05 8.2072619302666288e-05 0.0000000000000000e+00  3.5731248842530817e-05 9.1450556270175010e-05 0.0000000000000000e+00  3.7362918322219184e-05 1.0137875860738671e-04 0.0000000000000000e+00  3.8954428920665322e-05 1.1184801395356414e-04 0.0000000000000000e+00  4.0506598330414634e-05 1.2285044001025670e-04 0.0000000000000000e+00  4.2012858025821898e-05 1.3438549520983852e-04 0.0000000000000000e+00  4.3468427674323538e-05 1.4642314442119526e-04 0.0000000000000000e+00  4.4872967880868890e-05 1.5892088041016798e-04 0.0000000000000000e+00  4.6228820519171730e-05 1.7182939140895781e-04 0.0000000000000000e+00  4.7536602477939500e-05 1.8509395991615253e-04 0.0000000000000000e+00  4.8791934626512164e-05 1.9864771547415880e-04 0.0000000000000000e+00  4.9994872522307981e-05 2.1239275070716686e-04 0.0000000000000000e+00  1.3661370067049990e-06 3.8562362577052306e-07 0.0000000000000000e+00  0.0000000000000000e+00 0.0000000000000000e+00 0.0000000000000000e+00  2.8453068476505887e-06 1.3939141238381857e-06 0.0000000000000000e+00  4.3849268548183358e-06 2.9117467206682739e-06 0.0000000000000000e+00  5.9346111307120187e-06 4.8797982971817651e-06 0.0000000000000000e+00  7.4671638219295350e-06 7.2788482258495533e-06 0.0000000000000000e+00  8.9747056447450921e-06 1.0108671892145818e-05 0.0000000000000000e+00  1.0457332744837448e-05 1.3375737373300812e-05 0.0000000000000000e+00  1.1917424177179034e-05 1.7089901624921189e-05 0.0000000000000000e+00  1.3356401040697367e-05 2.1264757275614335e-05 0.0000000000000000e+00  1.4772314734988450e-05 2.5917740224823673e-05 0.0000000000000000e+00  1.6163329467770043e-05 3.1059468804475175e-05 0.0000000000000000e+00  1.7529588660909820e-05 3.6698255208422341e-05 0.0000000000000000e+00  1.8872248402258173e-05 4.2843902127123528e-05 0.0000000000000000e+00  2.0187770509244551e-05 4.9515356255063606e-05 0.0000000000000000e+00  2.1471295506855654e-05 5.6722205403263574e-05 0.0000000000000000e+00  2.2721988381808125e-05 6.4464848844964016e-05 0.0000000000000000e+00  2.3943428077448242e-05 7.2743806150080871e-05 0.0000000000000000e+00  2.5137070968028278e-05 8.1569748024908580e-05 0.0000000000000000e+00  2.6295256988636336e-05 9.0960311534716423e-05 0.0000000000000000e+00  2.7416763126621363e-05 1.0089931752620661e-04 0.0000000000000000e+00  2.8509189880132780e-05 1.1137199055850390e-04 0.0000000000000000e+00  2.9583742180188998e-05 1.2237171140257075e-04 0.0000000000000000e+00  3.0635294596146211e-05 1.3391814007677848e-04 0.0000000000000000e+00  3.1664360310689874e-05 1.4596975614170719e-04 0.0000000000000000e+00  3.2679806291417140e-05 1.5847742750796015e-04 0.0000000000000000e+00  3.3695680112514404e-05 1.7139012732574220e-04 0.0000000000000000e+00  3.4726233899740538e-05 1.8466154156352485e-04 0.0000000000000000e+00  3.5773838134860930e-05 1.9823616461902289e-04 0.0000000000000000e+00  3.6844927149634568e-05 2.1199790150271060e-04 0.0000000000000000e+00  3.7946687329404809e-05 2.2584794612934435e-04 0.0000000000000000e+00  9.3264879262319511e-07 2.3598642974677884e-07 0.0000000000000000e+00  0.0000000000000000e+00 0.0000000000000000e+00 0.0000000000000000e+00  1.9308781874127022e-06 1.1230594503413286e-06 0.0000000000000000e+00  2.9710421582417054e-06 2.5646339567399044e-06 0.0000000000000000e+00  4.0245117803769628e-06 4.4973502890890883e-06 0.0000000000000000e+00  5.0694479697625930e-06 6.8858580693717313e-06 0.0000000000000000e+00  6.0950134531971771e-06 9.7148049326249098e-06 0.0000000000000000e+00  7.0984248003886304e-06 1.2982610373511989e-05 0.0000000000000000e+00  8.0807375908618863e-06 1.6695950469077255e-05 0.0000000000000000e+00  9.0419899937039212e-06 2.0869843407961444e-05 0.0000000000000000e+00  9.9756851630850816e-06 2.5527872136542094e-05 0.0000000000000000e+00  1.0877385083114868e-05 3.0676395034699087e-05 0.0000000000000000e+00  1.1748374960830007e-05 3.6319150443001328e-05 0.0000000000000000e+00  1.2593556952759756e-05 4.2464380783098329e-05 0.0000000000000000e+00  1.3407099488996303e-05 4.9143531787370507e-05 0.0000000000000000e+00  1.4180646901793231e-05 5.6364453345322712e-05 0.0000000000000000e+00  1.4914335374150231e-05 6.4117286222286889e-05 0.0000000000000000e+00  1.5618505212691274e-05 7.2395625235540452e-05 0.0000000000000000e+00  1.6300283117391245e-05 8.1219347757793397e-05 0.0000000000000000e+00  1.6945319495896785e-05 9.0627804763270426e-05 0.0000000000000000e+00  1.7552971215142723e-05 1.0057951986686145e-04 0.0000000000000000e+00  1.8137209704550873e-05 1.1104735223568105e-04 0.0000000000000000e+00  1.8723842907893515e-05 1.2202471684748333e-04 0.0000000000000000e+00  1.9304614791720794e-05 1.3358075142449539e-04 0.0000000000000000e+00  1.9887459499245261e-05 1.4564239104565617e-04 0.0000000000000000e+00  2.0490173269208929e-05 1.5815028367120937e-04 0.0000000000000000e+00  2.1136727996641718e-05 1.7104822590265092e-04 0.0000000000000000e+00  2.1852405034356617e-05 1.8429669340924400e-04 0.0000000000000000e+00  2.2667617610320076e-05 1.9787612282559628e-04 0.0000000000000000e+00  2.3602692760178963e-05 2.1163375628814227e-04 0.0000000000000000e+00  2.4655009810799271e-05 2.2546622037206642e-04 0.0000000000000000e+00  2.5823957886247840e-05 2.3930434960296097e-04 0.0000000000000000e+00  5.1473290612634233e-07 1.6291607834030575e-07 0.0000000000000000e+00  0.0000000000000000e+00 0.0000000000000000e+00 0.0000000000000000e+00  1.0564404859035800e-06 9.8510828749991333e-07 0.0000000000000000e+00  1.6177395440345190e-06 2.3807336579269161e-06 0.0000000000000000e+00  2.1848937570102442e-06 4.2888332328892709e-06 0.0000000000000000e+00  2.7442460105595387e-06 6.6681720710455144e-06 0.0000000000000000e+00  3.2871388538512021e-06 9.4940060643511469e-06 0.0000000000000000e+00  3.8105102904777944e-06 1.2758173376409182e-05 0.0000000000000000e+00  4.3162899947914951e-06 1.6463879190944285e-05 0.0000000000000000e+00  4.8046118422637407e-06 2.0630342154937254e-05 0.0000000000000000e+00  5.2606348712095162e-06 2.5296002298312165e-05 0.0000000000000000e+00  5.6749856064383823e-06 3.0455071882101568e-05 0.0000000000000000e+00  6.0507359182843104e-06 3.6100763060401225e-05 0.0000000000000000e+00  6.4013360569639755e-06 4.2236852116701270e-05 0.0000000000000000e+00  6.7165566371768879e-06 4.8926047524451001e-05 0.0000000000000000e+00  6.9813067889422768e-06 5.6170597224733812e-05 0.0000000000000000e+00  7.1957273727518486e-06 6.3939090687390105e-05 0.0000000000000000e+00  7.3778545863981694e-06 7.2207862473133719e-05 0.0000000000000000e+00  7.5443328767353323e-06 8.1015970634987230e-05 0.0000000000000000e+00  7.6686055711498000e-06 9.0457379938641236e-05 0.0000000000000000e+00  7.7540372549260701e-06 1.0043149027747075e-04 0.0000000000000000e+00  7.8154673696902925e-06 1.1089286956247844e-04 0.0000000000000000e+00  7.8851259910118958e-06 1.2181763408039168e-04 0.0000000000000000e+00  7.9485535741786070e-06 1.3339265150818703e-04 0.0000000000000000e+00  8.0432193189405593e-06 1.4546374636901862e-04 0.0000000000000000e+00  8.1952118031134648e-06 1.5796859039652990e-04 0.0000000000000000e+00  8.4244277910815581e-06 1.7083849986519501e-04 0.0000000000000000e+00  8.7591019556176074e-06 1.8404517233874674e-04 0.0000000000000000e+00  9.2149463663338042e-06 1.9756476913754554e-04 0.0000000000000000e+00  1.0056137218037126e-05 2.1129996545735200e-04 0.0000000000000000e+00  1.1077915989879113e-05 2.2508477581027745e-04 0.0000000000000000e+00  1.2289711037705252e-05 2.3887170040247992e-04 0.0000000000000000e+00  1.0406810834459870e-07 1.5407000049875129e-07 0.0000000000000000e+00  0.0000000000000000e+00 0.0000000000000000e+00 0.0000000000000000e+00  2.0215577921983800e-07 9.6025200293529473e-07 0.0000000000000000e+00  2.9998675085061705e-07 2.3411916279751695e-06 0.0000000000000000e+00  3.9476439386145964e-07 4.2419707217039464e-06 0.0000000000000000e+00  4.7953344443789444e-07 6.6201695025489759e-06 0.0000000000000000e+00  5.4832340306808248e-07 9.4446944006851069e-06 0.0000000000000000e+00  5.9759828266855031e-07 1.2702227228128855e-05 0.0000000000000000e+00  6.3232432512430728e-07 1.6390033406379612e-05 0.0000000000000000e+00  6.5715747192220291e-07 2.0536714103860803e-05 0.0000000000000000e+00  6.4384719610295683e-07 2.5217983550584160e-05 0.0000000000000000e+00  5.7570360944678004e-07 3.0397710762617924e-05 0.0000000000000000e+00  4.5539109113023427e-07 3.6046975717225928e-05 0.0000000000000000e+00  3.1207859914418282e-07 4.2154264985667404e-05 0.0000000000000000e+00  1.2760386477139107e-07 4.8857104205696464e-05 0.0000000000000000e+00  -1.1661706189050718e-07 5.6143267882106757e-05 0.0000000000000000e+00  -4.2239031094381506e-07 6.3939537826789207e-05 0.0000000000000000e+00  -7.6205570227140588e-07 7.2190258415034229e-05 0.0000000000000000e+00  -1.1289983701356220e-06 8.0954795886941690e-05 0.0000000000000000e+00  -1.5570432986147844e-06 9.0457350769796338e-05 0.0000000000000000e+00  -2.0002740799391730e-06 1.0046534695349887e-04 0.0000000000000000e+00  -2.4541325898697799e-06 1.1093258218295555e-04 0.0000000000000000e+00  -2.9115976065203711e-06 1.2178675771202262e-04 0.0000000000000000e+00  -3.5174201778689408e-06 1.3339133842999964e-04 0.0000000000000000e+00  -3.9664817601674863e-06 1.4545845296188512e-04 0.0000000000000000e+00  -4.2839778373754304e-06 1.5794517348133782e-04 0.0000000000000000e+00  -4.4469572667891447e-06 1.7076784277875821e-04 0.0000000000000000e+00  -4.4754294565279299e-06 1.8387620753524512e-04 0.0000000000000000e+00  -4.3771943727844615e-06 1.9739373933761931e-04 0.0000000000000000e+00  -3.7106519940527198e-06 2.1101266837461160e-04 0.0000000000000000e+00  -2.7422962584484817e-06 2.2473518855206705e-04 0.0000000000000000e+00  -1.5214960489546654e-06 2.3845587893541731e-04 0.0000000000000000e+00  -3.3359655824469698e-08 2.5210899164202942e-04 0.0000000000000000e+00  -3.0576179934644375e-07 2.0817478545960075e-07 0.0000000000000000e+00  0.0000000000000000e+00 0.0000000000000000e+00 0.0000000000000000e+00  -6.4746731169808956e-07 1.0405130652502094e-06 0.0000000000000000e+00  -1.0035685132670547e-06 2.4335858720509701e-06 0.0000000000000000e+00  -1.3670154830912574e-06 4.3441343141340610e-06 0.0000000000000000e+00  -1.7393999782038158e-06 6.7317043807692928e-06 0.0000000000000000e+00  -2.1252929405894168e-06 9.5601260369355421e-06 0.0000000000000000e+00  -2.5331658271010548e-06 1.2813056653925358e-05 0.0000000000000000e+00  -2.9588735252818381e-06 1.6469591190710804e-05 0.0000000000000000e+00  -3.3867191551608209e-06 2.0571533006229048e-05 0.0000000000000000e+00  -3.8628210161211567e-06 2.5284858994716832e-05 0.0000000000000000e+00  -4.4002248618781192e-06 3.0505353046286968e-05 0.0000000000000000e+00  -5.0071964919232568e-06 3.6169035431155980e-05 0.0000000000000000e+00  -5.6442267433310470e-06 4.2209938227574606e-05 0.0000000000000000e+00  -6.3522848578906769e-06 4.8933672427463666e-05 0.0000000000000000e+00  -7.1234994049037897e-06 5.6278527730241002e-05 0.0000000000000000e+00  -7.9234894494319849e-06 6.4128998910209628e-05 0.0000000000000000e+00  -8.7683647888534225e-06 7.2337895224649113e-05 0.0000000000000000e+00  -9.6283796551189340e-06 8.1069805200230553e-05 0.0000000000000000e+00  -1.0798361803020819e-05 9.0627575079578181e-05 0.0000000000000000e+00  -1.1710571615323622e-05 1.0063614822049687e-04 0.0000000000000000e+00  -1.2510800350105565e-05 1.1105778197294193e-04 0.0000000000000000e+00  -1.3141159747577400e-05 1.2183328599263606e-04 0.0000000000000000e+00  -1.4588740517658837e-05 1.3352451758350261e-04 0.0000000000000000e+00  -1.5770727231588571e-05 1.4557060194552294e-04 0.0000000000000000e+00  -1.6777420535173550e-05 1.5804173414355767e-04 0.0000000000000000e+00  -1.7363368028456512e-05 1.7082110943786004e-04 0.0000000000000000e+00  -1.3293306858088481e-05 1.8375038741523303e-04 0.0000000000000000e+00  -1.0968856793139325e-05 1.9677330436332016e-04 0.0000000000000000e+00  -9.2955636765166922e-06 2.0993087519193140e-04 0.0000000000000000e+00  -7.8397581500096002e-06 2.2323330116728215e-04 0.0000000000000000e+00  -6.4046090773180501e-06 2.3656763501787728e-04 0.0000000000000000e+00  -4.8946186068575722e-06 2.4985303101269477e-04 0.0000000000000000e+00  -7.2063161212826031e-07 3.3677319451845675e-07 0.0000000000000000e+00  0.0000000000000000e+00 0.0000000000000000e+00 0.0000000000000000e+00  -1.5089727467406148e-06 1.2290899840130931e-06 0.0000000000000000e+00  -2.3181163094356613e-06 2.6515491862104405e-06 0.0000000000000000e+00  -3.1279383392394837e-06 4.5832296535466076e-06 0.0000000000000000e+00  -3.9351660544078954e-06 6.9872899784511415e-06 0.0000000000000000e+00  -4.7414359130194481e-06 9.8241851278673184e-06 0.0000000000000000e+00  -5.5691913054343925e-06 1.3082501914785053e-05 0.0000000000000000e+00  -6.4208487085596233e-06 1.6703126763097631e-05 0.0000000000000000e+00  -7.3000174742235041e-06 2.0713764350140567e-05 0.0000000000000000e+00  -8.2650607980339840e-06 2.5487817727225185e-05 0.0000000000000000e+00  -9.2608508597220493e-06 3.0757940656305944e-05 0.0000000000000000e+00  -1.0281134788693657e-05 3.6476758699419866e-05 0.0000000000000000e+00  -1.1368427507593553e-05 4.2406023993842558e-05 0.0000000000000000e+00  -1.2695389312406592e-05 4.9179819888640390e-05 0.0000000000000000e+00  -1.4079878918597848e-05 5.6558776196334308e-05 0.0000000000000000e+00  -1.5299025620278055e-05 6.4387417654524631e-05 0.0000000000000000e+00  -1.6219562195879502e-05 7.2552896452966796e-05 0.0000000000000000e+00  -1.7520923190104527e-05 8.1253062102663523e-05 0.0000000000000000e+00  -2.0047529051444749e-05 9.0978541587803557e-05 0.0000000000000000e+00  -2.1351114582701572e-05 1.0090713667402355e-04 0.0000000000000000e+00  -2.3018363925692979e-05 1.1132427819942138e-04 0.0000000000000000e+00  -2.0120848308375457e-05 1.2303912639919715e-04 0.0000000000000000e+00  -1.9139748190639863e-05 1.3462451295307584e-04 0.0000000000000000e+00  -1.8800711993878734e-05 1.4636654536458901e-04 0.0000000000000000e+00  -1.8531916233113955e-05 1.5839105302360349e-04 0.0000000000000000e+00  -1.7915818016164944e-05 1.7053932629757947e-04 0.0000000000000000e+00  -1.6579653187392847e-05 1.8246451742680940e-04 0.0000000000000000e+00  -1.4990373306878747e-05 1.9543787202573999e-04 0.0000000000000000e+00  -1.3548482384970555e-05 2.0849864994754727e-04 0.0000000000000000e+00  -1.2201885697402981e-05 2.2159193152420105e-04 0.0000000000000000e+00  -1.0870768471204081e-05 2.3467460831794819e-04 0.0000000000000000e+00  -9.5111293202608014e-06 2.4770286380870179e-04 0.0000000000000000e+00  -1.1388642255717794e-06 5.7268413882065125e-07 0.0000000000000000e+00  0.0000000000000000e+00 0.0000000000000000e+00 0.00000