<?xml version="1.0"?>
<VTKFile type="UnstructuredGrid"  version="0.1"  >
<UnstructuredGrid>
<Piece  NumberOfPoints="2421" NumberOfCells="4641">
<Points>
<DataArray  type="Float64"  NumberOfComponents="3"  format="ascii">2.808695652173913 0.2 0  2.808695652173913 0.2083333333333333 0  2.81695652173913 0.2083333333333333 0  2.354347826086956 0.2083333333333333 0  2.362608695652174 0.2083333333333333 0  2.362608695652174 0.2166666666666667 0  2.354347826086956 0.2166666666666667 0  2.370869565217391 0.2083333333333333 0  2.370869565217391 0.2166666666666667 0  2.379130434782609 0.2083333333333333 0  2.379130434782609 0.2166666666666667 0  2.387391304347826 0.2083333333333333 0  2.387391304347826 0.2166666666666667 0  2.395652173913044 0.2083333333333333 0  2.395652173913044 0.2166666666666667 0  2.403913043478261 0.2083333333333333 0  2.403913043478261 0.2166666666666667 0  2.412173913043478 0.2083333333333333 0  2.412173913043478 0.2166666666666667 0  2.420434782608695 0.2083333333333333 0  2.420434782608695 0.2166666666666667 0  2.428695652173913 0.2083333333333333 0  2.428695652173913 0.2166666666666667 0  2.43695652173913 0.2083333333333333 0  2.43695652173913 0.2166666666666667 0  2.445217391304348 0.2083333333333333 0  2.445217391304348 0.2166666666666667 0  2.453478260869565 0.2083333333333333 0  2.453478260869565 0.2166666666666667 0  2.461739130434782 0.2083333333333333 0  2.461739130434782 0.2166666666666667 0  2.47 0.2083333333333333 0  2.47 0.2166666666666667 0  2.478260869565217 0.2083333333333333 0  2.478260869565217 0.2166666666666667 0  2.486521739130435 0.2083333333333333 0  2.486521739130435 0.2166666666666667 0  2.494782608695652 0.2083333333333333 0  2.494782608695652 0.2166666666666667 0  2.503043478260869 0.2083333333333333 0  2.503043478260869 0.2166666666666667 0  2.511304347826087 0.2083333333333333 0  2.511304347826087 0.2166666666666667 0  2.519565217391305 0.2083333333333333 0  2.519565217391305 0.2166666666666667 0  2.527826086956522 0.2083333333333333 0  2.527826086956522 0.2166666666666667 0  2.536086956521739 0.2083333333333333 0  2.536086956521739 0.2166666666666667 0  2.544347826086956 0.2083333333333333 0  2.544347826086956 0.2166666666666667 0  2.552608695652174 0.2083333333333333 0  2.552608695652174 0.2166666666666667 0  2.560869565217391 0.2083333333333333 0  2.560869565217391 0.2166666666666667 0  2.569130434782608 0.2083333333333333 0  2.569130434782608 0.2166666666666667 0  2.577391304347826 0.2083333333333333 0  2.577391304347826 0.2166666666666667 0  2.585652173913043 0.2083333333333333 0  2.585652173913043 0.2166666666666667 0  2.593913043478261 0.2083333333333333 0  2.593913043478261 0.2166666666666667 0  2.602173913043478 0.2083333333333333 0  2.602173913043478 0.2166666666666667 0  2.610434782608696 0.2083333333333333 0  2.610434782608696 0.2166666666666667 0  2.618695652173913 0.2083333333333333 0  2.618695652173913 0.2166666666666667 0  2.62695652173913 0.2083333333333333 0  2.62695652173913 0.2166666666666667 0  2.635217391304348 0.2083333333333333 0  2.635217391304348 0.2166666666666667 0  2.643478260869565 0.2083333333333333 0  2.643478260869565 0.2166666666666667 0  2.651739130434783 0.2083333333333333 0  2.651739130434783 0.2166666666666667 0  2.66 0.2083333333333333 0  2.66 0.2166666666666667 0  2.668260869565217 0.2083333333333333 0  2.668260869565217 0.2166666666666667 0  2.676521739130435 0.2083333333333333 0  2.676521739130435 0.2166666666666667 0  2.684782608695652 0.2083333333333333 0  2.684782608695652 0.2166666666666667 0  2.693043478260869 0.2083333333333333 0  2.693043478260869 0.2166666666666667 0  2.701304347826087 0.2083333333333333 0  2.701304347826087 0.2166666666666667 0  2.709565217391304 0.2083333333333333 0  2.709565217391304 0.2166666666666667 0  2.717826086956522 0.2083333333333333 0  2.717826086956522 0.2166666666666667 0  2.726086956521739 0.2083333333333333 0  2.726086956521739 0.2166666666666667 0  2.734347826086956 0.2083333333333333 0  2.734347826086956 0.2166666666666667 0  2.742608695652174 0.2083333333333333 0  2.742608695652174 0.2166666666666667 0  2.750869565217391 0.2083333333333333 0  2.750869565217391 0.2166666666666667 0  2.759130434782609 0.2083333333333333 0  2.759130434782609 0.2166666666666667 0  2.767391304347826 0.2083333333333333 0  2.767391304347826 0.2166666666666667 0  2.775652173913044 0.2083333333333333 0  2.775652173913044 0.2166666666666667 0  2.783913043478261 0.2083333333333333 0  2.783913043478261 0.2166666666666667 0  2.792173913043478 0.2083333333333333 0  2.792173913043478 0.2166666666666667 0  2.800434782608696 0.2083333333333333 0  2.800434782608696 0.2166666666666667 0  2.808695652173913 0.2166666666666667 0  2.81695652173913 0.2166666666666667 0  2.825217391304347 0.2166666666666667 0  2.346086956521739 0.2166666666666667 0  2.354347826086956 0.225 0  2.346086956521739 0.225 0  2.362608695652174 0.225 0  2.370869565217391 0.225 0  2.379130434782609 0.225 0  2.387391304347826 0.225 0  2.395652173913044 0.225 0  2.403913043478261 0.225 0  2.412173913043478 0.225 0  2.420434782608695 0.225 0  2.428695652173913 0.225 0  2.43695652173913 0.225 0  2.445217391304348 0.225 0  2.453478260869565 0.225 0  2.461739130434782 0.225 0  2.47 0.225 0  2.478260869565217 0.225 0  2.486521739130435 0.225 0  2.494782608695652 0.225 0  2.503043478260869 0.225 0  2.511304347826087 0.225 0  2.519565217391305 0.225 0  2.527826086956522 0.225 0  2.536086956521739 0.225 0  2.544347826086956 0.225 0  2.552608695652174 0.225 0  2.560869565217391 0.225 0  2.569130434782608 0.225 0  2.577391304347826 0.225 0  2.585652173913043 0.225 0  2.593913043478261 0.225 0  2.602173913043478 0.225 0  2.610434782608696 0.225 0  2.618695652173913 0.225 0  2.62695652173913 0.225 0  2.635217391304348 0.225 0  2.643478260869565 0.225 0  2.651739130434783 0.225 0  2.66 0.225 0  2.668260869565217 0.225 0  2.676521739130435 0.225 0  2.684782608695652 0.225 0  2.693043478260869 0.225 0  2.701304347826087 0.225 0  2.709565217391304 0.225 0  2.717826086956522 0.225 0  2.726086956521739 0.225 0  2.734347826086956 0.225 0  2.742608695652174 0.225 0  2.750869565217391 0.225 0  2.759130434782609 0.225 0  2.767391304347826 0.225 0  2.775652173913044 0.225 0  2.783913043478261 0.225 0  2.792173913043478 0.225 0  2.800434782608696 0.225 0  2.808695652173913 0.225 0  2.81695652173913 0.225 0  2.825217391304347 0.225 0  2.833478260869565 0.225 0  2.354347826086956 0.2333333333333333 0  2.346086956521739 0.2333333333333333 0  2.362608695652174 0.2333333333333333 0  2.370869565217391 0.2333333333333333 0  2.379130434782609 0.2333333333333333 0  2.387391304347826 0.2333333333333333 0  2.395652173913044 0.2333333333333333 0  2.403913043478261 0.2333333333333333 0  2.412173913043478 0.2333333333333333 0  2.420434782608695 0.2333333333333333 0  2.428695652173913 0.2333333333333333 0  2.43695652173913 0.2333333333333333 0  2.445217391304348 0.2333333333333333 0  2.453478260869565 0.2333333333333333 0  2.461739130434782 0.2333333333333333 0  2.47 0.2333333333333333 0  2.478260869565217 0.2333333333333333 0  2.486521739130435 0.2333333333333333 0  2.494782608695652 0.2333333333333333 0  2.503043478260869 0.2333333333333333 0  2.511304347826087 0.2333333333333333 0  2.519565217391305 0.2333333333333333 0  2.527826086956522 0.2333333333333333 0  2.536086956521739 0.2333333333333333 0  2.544347826086956 0.2333333333333333 0  2.552608695652174 0.2333333333333333 0  2.560869565217391 0.2333333333333333 0  2.569130434782608 0.2333333333333333 0  2.577391304347826 0.2333333333333333 0  2.585652173913043 0.2333333333333333 0  2.593913043478261 0.2333333333333333 0  2.602173913043478 0.2333333333333333 0  2.610434782608696 0.2333333333333333 0  2.618695652173913 0.2333333333333333 0  2.62695652173913 0.2333333333333333 0  2.635217391304348 0.2333333333333333 0  2.643478260869565 0.2333333333333333 0  2.651739130434783 0.2333333333333333 0  2.66 0.2333333333333333 0  2.668260869565217 0.2333333333333333 0  2.676521739130435 0.2333333333333333 0  2.684782608695652 0.2333333333333333 0  2.693043478260869 0.2333333333333333 0  2.701304347826087 0.2333333333333333 0  2.709565217391304 0.2333333333333333 0  2.717826086956522 0.2333333333333333 0  2.726086956521739 0.2333333333333333 0  2.734347826086956 0.2333333333333333 0  2.742608695652174 0.2333333333333333 0  2.750869565217391 0.2333333333333333 0  2.759130434782609 0.2333333333333333 0  2.767391304347826 0.2333333333333333 0  2.775652173913044 0.2333333333333333 0  2.783913043478261 0.2333333333333333 0  2.792173913043478 0.2333333333333333 0  2.800434782608696 0.2333333333333333 0  2.808695652173913 0.2333333333333333 0  2.81695652173913 0.2333333333333333 0  2.825217391304347 0.2333333333333333 0  2.833478260869565 0.2333333333333333 0  2.841739130434783 0.2333333333333333 0  2.354347826086956 0.2416666666666667 0  2.346086956521739 0.2416666666666667 0  2.362608695652174 0.2416666666666667 0  2.370869565217391 0.2416666666666667 0  2.379130434782609 0.2416666666666667 0  2.387391304347826 0.2416666666666667 0  2.395652173913044 0.2416666666666667 0  2.403913043478261 0.2416666666666667 0  2.412173913043478 0.2416666666666667 0  2.420434782608695 0.2416666666666667 0  2.428695652173913 0.2416666666666667 0  2.43695652173913 0.2416666666666667 0  2.445217391304348 0.2416666666666667 0  2.453478260869565 0.2416666666666667 0  2.461739130434782 0.2416666666666667 0  2.47 0.2416666666666667 0  2.478260869565217 0.2416666666666667 0  2.486521739130435 0.2416666666666667 0  2.494782608695652 0.2416666666666667 0  2.503043478260869 0.2416666666666667 0  2.511304347826087 0.2416666666666667 0  2.519565217391305 0.2416666666666667 0  2.527826086956522 0.2416666666666667 0  2.536086956521739 0.2416666666666667 0  2.544347826086956 0.2416666666666667 0  2.552608695652174 0.2416666666666667 0  2.560869565217391 0.2416666666666667 0  2.569130434782608 0.2416666666666667 0  2.577391304347826 0.2416666666666667 0  2.585652173913043 0.24166
[...]
<CellData  Scalars="rho_bar"> 
<DataArray  type="Float64"  Name="rho_bar"  format="ascii">2.3815149064021443e-05   5.7230387816612616e-01   5.7577683107022581e-01   5.1862315437920958e-01   5.2362611024075534e-01   4.2031862070345605e-01   4.2588443093017381e-01   2.9439971578465768e-01   2.9902942101150159e-01   1.7422032478290109e-01   1.7687833294998329e-01   8.8246391269199934e-02   8.9155968457184709e-02   4.0294862979911007e-02   4.0311786744313842e-02   1.7798828241077928e-02   1.7551206295647843e-02   8.1168010826268532e-03   7.8622989003230264e-03   4.0014671666634954e-03   3.7999746235409019e-03   2.1854457204496546e-03   2.0328660194749550e-03   1.3323983594708665e-03   1.2134714926409151e-03   9.0472513315145080e-04   8.0640832552463665e-04   6.8018910274553039e-04   5.9285023625637765e-04   5.6293026394179399e-04   4.7910127962619325e-04   5.1066435700980581e-04   4.2353946563707915e-04   5.0655668506762017e-04   4.0837189329407265e-04   5.4917146832700445e-04   4.2898422263042292e-04   6.5161322440886096e-04   4.9134816801615737e-04   8.4908472707934460e-04   6.1530444067318837e-04   1.2215008890091045e-03   8.4647297340937255e-04   1.9524593651885380e-03   1.2876738214645301e-03   3.4837130627082564e-03   2.1810533253565304e-03   6.9216973290773020e-03   4.1273116877777296e-03   1.5057518865772727e-02   8.6688853849646742e-03   3.4514728675963530e-02   1.9722678305532770e-02   7.8296902929357856e-02   4.6294817567206784e-02   1.6231119680404574e-01   1.0418383715951375e-01   2.8641256435590040e-01   2.0674972665125654e-01   4.1875724094958067e-01   3.4112608980931558e-01   5.1936087998121794e-01   4.6623093618576639e-01   5.6939664549071722e-01   5.4826353614668211e-01   5.6629018818177612e-01   5.7712940088163223e-01   5.0971730339503296e-01   5.5256885367688025e-01   4.0243856791021632e-01   4.7444935850924486e-01   2.6561645814327961e-01   3.5079821494180330e-01   1.4223998904430438e-01   2.1335834519751534e-01   6.3369126885312141e-02   1.0569859982383768e-01   2.5269425783190427e-02   4.4741807164840094e-02   9.7961564512206861e-03   1.7538406628159489e-02   3.9386199655984562e-03   6.8717505701800397e-03   1.7077571763478216e-03   2.8410300115618162e-03   8.1207721078026230e-04   1.2768152743949782e-03   4.2435851906146341e-04   6.3041148992969002e-04   2.4231810737640583e-04   3.4156282066604853e-04   1.4992593956342519e-04   2.0171913925185809e-04   9.9639716838364695e-05   1.2875762586190485e-04   7.0586110595370757e-05   8.8100675739710661e-05   5.2974461273532491e-05   6.4168608831434269e-05   4.1928035898164211e-05   4.9481360534834866e-05   3.4889591142346192e-05   4.0239452455563520e-05   3.0465374388188241e-05   3.4422744157695246e-05   2.7883952844908143e-05   3.0927558492199675e-05   2.6733941764650073e-05   2.9157898332820175e-05   2.6838096737407509e-05   2.8829218754013552e-05   2.8202330044795776e-05   2.9882124610618115e-05   3.2463945218938849e-05   5.8373286439539296e-01   5.8793764584890251e-01   5.3536057909247803e-01   5.4184685009174893e-01   4.3949424561605921e-01   4.4760042805795947e-01   3.1100829151232051e-01   3.1877615253881897e-01   1.8447669808517991e-01   1.8980076134097254e-01   9.2491526868758958e-02   9.5067883091782060e-02   4.1202899571604910e-02   4.2093427901707753e-02   1.7509058186240795e-02   1.7698723238794709e-02   7.5950952478935282e-03   7.5679230403475654e-03   3.5364079199471875e-03   3.4645522058122150e-03   1.8182264030064167e-03   1.7490801336560366e-03   1.0422611068940557e-03   9.8400752940734225e-04   6.6484900020482868e-04   6.1586765426637912e-04   4.6874662988978901e-04   4.2585826792030989e-04   3.6258440301623036e-04   3.2281260138886201e-04   3.0586498784402315e-04   2.6651872494444653e-04   2.8024232748288873e-04   2.3857334973064923e-04   2.7827652968538143e-04   2.3093026780706153e-04   2.9935586929584685e-04   2.4149589932524892e-04   3.4935936382690696e-04   2.7305249453537242e-04   4.4378688284956428e-04   3.3466726752139531e-04   6.1693980928583826e-04   4.4669010880467265e-04   9.4555264823888900e-04   6.5366606872632792e-04   1.6108608492463692e-03   1.0576776685913309e-03   3.0674698634674726e-03   1.9080773362720102e-03   6.5087100945224324e-03   3.8512972101750879e-03   1.5087425242679852e-02   8.6247721776282534e-03   3.6558276372916275e-02   2.0819846917087152e-02   8.6202552009882097e-02   5.1197472044099850e-02   1.8103840318512768e-01   1.1798046370683776e-01   3.1534162561367424e-01   2.3297179133229792e-01   4.4886032812835930e-01   3.7433123391509882e-01   5.4204369843261579e-01   4.9560846048808888e-01   5.8151252826391853e-01   5.6762840965794403e-01   5.6726923076508906e-01   5.8528717273102060e-01   4.9944566506886900e-01   5.4950826032624722e-01   3.8298674916962877e-01   4.6072408238949897e-01   2.4397372201274195e-01   3.3030815549702580e-01   1.2644910972905671e-01   1.9423036087221310e-01   5.5243461400702722e-02   9.3715584020095236e-02   2.1945411330383014e-02   3.9192846137251255e-02   8.5754244050330348e-03   1.5384073018770780e-02   3.4978679672254946e-03   6.0894217811882055e-03   1.5426581062788084e-03   2.5549517868576573e-03   7.4671189487055922e-04   1.1675675320809761e-03   3.9738142751500108e-04   5.8681081867743509e-04   2.3130449113440316e-04   3.2404817336013361e-04   1.4610798238420746e-04   1.9539399125574541e-04   9.9344546724255403e-05   1.2762361910439348e-04   7.2189854171176698e-05   8.9593807963528040e-05   5.5744806498715447e-05   6.7155881540813305e-05   4.5555583976765640e-05   5.3475981832542886e-05   3.9290358116209970e-05   4.5077514275034500e-05   3.5700795579408702e-05   4.0130182960850812e-05   3.4139088469901137e-05   3.7674985743511880e-05   3.4333894961428315e-05   3.7266191604169446e-05   3.6302361135317992e-05   3.8818472916521495e-05   4.0353692994552040e-05   4.2577307467928385e-05   4.9196356640784018e-05   5.5531884777479112e-01   5.6200647446449192e-01   4.6495409819653688e-01   4.7414889509061514e-01   3.3618231893308070e-01   3.4616308788657724e-01   2.0249675233263442e-01   2.1031861819916675e-01   1.0170632173051006e-01   1.0599694962493687e-01   4.4678589319819523e-02   4.6423288290453085e-02   1.8459808789711242e-02   1.9024426512423812e-02   7.6956364590937461e-03   7.8376542312049661e-03   3.4144341378753852e-03   3.4277259455461023e-03   1.6648432556422594e-03   1.6448779820184617e-03   9.0338706630003086e-04   8.7783905665835753e-04   5.4515090675982748e-04   5.2088091377082619e-04   3.6330750096101193e-04   3.4125622212129961e-04   2.6516190756295809e-04   2.4473978764134305e-04   2.1039560900667939e-04   1.9066347429451950e-04   1.8049867899741739e-04   1.6040698966584031e-04   1.6683401524627669e-04   1.4516634611147031e-04   1.6583408575914291e-04   1.4100522916256047e-04   1.7722225757697789e-04   1.4689864284448561e-04   2.0387877660666282e-04   1.6425801537460897e-04   2.5324327425764004e-04   1.9758476986538349e-04   3.4134282406821884e-04   2.5673743488511397e-04   5.0288625144631182e-04   3.6262347049597759e-04   8.1726372027785519e-04   5.6150945687133815e-04   1.4789994782038515e-03   9.6285743931009255e-04   2.9971379760599928e-03   1.8448714739637011e-03   6.7663288980013290e-03   3.9598781321325107e-03   1.6602504121970268e-02   9.4090123442391246e-03   4.2002494555247072e-02   2.3875455453637548e-02   1.0088856587920625e-01   6.0504185262478111e-02   2.0927217015298208e-01   1.3946312008297931e-01   3.5191033309774061e-01   2.6743745324806756e-01   4.8176315805807735e-01   4.1170007557493893e-01   5.6429224065006578e-01   5.2484881983680420e-01   5.9218562874999414e-01   5.8512003703528903e-01   5.6696459712021285e-01   5.9150724975703262e-01   4.8885771141638290e-01   5.4523669399920394e-01   3.6508982171558707e-01   4.4727826281501321e-01   2.2575298728623838e-01   3.1221732822256854e-01   1.1411443223656823e-01   1.7871441196769280e-01   4.9183482397476518e-02   8.4569212743866126e-02   1.9504090818071054e-02   3.5074689594412893e-02   7.6732671918836662e-03   1.3785971921794295e-02   3.1675414431725619e-03   5.5007705574441207e-03   1.4183469598701662e-03   2.3370196312924993e-03   6.9885838207603933e-04   1.0852955956780364e-03   3.7958981842082731e-04   5.5621574289174669e-04   2.2614558329354459e-04   3.1429031490624344e-04   1.4664385341863956e-04   1.9457470829842353e-04   1.0267703619533025e-04   1.3092166647603551e-04   7.7090223463847045e-05   9.5003415581364269e-05   6.1730327274693843e-05   7.3872309932786914e-05   5.2516363994622844e-05   6.1256252612624989e-05   4.7343537608913710e-05   5.3987010456422481e-05   4.5152158828749846e-05   5.0459373451663215e-05   4.5511831072366570e-05   4.9948721933517988e-05   4.8464019159200331e-05   5.2330289951216441e-05   5.4532702045943073e-05   5.8029107697323068e-05   6.4908223279281670e-05   6.8170974035357477e-05   8.5020370362444634e-05   4.9251723074305936e-01   5.0150479263705650e-01   3.6681155095497014e-01   3.7774718927651968e-01   2.2742215894307000e-01   2.3717596112711570e-01   1.1608824009447932e-01   1.2214382635889956e-01   5.0840292104936138e-02   5.3568757045406458e-02   2.0580509521340596e-02   2.1566695148085260e-02   8.3014492171912622e-03   8.6111532572763338e-03   3.5339574662774449e-03   3.6187842859615187e-03   1.6448472192465559e-03   1.6603800727373885e-03   8.4998381705993372e-04   8.4528143687201125e-04   4.8814082639044514e-04   4.7815923174046512e-04   3.0949035817325960e-04   2.9859940406483935e-04   2.1469926841229185e-04   2.0398355855347393e-04   1.6161254577535123e-04   1.5112862893283514e-04   1.3113464023675013e-04   1.2059800135246847e-04   1.1416588084306167e-04   1.0313773643290573e-04   1.0633249049140862e-04   9.4229042316379522e-05   1.0579733821767254e-04   9.1807892093175085e-05   1.1243062526186182e-04   9.5339684948448183e-05   1.2775288537836439e-04   1.0559319174007929e-04   1.5561448170363696e-04   1.2496860580846038e-04   2.0408954045564038e-04   1.5859666561884338e-04   2.9008395198193789e-04   2.1702187072016204e-04   4.5083200263970201e-04   3.2271917639618120e-04   7.7431100585156681e-04   5.2679597171062780e-04   1.4845674543127177e-03   9.5457336776063120e-04   3.1918760205906856e-03   1.9371964538945241e-03   7.6275231102259601e-03   4.4038626762495040e-03   1.9616114287648988e-02   1.1018949819847778e-02   5.0943496305197303e-02   2.8996087802548719e-02   1.2179367130572132e-01   7.4194570673973476e-02   2.4391782508632739e-01   1.6711186283821911e-01   3.9069708559257327e-01   3.0576372264669727e-01   5.1275927325840365e-01   4.4807293945526472e-01   5.8334448858987287e-01   5.5049865583950863e-01   6.0006317154971678e-01   5.9897802663654898e-01   5.6490236209994704e-01   5.9505194663125882e-01   4.7811003535447794e-01   5.3968123526532796e-01   3.4915454871985874e-01   4.3447853929797908e-01   2.1084274603329439e-01   2.9673192184937658e-01   1.0454644780243545e-01   1.6628681114062249e-01   4.4572899769991021e-02   7.7463079958656200e-02   1.7632480799522843e-02   3.1870642432531494e-02   6.9680490544346725e-03   1.2517893162974662e-02   2.9065551851853318e-03   5.0250449431010870e-03   1.3225609285639945e-03   2.1623419633179132e-03   6.6578530365460418e-04   1.0239154870586280e-03   3.7126024607421487e-04   5.3834554397546664e-04   2.2804223385511864e-04   3.1368018537494699e-04   1.5303582533003073e-04   2.0111317521034449e-04   1.1129062098227950e-04   1.4066609600700450e-04   8.7100781961285304e-05   1.0648815668501387e-04   7.2982998905312050e-05   8.6703397617926147e-05   6.5233451026362895e-05   7.5578397800652743e-05   6.2048316681662704e-05   7.0313008640422636e-05   6.2719799187402854e-05   6.9683445962902786e-05   6.7342804754905991e-05   7.3505167709695844e-05   7.6844141759448796e-05   8.2547184677627704e-05   9.3348661516611577e-05   9.8838760833664196e-05   1.2111451342864341e-04   1.2656448538168760e-04   1.7417980344814515e-04   3.9898540786932651e-01   4.0939263290534988e-01   2.5712600204957659e-01   2.6773778472988846e-01   1.3543993860699638e-01   1.4295922949216208e-01   6.0026611926562515e-02   6.3807454584483725e-02   2.4057676807639275e-02   2.5543750484814706e-02   9.4473181217792010e-03   9.9553143685493541e-03   3.8750472731311756e-03   4.0365538727724940e-03   1.7287293145338066e-03   1.7767656566574515e-03   8.5447467203928992e-04   8.6605287208348450e-04   4.6919221989464704e-04   4.6898103775173673e-04   2.8447040568462965e-04   2.8046357201325821e-04   1.8867650272309209e-04   1.8349149489111055e-04   1.3564621962474207e-04   1.3009772392597523e-04   1.0491063968216043e-04   9.9177520392351826e-05   8.6800381157873773e-05   8.0813922491586375e-05   7.6537234872879842e-05   7.0102764393372682e-05   7.1760103049183746e-05   6.4576177054276283e-05   7.1462075773697620e-05   6.3085086834221247e-05   7.5579846370759166e-05   6.5333578527381795e-05   8.4969771824611458e-05   7.1767125297975221e-05   1.0175597461119751e-04   8.3744837519744898e-05   1.3027955955194538e-04   1.0410621088845383e-04   1.7933155739958940e-04   1.3851049207785066e-04   2.6752597713510759e-04   1.9857626890112148e-04   4.3701295655527251e-04   3.0961745879449533e-04   7.9087127490242424e-04   5.3101618648105319e-04   1.6013733515674697e-03   1.0135099548106924e-03   3.6353382685581142e-03   2.1691505519811673e-03   9.1166777232321947e-03   5.1857466567788854e-03   2.4222928535317163e-02   1.3502759923766584e-02   6.3285754450143755e-02   3.6207747945062312e-02   1.4738757352953355e-01   9.1608972540514325e-02   2.8084350303599076e-01   1.9807404032083811e-01   4.2694886207537314e-01   3.4317844658690744e-01   5.3882426916995829e-01   4.7958155441178824e-01   5.9778773253721840e-01   5.7059432058217097e-01   6.0459552809323636e-01   6.0839453664037568e-01   5.6101452455519785e-01   5.9564207104211897e-01   4.6739066179276367e-01   5.3281087991310283e-01   3.3502080317108224e-01   4.2214745961943539e-01   1.9828851513239429e-01   2.8290938813325628e-01   9.6599582910694842e-02   1.5544767779294302e-01   4.0694966283449270e-02   7.1219057615629577e-02   1.6024191666218927e-02   2.8998246567968736e-02   6.3573865535222970e-03   1.1367948424313672e-02   2.6876140629535890e-03   4.6023126286384138e-03   1.2509274802184355e-03   2.0194660920283746e-03   6.4914819595985186e-04   9.8466010025958410e-04   3.7537695851111089e-04   5.3706588556588276e-04   2.4018675596518361e-04   3.2638004167319953e-04   1.6852918546961476e-04   2.1911636483753778e-04   1.2858280238938120e-04   1.6102164763701616e-04   1.0595834432287854e-04   1.2850063667362426e-04   9.3841729629151759e-05   1.1069229255888198e-04   8.9032154771724459e-05   1.0249677145733962e-04   9.0320573431152513e-05   1.0176216033947808e-04   9.7923962242022096e-05   1.0821750743374982e-04   1.1356170123120848e-04   1.2332458103951778e-04   1.4122048920299279e-04   1.5093168733426438e-04   1.8915059351549336e-04   1.9919723788947212e-04   2.7468907072789061e-04   2.8531639148531219e-04   4.4739025898878743e-04   2.8793155680876192e-01   2.9789926195186850e-01   1.5831712417223806e-01   1.6642386160022271e-01   7.2177887093738805e-02   7.6792791289521656e-02   2.9073874243137874e-02   3.1070808527429074e-02   1.1230366741139105e-02   1.1963126538031251e-02   4.4641089305061422e-03   4.7137240211866833e-03   1.9147508050258403e-03   1.9977743449372683e-03   9.0752404232193322e-04   9.3451960283485840e-04   4.7788617760696306e-04   4.8568741609358255e-04   2.7810274345933794e-04   2.7906654644699146e-04   1.7715291208067973e-04   1.7557474258229045e-04   1.2229869550979181e-04   1.1972332869087162e-04   9.0721361260870368e-05   8.7699852558965606e-05   7.1840646028640539e-05   6.8539683614802247e-05   6.0452427974499911e-05   5.6872285989300499e-05   5.3896331620270280e-05   4.9946194347737054e-05   5.0823890885236572e-05   4.6337938330433895e-05   5.0652687303090650e-05   4.5373248202758660e-05   5.3350959955271052e-05   4.6880160136756901e-05   5.9427366245025849e-05   5.1129666472791849e-05   7.0119545771207061e-05   5.8932166512815767e-05   8.7894497302083352e-05   7.1943108915857479e-05   1.1758982425655956e-04   9.3366810193609237e-05   1.6905411614418783e-04   1.2954458808261648e-04   2.6360968035863774e-04   1.9370710311913947e-04   4.5097321503087849e-04   3.1542912183689907e-04   8.5662638391282696e-04   5.6614485952947199e-04   1.8220645376249723e-03   1.1325586993621000e-03   4.3309759500324198e-03   2.5378979572143316e-03   1.1253201032325837e-02   6.3115899126718897e-03   3.0357691422098283e-02   1.6845243218090437e-02   7.8279361575983683e-02   4.5205449106915305e-02   1.7499774799669957e-01   1.1124445886019010e-01   3.1574858337796374e-01   2.2887774666672905e-01   4.5735260900624713e-01   3.7595664571979837e-01   5.5851034935686339e-01   5.0429089200062027e-01   6.0717087252422397e-01   5.8461278445072640e-01   6.0564001238769538e-01   6.1331752536185413e-01   5.5512793089676837e-01   5.9320408784673995e-01   4.5598905354821195e-01   5.2412436598245071e-01   3.2095274033919619e-01   4.0876828460983083e-01   1.8589047815031259e-01   2.6829082575881263e-01   8.8680570885708562e-02   1.4395786312802383e-01   3.6812515764312291e-02   6.4601260290987436e-02   1.4441987337627060e-02   2.6012177146298686e-02   5.7898156912813232e-03   1.0233289292034747e-02   2.5089100097222296e-03   4.2270317379105452e-03   1.2108882658738247e-03   1.9201955590772417e-03   6.5683173997530084e-04   9.7935263847133392e-04   3.9910408660269805e-04   5.6239137407222033e-04   2.6929423913251164e-04   3.6126398202511396e-04   1.9984092046287501e-04   2.5709281621602039e-04   1.6174314656954350e-04   2.0079719173338374e-04   1.4187657816736778e-04   1.7082731646174366e-04   1.3430484450756785e-04   1.5746231976531785e-04   1.3688021704439193e-04   1.5675328935243072e-04   1.5010951686919853e-04   1.6832059652428062e-04   1.7735955240636708e-04   1.9510312934350701e-04   2.2653833292736320e-04   2.4482779444001495e-04   3.1458886546115888e-04   3.3437107464226120e-04   4.7884476395425849e-04   5.0091295287720287e-04   8.0708697377520353e-04   8.3136746285689383e-04   1.5449119645053982e-03   1.8177845485991373e-01   8.6252693644573997e-02   9.1145200143606553e-02   3.5489463743726531e-02   3.7837358604677275e-02   1.3688576829374478e-02   1.4622292258988636e-02   5.3299956306618063e-03   5.6684838669379270e-03   2.2119459370477917e-03   2.3315821872714128e-03   1.0086871447669663e-03   1.0513399051212018e-03   5.1057502672991254e-04   5.2584248380124288e-04   2.8594311534293511e-04   2.9105176411424623e-04   1.7552969131643149e-04   1.7665132892476815e-04   1.1685484196512470e-04   1.1630849777112633e-04   8.3564104215602187e-05   8.2258645019458199e-05   6.3706896925630910e-05   6.2001462810690167e-05   5.1496249013690001e-05   4.9519012012953666e-05   4.3975407354401301e-05   4.1745630804578718e-05   3.9584993789949102e-05   3.7058339300688487e-05   3.7516229396427687e-05   3.4596165867523864e-05   3.7415697881358659e-05   3.3944871088074399e-05   3.9267196404138892e-05   3.4999827091462886e-05   4.3386832304163484e-05   3.7933195819697979e-05   5.0529790542314414e-05   4.3249477789524293e-05   6.2166329479122791e-05   5.1958102583240377e-05   8.1091477651355697e-05   6.5958734598933909e-05   1.1278212930497340e-04   8.8880250511084481e-05   1.6857293728245689e-04   1.2797851771561016e-04   2.7358711259939009e-04   1.9869447285004562e-04   4.8793741957807386e-04   3.3636211907770314e-04   9.6717571924827695e-04   6.2837365408186907e-04   2.1433692191148760e-03   1.3080184407477235e-03   5.2737912124812408e-03   3.0386158627032523e-03   1.3988976611537895e-02   7.7602487772969655e-03   3.7695584312991498e-02   2.0910776815847652e-02   9.4631846018554636e-02   5.5356259826567097e-02   2.0182300165412989e-01   1.3127880222765359e-01   3.4579124310536852e-01   2.5683258985346663e-01   4.8078495096640966e-01   4.0249822981169386e-01   5.7194373735796866e-01   5.2223259070498529e-01   6.1186921366369906e-01   5.9318808152580360e-01   6.0328179968309581e-01   6.1419225346357365e-01   5.46531324