<?xml version="1.0"?>
<VTKFile type="UnstructuredGrid"  version="0.1"  >
<UnstructuredGrid>
<Piece  NumberOfPoints="2354" NumberOfCells="4514">
<Points>
<DataArray  type="Float64"  NumberOfComponents="3"  format="ascii">1.420869565217391 0 0  1.429130434782609 0 0  1.429130434782609 0.008333333333333333 0  1.437391304347826 0 0  1.437391304347826 0.008333333333333333 0  1.445652173913043 0 0  1.445652173913043 0.008333333333333333 0  1.453913043478261 0 0  1.453913043478261 0.008333333333333333 0  1.462173913043478 0 0  1.462173913043478 0.008333333333333333 0  1.470434782608696 0 0  1.470434782608696 0.008333333333333333 0  1.478695652173913 0 0  1.478695652173913 0.008333333333333333 0  1.486956521739131 0 0  1.486956521739131 0.008333333333333333 0  1.495217391304348 0 0  1.495217391304348 0.008333333333333333 0  1.503478260869565 0 0  1.503478260869565 0.008333333333333333 0  1.511739130434782 0 0  1.511739130434782 0.008333333333333333 0  1.52 0 0  1.52 0.008333333333333333 0  1.528260869565217 0 0  1.528260869565217 0.008333333333333333 0  1.536521739130435 0 0  1.536521739130435 0.008333333333333333 0  1.544782608695652 0 0  1.544782608695652 0.008333333333333333 0  1.55304347826087 0 0  1.55304347826087 0.008333333333333333 0  1.561304347826087 0 0  1.561304347826087 0.008333333333333333 0  1.569565217391304 0 0  1.569565217391304 0.008333333333333333 0  1.577826086956522 0 0  1.577826086956522 0.008333333333333333 0  1.586086956521739 0 0  1.586086956521739 0.008333333333333333 0  1.594347826086957 0 0  1.594347826086957 0.008333333333333333 0  1.602608695652174 0 0  1.602608695652174 0.008333333333333333 0  1.610869565217391 0 0  1.610869565217391 0.008333333333333333 0  1.619130434782609 0 0  1.619130434782609 0.008333333333333333 0  1.627391304347826 0 0  1.627391304347826 0.008333333333333333 0  1.635652173913043 0 0  1.635652173913043 0.008333333333333333 0  1.643913043478261 0 0  1.643913043478261 0.008333333333333333 0  1.652173913043478 0 0  1.652173913043478 0.008333333333333333 0  1.660434782608696 0 0  1.660434782608696 0.008333333333333333 0  1.668695652173913 0 0  1.668695652173913 0.008333333333333333 0  1.67695652173913 0 0  1.67695652173913 0.008333333333333333 0  1.685217391304348 0 0  1.685217391304348 0.008333333333333333 0  1.693478260869565 0 0  1.693478260869565 0.008333333333333333 0  1.701739130434782 0 0  1.701739130434782 0.008333333333333333 0  1.71 0 0  1.71 0.008333333333333333 0  1.718260869565217 0 0  1.718260869565217 0.008333333333333333 0  1.726521739130435 0 0  1.726521739130435 0.008333333333333333 0  1.734782608695652 0 0  1.734782608695652 0.008333333333333333 0  1.743043478260869 0.008333333333333333 0  1.437391304347826 0.01666666666666667 0  1.445652173913043 0.01666666666666667 0  1.453913043478261 0.01666666666666667 0  1.462173913043478 0.01666666666666667 0  1.470434782608696 0.01666666666666667 0  1.478695652173913 0.01666666666666667 0  1.486956521739131 0.01666666666666667 0  1.495217391304348 0.01666666666666667 0  1.503478260869565 0.01666666666666667 0  1.511739130434782 0.01666666666666667 0  1.52 0.01666666666666667 0  1.528260869565217 0.01666666666666667 0  1.536521739130435 0.01666666666666667 0  1.544782608695652 0.01666666666666667 0  1.55304347826087 0.01666666666666667 0  1.561304347826087 0.01666666666666667 0  1.569565217391304 0.01666666666666667 0  1.577826086956522 0.01666666666666667 0  1.586086956521739 0.01666666666666667 0  1.594347826086957 0.01666666666666667 0  1.602608695652174 0.01666666666666667 0  1.610869565217391 0.01666666666666667 0  1.619130434782609 0.01666666666666667 0  1.627391304347826 0.01666666666666667 0  1.635652173913043 0.01666666666666667 0  1.643913043478261 0.01666666666666667 0  1.652173913043478 0.01666666666666667 0  1.660434782608696 0.01666666666666667 0  1.668695652173913 0.01666666666666667 0  1.67695652173913 0.01666666666666667 0  1.685217391304348 0.01666666666666667 0  1.693478260869565 0.01666666666666667 0  1.701739130434782 0.01666666666666667 0  1.71 0.01666666666666667 0  1.718260869565217 0.01666666666666667 0  1.726521739130435 0.01666666666666667 0  1.734782608695652 0.01666666666666667 0  1.743043478260869 0.01666666666666667 0  1.445652173913043 0.025 0  1.453913043478261 0.025 0  1.462173913043478 0.025 0  1.470434782608696 0.025 0  1.478695652173913 0.025 0  1.486956521739131 0.025 0  1.495217391304348 0.025 0  1.503478260869565 0.025 0  1.511739130434782 0.025 0  1.52 0.025 0  1.528260869565217 0.025 0  1.536521739130435 0.025 0  1.544782608695652 0.025 0  1.55304347826087 0.025 0  1.561304347826087 0.025 0  1.569565217391304 0.025 0  1.577826086956522 0.025 0  1.586086956521739 0.025 0  1.594347826086957 0.025 0  1.602608695652174 0.025 0  1.610869565217391 0.025 0  1.619130434782609 0.025 0  1.627391304347826 0.025 0  1.635652173913043 0.025 0  1.643913043478261 0.025 0  1.652173913043478 0.025 0  1.660434782608696 0.025 0  1.668695652173913 0.025 0  1.67695652173913 0.025 0  1.685217391304348 0.025 0  1.693478260869565 0.025 0  1.701739130434782 0.025 0  1.71 0.025 0  1.718260869565217 0.025 0  1.726521739130435 0.025 0  1.734782608695652 0.025 0  1.743043478260869 0.025 0  1.751304347826087 0.025 0  1.453913043478261 0.03333333333333333 0  1.462173913043478 0.03333333333333333 0  1.470434782608696 0.03333333333333333 0  1.478695652173913 0.03333333333333333 0  1.486956521739131 0.03333333333333333 0  1.495217391304348 0.03333333333333333 0  1.503478260869565 0.03333333333333333 0  1.511739130434782 0.03333333333333333 0  1.52 0.03333333333333333 0  1.528260869565217 0.03333333333333333 0  1.536521739130435 0.03333333333333333 0  1.544782608695652 0.03333333333333333 0  1.55304347826087 0.03333333333333333 0  1.561304347826087 0.03333333333333333 0  1.569565217391304 0.03333333333333333 0  1.577826086956522 0.03333333333333333 0  1.586086956521739 0.03333333333333333 0  1.594347826086957 0.03333333333333333 0  1.602608695652174 0.03333333333333333 0  1.610869565217391 0.03333333333333333 0  1.619130434782609 0.03333333333333333 0  1.627391304347826 0.03333333333333333 0  1.635652173913043 0.03333333333333333 0  1.643913043478261 0.03333333333333333 0  1.652173913043478 0.03333333333333333 0  1.660434782608696 0.03333333333333333 0  1.668695652173913 0.03333333333333333 0  1.67695652173913 0.03333333333333333 0  1.685217391304348 0.03333333333333333 0  1.693478260869565 0.03333333333333333 0  1.701739130434782 0.03333333333333333 0  1.71 0.03333333333333333 0  1.718260869565217 0.03333333333333333 0  1.726521739130435 0.03333333333333333 0  1.734782608695652 0.03333333333333333 0  1.743043478260869 0.03333333333333333 0  1.751304347826087 0.03333333333333333 0  1.759565217391304 0.03333333333333333 0  1.462173913043478 0.04166666666666666 0  1.470434782608696 0.04166666666666666 0  1.478695652173913 0.04166666666666666 0  1.486956521739131 0.04166666666666666 0  1.495217391304348 0.04166666666666666 0  1.503478260869565 0.04166666666666666 0  1.511739130434782 0.04166666666666666 0  1.52 0.04166666666666666 0  1.528260869565217 0.04166666666666666 0  1.536521739130435 0.04166666666666666 0  1.544782608695652 0.04166666666666666 0  1.55304347826087 0.04166666666666666 0  1.561304347826087 0.04166666666666666 0  1.569565217391304 0.04166666666666666 0  1.577826086956522 0.04166666666666666 0  1.586086956521739 0.04166666666666666 0  1.594347826086957 0.04166666666666666 0  1.602608695652174 0.04166666666666666 0  1.610869565217391 0.04166666666666666 0  1.619130434782609 0.04166666666666666 0  1.627391304347826 0.04166666666666666 0  1.635652173913043 0.04166666666666666 0  1.643913043478261 0.04166666666666666 0  1.652173913043478 0.04166666666666666 0  1.660434782608696 0.04166666666666666 0  1.668695652173913 0.04166666666666666 0  1.67695652173913 0.04166666666666666 0  1.685217391304348 0.04166666666666666 0  1.693478260869565 0.04166666666666666 0  1.701739130434782 0.04166666666666666 0  1.71 0.04166666666666666 0  1.718260869565217 0.04166666666666666 0  1.726521739130435 0.04166666666666666 0  1.734782608695652 0.04166666666666666 0  1.743043478260869 0.04166666666666666 0  1.751304347826087 0.04166666666666666 0  1.759565217391304 0.04166666666666666 0  1.767826086956522 0.04166666666666666 0  1.470434782608696 0.05 0  1.478695652173913 0.05 0  1.486956521739131 0.05 0  1.495217391304348 0.05 0  1.503478260869565 0.05 0  1.511739130434782 0.05 0  1.52 0.05 0  1.528260869565217 0.05 0  1.536521739130435 0.05 0  1.544782608695652 0.05 0  1.55304347826087 0.05 0  1.561304347826087 0.05 0  1.569565217391304 0.05 0  1.577826086956522 0.05 0  1.586086956521739 0.05 0  1.594347826086957 0.05 0  1.602608695652174 0.05 0  1.610869565217391 0.05 0  1.619130434782609 0.05 0  1.627391304347826 0.05 0  1.635652173913043 0.05 0  1.643913043478261 0.05 0  1.652173913043478 0.05 0  1.660434782608696 0.05 0  1.668695652173913 0.05 0  1.67695652173913 0.05 0  1.685217391304348 0.05 0  1.693478260869565 0.05 0  1.701739130434782 0.05 0  1.71 0.05 0  1.718260869565217 0.05 0  1.726521739130435 0.05 0  1.734782608695652 0.05 0  1.743043478260869 0.05 0  1.751304347826087 0.05 0  1.759565217391304 0.05 0  1.767826086956522 0.05 0  1.478695652173913 0.05833333333333333 0  1.486956521739131 0.05833333333333333 0  1.495217391304348 0.05833333333333333 0  1.503478260869565 0.05833333333333333 0  1.511739130434782 0.05833333333333333 0  1.52 0.05833333333333333 0  1.528260869565217 0.05833333333333333 0  1.536521739130435 0.05833333333333333 0  1.544782608695652 0.05833333333333333 0  1.55304347826087 0.05833333333333333 0  1.561304347826087 0.05833333333333333 0  1.569565217391304 0.05833333333333333 0  1.577826086956522 0.05833333333333333 0  1.586086956521739 0.05833333333333333 0  1.594347826086957 0.05833333333333333 0  1.602608695652174 0.05833333333333333 0  1.610869565217391 0.05833333333333333 0  1.619130434782609 0.05833333333333333 0  1.627391304347826 0.05833333333333333 0  1.635652173913
[...]
<PointData  Vectors="Displacement"> 
<DataArray  type="Float64"  Name="Displacement"  NumberOfComponents="3" format="ascii">1.9067203759785730e-04 1.2280970943558073e-03 0.0000000000000000e+00  1.9171720617675896e-04 1.2318876658182995e-03 0.0000000000000000e+00  1.8782204727127154e-04 1.2315494014941641e-03 0.0000000000000000e+00  1.9280443540529727e-04 1.2357152658905826e-03 0.0000000000000000e+00  1.8884076690218679e-04 1.2353657923413798e-03 0.0000000000000000e+00  1.9394134280513976e-04 1.2396235849782434e-03 0.0000000000000000e+00  1.8987485646656740e-04 1.2392604548221234e-03 0.0000000000000000e+00  1.9512534751244193e-04 1.2436598684447001e-03 0.0000000000000000e+00  1.9092472569604823e-04 1.2432845606140874e-03 0.0000000000000000e+00  1.9634378496335503e-04 1.2478625095669782e-03 0.0000000000000000e+00  1.9198536462603503e-04 1.2474799369342037e-03 0.0000000000000000e+00  1.9758073533547018e-04 1.2522499174512397e-03 0.0000000000000000e+00  1.9305054661715199e-04 1.2518649498676191e-03 0.0000000000000000e+00  1.9882431332927456e-04 1.2568232639765908e-03 0.0000000000000000e+00  1.9411642517437190e-04 1.2564387395236898e-03 0.0000000000000000e+00  2.0007086227343340e-04 1.2615740054867431e-03 0.0000000000000000e+00  1.9518353204679478e-04 1.2611899171162436e-03 0.0000000000000000e+00  2.0132564913098849e-04 1.2664924023405109e-03 0.0000000000000000e+00  1.9625696389257531e-04 1.2661061571478378e-03 0.0000000000000000e+00  2.0260084584588524e-04 1.2715744055932687e-03 0.0000000000000000e+00  1.9734507727196143e-04 1.2711817928546083e-03 0.0000000000000000e+00  2.0391240530736679e-04 1.2768252469619278e-03 0.0000000000000000e+00  1.9845770586963106e-04 1.2764214458226252e-03 0.0000000000000000e+00  2.0527706319270364e-04 1.2822604615837598e-03 0.0000000000000000e+00  1.9960450072825726e-04 1.2818408350515544e-03 0.0000000000000000e+00  2.0670989613310253e-04 1.2879055030104317e-03 0.0000000000000000e+00  2.0079353616978514e-04 1.2874661909908355e-03 0.0000000000000000e+00  2.0822240074212090e-04 1.2937946495696351e-03 0.0000000000000000e+00  2.0203014588100567e-04 1.2933330344367098e-03 0.0000000000000000e+00  2.0982096412484563e-04 1.2999694329263625e-03 0.0000000000000000e+00  2.0331596045297255e-04 1.2994845154544938e-03 0.0000000000000000e+00  2.1150567622112563e-04 1.3064765782360276e-03 0.0000000000000000e+00  2.0464819549124760e-04 1.3059692596150516e-03 0.0000000000000000e+00  2.1326978836919448e-04 1.3133650013557674e-03 0.0000000000000000e+00  2.0601960661791548e-04 1.3128380554305237e-03 0.0000000000000000e+00  2.1509972429723480e-04 1.3206825946315847e-03 0.0000000000000000e+00  2.0741895389665016e-04 1.3201405583453812e-03 0.0000000000000000e+00  2.1697638969959721e-04 1.3284715355214791e-03 0.0000000000000000e+00  2.0883273338050777e-04 1.3279197834527780e-03 0.0000000000000000e+00  2.1887465403034866e-04 1.3367686708438027e-03 0.0000000000000000e+00  2.1024444601814906e-04 1.3362141821738462e-03 0.0000000000000000e+00  2.2076278335159493e-04 1.3456007052369443e-03 0.0000000000000000e+00  2.1163492287665876e-04 1.3450520978966988e-03 0.0000000000000000e+00  2.2260467045968072e-04 1.3549754152109438e-03 0.0000000000000000e+00  2.1298564793579126e-04 1.3544416579353146e-03 0.0000000000000000e+00  2.2436426529402238e-04 1.3648751391377946e-03 0.0000000000000000e+00  2.1428256652451468e-04 1.3643636113484132e-03 0.0000000000000000e+00  2.2599580842997080e-04 1.3752743255909658e-03 0.0000000000000000e+00  2.1550252507092059e-04 1.3748004538970242e-03 0.0000000000000000e+00  2.2745907487004729e-04 1.3860925662270236e-03 0.0000000000000000e+00  2.1662985226065834e-04 1.3856657318287238e-03 0.0000000000000000e+00  2.2872771174442272e-04 1.3972255113842563e-03 0.0000000000000000e+00  2.1765543152858191e-04 1.3968515743657123e-03 0.0000000000000000e+00  2.2978957176382836e-04 1.4085566712981339e-03 0.0000000000000000e+00  2.1857491920660590e-04 1.4082384262577520e-03 0.0000000000000000e+00  2.3064520992667354e-04 1.4199690364439074e-03 0.0000000000000000e+00  2.1938655526745443e-04 1.4197070765126758e-03 0.0000000000000000e+00  2.3130796977855646e-04 1.4313526347469530e-03 0.0000000000000000e+00  2.2009144161432619e-04 1.4311442495393832e-03 0.0000000000000000e+00  2.3180544845368122e-04 1.4426138920451913e-03 0.0000000000000000e+00  2.2069660654226174e-04 1.4424512659155333e-03 0.0000000000000000e+00  2.3217782038470916e-04 1.4536879195460831e-03 0.0000000000000000e+00  2.2121731750142086e-04 1.4535585065978632e-03 0.0000000000000000e+00  2.3246804857015346e-04 1.4645500505991312e-03 0.0000000000000000e+00  2.2167224521501676e-04 1.4644415869412926e-03 0.0000000000000000e+00  2.3271141349694543e-04 1.4752082613309033e-03 0.0000000000000000e+00  2.2207781737688208e-04 1.4751122048922876e-03 0.0000000000000000e+00  2.3293369135901420e-04 1.4856834607707393e-03 0.0000000000000000e+00  2.2244840620028623e-04 1.4855936250483231e-03 0.0000000000000000e+00  2.3315314087406978e-04 1.4960013940318842e-03 0.0000000000000000e+00  2.2279640513142427e-04 1.4959133727087091e-03 0.0000000000000000e+00  2.3338374185105686e-04 1.5061871292636614e-03 0.0000000000000000e+00  2.2313327677737303e-04 1.5060971462527389e-03 0.0000000000000000e+00  2.3363802318665018e-04 1.5162642583584499e-03 0.0000000000000000e+00  2.2347040343968810e-04 1.5161684766528724e-03 0.0000000000000000e+00  2.3392817579261655e-04 1.5262567187559783e-03 0.0000000000000000e+00  2.2381897298154487e-04 1.5261512669498176e-03 0.0000000000000000e+00  2.2418932066882322e-04 1.5360716646158977e-03 0.0000000000000000e+00  1.8485270149826125e-04 1.2350474558281883e-03 0.0000000000000000e+00  1.8578291784776519e-04 1.2389310632786520e-03 0.0000000000000000e+00  1.8670345717037161e-04 1.2429463724055424e-03 0.0000000000000000e+00  1.8761349243637815e-04 1.2471418732611583e-03 0.0000000000000000e+00  1.8851103698981072e-04 1.2515338029430772e-03 0.0000000000000000e+00  1.8939636033689098e-04 1.2561171835679702e-03 0.0000000000000000e+00  1.9027314506598741e-04 1.2608763529999105e-03 0.0000000000000000e+00  1.9114799802481098e-04 1.2657959957212512e-03 0.0000000000000000e+00  1.9202862996822284e-04 1.2708694765287505e-03 0.0000000000000000e+00  1.9292224883014878e-04 1.2761017236612574e-03 0.0000000000000000e+00  1.9383462815818241e-04 1.2815093015349805e-03 0.0000000000000000e+00  1.9476955342212593e-04 1.2871195183633635e-03 0.0000000000000000e+00  1.9572833121494986e-04 1.2929692007855212e-03 0.0000000000000000e+00  1.9670922495676620e-04 1.2991031259688090e-03 0.0000000000000000e+00  1.9770683971841906e-04 1.3055719428398697e-03 0.0000000000000000e+00  1.9871243862415480e-04 1.3124280542990364e-03 0.0000000000000000e+00  1.9971503053042234e-04 1.3197223444634150e-03 0.0000000000000000e+00  2.0070571891518663e-04 1.3274959982610389e-03 0.0000000000000000e+00  2.0167520117219745e-04 1.3357897621897985e-03 0.0000000000000000e+00  2.0261204017010389e-04 1.3446339543200913e-03 0.0000000000000000e+00  2.0351079001690596e-04 1.3540333886734100e-03 0.0000000000000000e+00  2.0438364333621054e-04 1.3639597499830278e-03 0.0000000000000000e+00  2.0522197404996317e-04 1.3744253036286089e-03 0.0000000000000000e+00  2.0603111791827797e-04 1.3853214917136426e-03 0.0000000000000000e+00  2.0682058463246270e-04 1.3965387880838299e-03 0.0000000000000000e+00  2.0759651996068686e-04 1.4079574755565887e-03 0.0000000000000000e+00  2.0835620395821098e-04 1.4194616850840987e-03 0.0000000000000000e+00  2.0908768772018207e-04 1.4309384212732926e-03 0.0000000000000000e+00  2.0977538855496063e-04 1.4422818978384003e-03 0.0000000000000000e+00  2.1041155683853671e-04 1.4534122135334440e-03 0.0000000000000000e+00  2.1099629819437061e-04 1.4643071105256834e-03 0.0000000000000000e+00  2.1153066196367230e-04 1.4749868115767509e-03 0.0000000000000000e+00  2.1201879997585673e-04 1.4854756271559476e-03 0.0000000000000000e+00  2.1246676661572158e-04 1.4958020798185776e-03 0.0000000000000000e+00  2.1288266811639807e-04 1.5059907344741285e-03 0.0000000000000000e+00  2.1327678662725743e-04 1.5160633962766389e-03 0.0000000000000000e+00  2.1366022191263235e-04 1.5260432334807867e-03 0.0000000000000000e+00  2.1404326271434547e-04 1.5359567152274877e-03 0.0000000000000000e+00  1.8174179070346664e-04 1.2386405724857919e-03 0.0000000000000000e+00  1.8251636996906038e-04 1.2426455474254413e-03 0.0000000000000000e+00  1.8326120259845190e-04 1.2468475743460370e-03 0.0000000000000000e+00  1.8397923028448692e-04 1.2512577170462622e-03 0.0000000000000000e+00  1.8467345152293867e-04 1.2558635654940421e-03 0.0000000000000000e+00  1.8534957961154324e-04 1.2606418897184606e-03 0.0000000000000000e+00  1.8601582803780782e-04 1.2655725635021522e-03 0.0000000000000000e+00  1.8668011295121538e-04 1.2706482840496838e-03 0.0000000000000000e+00  1.8734817645345067e-04 1.2758753149374733e-03 0.0000000000000000e+00  1.8802316539393067e-04 1.2812719486262898e-03 0.0000000000000000e+00  1.8870576582754177e-04 1.2868671132120666e-03 0.0000000000000000e+00  1.8939422545010266e-04 1.2926993239447625e-03 0.0000000000000000e+00  1.9008393939769395e-04 1.2988155635477838e-03 0.0000000000000000e+00  1.9076637272157670e-04 1.3052697333615225e-03 0.0000000000000000e+00  1.9142941275687722e-04 1.3121166613392181e-03 0.0000000000000000e+00  1.9205848393382451e-04 1.3194086466609500e-03 0.0000000000000000e+00  1.9264712252577211e-04 1.3271793093928802e-03 0.0000000000000000e+00  1.9319178508807539e-04 1.3354746488293645e-03 0.0000000000000000e+00  1.9368553998501856e-04 1.3443327900111675e-03 0.0000000000000000e+00  1.9412484548423804e-04 1.3537452438615511e-03 0.0000000000000000e+00  1.9455599327700089e-04 1.3636514954104408e-03 0.0000000000000000e+00  1.9498533864171260e-04 1.3741461947201108e-03 0.0000000000000000e+00  1.9545209766380555e-04 1.3850583606351830e-03 0.0000000000000000e+00  1.9599157138706019e-04 1.3962847557822330e-03 0.0000000000000000e+00  1.9662376693020236e-04 1.4077072158970320e-03 0.0000000000000000e+00  1.9734858112373390e-04 1.4192232555633203e-03 0.0000000000000000e+00  1.9813918366157218e-04 1.4307272889491874e-03 0.0000000000000000e+00  1.9895153973118214e-04 1.4421088541960994e-03 0.0000000000000000e+00  1.9973277778908229e-04 1.4532618061291083e-03 0.0000000000000000e+00  2.0045359754699530e-04 1.4641628284202297e-03 0.0000000000000000e+00  2.0110609786144309e-04 1.4748504725596865e-03 0.0000000000000000e+00  2.0169208513827762e-04 1.4853480103646905e-03 0.0000000000000000e+00  2.0221619868689345e-04 1.4956861799809026e-03 0.0000000000000000e+00  2.0268591940287824e-04 1.5058864397147901e-03 0.0000000000000000e+00  2.0311258655991108e-04 1.5159665147896787e-03 0.0000000000000000e+00  2.0350892900398334e-04 1.5259480522324821e-03 0.0000000000000000e+00  2.0388622769488155e-04 1.5358582350007064e-03 0.0000000000000000e+00  2.0425375262765247e-04 1.5457268181941388e-03 0.0000000000000000e+00  1.7842126492770031e-04 1.2423967736954085e-03 0.0000000000000000e+00  1.7895659866559520e-04 1.2466075152425084e-03 0.0000000000000000e+00  1.7946660037010392e-04 1.2510448287419791e-03 0.0000000000000000e+00  1.7995301644917945e-04 1.2556855375968092e-03 0.0000000000000000e+00  1.8041958772101055e-04 1.2604938161482249e-03 0.0000000000000000e+00  1.8087409190785535e-04 1.2654417275052921e-03 0.0000000000000000e+00  1.8132349883504244e-04 1.2705219283527332e-03 0.0000000000000000e+00  1.8177138089069315e-04 1.2757433426784596e-03 0.0000000000000000e+00  1.8221799854226269e-04 1.2811269013243763e-03 0.0000000000000000e+00  1.8266101431979893e-04 1.2867036294903586e-03 0.0000000000000000e+00  1.8309576796980454e-04 1.2925141038296081e-03 0.0000000000000000e+00  1.8351473272535990e-04 1.2986084056237368e-03 0.0000000000000000e+00  1.8390517294555447e-04 1.3050463404824251e-03 0.0000000000000000e+00  1.8424923086913535e-04 1.3118875840739369e-03 0.0000000000000000e+00  1.8452311066060608e-04 1.3191890947918297e-03 0.0000000000000000e+00  1.8471807946990695e-04 1.3269637080103910e-03 0.0000000000000000e+00  1.8483015431162975e-04 1.3352660650149592e-03 0.0000000000000000e+00  1.8485911797376224e-04 1.3441554454609267e-03 0.0000000000000000e+00  1.8480897611419713e-04 1.3536191904638855e-03 0.0000000000000000e+00  1.8471443975884679e-04 1.3634671840730037e-03 0.0000000000000000e+00  1.8461789763273578e-04 1.3740013477184074e-03 0.0000000000000000e+00  1.8466906308457992e-04 1.3849015017633243e-03 0.0000000000000000e+00  1.8491471628235954e-04 1.3960950707999737e-03 0.0000000000000000e+00  1.8540578993615981e-04 1.4074746573433158e-03 0.0000000000000000e+00  1.8612646023009367e-04 1.4189508479470834e-03 0.0000000000000000e+00  1.8706543638976342e-04 1.4304576875038848e-03 0.0000000000000000e+00  1.8811746287162605e-04 1.4418710451338840e-03 0.0000000000000000e+00  1.8919948781436399e-04 1.4530905326677870e-03 0.0000000000000000e+00  1.9009349753511406e-04 1.4640069134909841e-03 0.0000000000000000e+00  1.9086146946822714e-04 1.4747133329256286e-03 0.0000000000000000e+00  1.9152492297572232e-04 1.4852250093966362e-03 0.0000000000000000e+00  1.9209940072265641e-04 1.4955828210516033e-03 0.0000000000000000e+00  1.9259575111658619e-04 1.5058027824855231e-03 0.0000000000000000e+00  1.9302922149949534e-04 1.5158954246686819e-03 0.0000000000000000e+00  1.9341627116468019e-04 1.5258808164113869e-03 0.0000000000000000e+00  1.9376986893774155e-04 1.5357885135632581e-03 0.0000000000000000e+00  1.9409967549716259e-04 1.5456494226124293e-03 0.0000000000000000e+00  1.9441346848339381e-04 1.5554952730279170e-03 0.0000000000000000e+00  1.7469492553773223e-04 1.2464441958807398e-03 0.0000000000000000e+00  1.7495535892397528e-04 1.2509067721486959e-03 0.0000000000000000e+00  1.7521997800294307e-04 1.2555904799025877e-03 0.0000000000000000e+00  1.7547667927305603e-04 1.2604366929344986e-03 0.0000000000000000e+00  1.7572766719935054e-04 1.2654041608122428e-03 0.0000000000000000e+00  1.7597629508447240e-04 1.2704872714193710e-03 0.0000000000000000e+00  1.7622214424606287e-04 1.2756994330780601e-03 0.0000000000000000e+00  1.7646159982433662e-04 1.2810649196788183e-03 0.0000000000000000e+00  1.7668900859666570e-04 1.2866169430630688e-03 0.0000000000000000e+00  1.7689681654008390e-04 1.2923982648781205e-03 0.0000000000000000e+00  1.7707416666383979e-04 1.2984628225605316e-03 0.0000000000000000e+00  1.7720252509017111e-04 1.3048807550225569e-03 0.0000000000000000e+00  1.7725632549145162e-04 1.3117205978821678e-03 0.0000000000000000e+00  1.7719627558160592e-04 1.3190536625907775e-03 0.0000000000000000e+00  1.7701480333197524e-04 1.3268498793440990e-03 0.0000000000000000e+00  1.7668075027091421e-04 1.3351742914529657e-03 0.0000000000000000e+00  1.7619742228827133e-04 1.3440968422835239e-03 0.0000000000000000e+00  1.7567430086223398e-04 1.3536048246105903e-03 0.0000000000000000e+00  1.7534439824382474e-04 1.3633577117252000e-03 0.0000000000000000e+00  1.7456242014391097e-04 1.3739401643996418e-03 0.0000000000000000e+00  1.7392042112282773e-04 1.3848455020738437e-03 0.0000000000000000e+00  1.7362796479946884e-04 1.3960124020500298e-03 0.0000000000000000e+00  1.7392668325338489e-04 1.4073112634620244e-03 0.0000000000000000e+00  1.7454995045771768e-04 1.4187110264205851e-03 0.0000000000000000e+00  1.7545782677696710e-04 1.4301451250852276e-03 0.0000000000000000e+00  1.7716477582782833e-04 1.4415123735877411e-03 0.0000000000000000e+00  1.7890209526502687e-04 1.4528163025052619e-03 0.0000000000000000e+00  1.8004705549173335e-04 1.4638362841602394e-03 0.0000000000000000e+00  1.8089910214870309e-04 1.4745964628520554e-03 0.0000000000000000e+00  1.8158458136195780e-04 1.4851245520970666e-03 0.0000000000000000e+00  1.8217076347490241e-04 1.4955116299099817e-03 0.0000000000000000e+00  1.8266095070041248e-04 1.5057610529472154e-03 0.0000000000000000e+00  1.8307219136497370e-04 1.5158695902632313e-03 0.0000000000000000e+00  1.8342651863356160e-04 1.5258570727501770e-03 0.0000000000000000e+00  1.8373870853525591e-04 1.5357596278402477e-03 0.0000000000000000e+00  1.8401802318391235e-04 1.5456101101635120e-03 0.0000000000000000e+00  1.8427129971166202e-04 1.5554398834631020e-03 0.0000000000000000e+00  1.8450470070886961e-04 1.5652817268774169e-03 0.0000000000000000e+00  1.7035740346510022e-04 1.2508438142145928e-03 0.0000000000000000e+00  1.7042294577554394e-04 1.2555761665180537e-03 0.0000000000000000e+00  1.7049555234401672e-04 1.2604673167812531e-03 0.0000000000000000e+00  1.7057156595629033e-04 1.2654523549001119e-03 0.0000000000000000e+00  1.7065049152553796e-04 1.2705327336307698e-03 0.0000000000000000e+00  1.7072709329975661e-04 1.2757290422930503e-03 0.0000000000000000e+00  1.7079356241247635e-04 1.2810690606698306e-03 0.0000000000000000e+00  1.7084140954101861e-04 1.2865874533698430e-03 0.0000000000000000e+00  1.7086125107297674e-04 1.2923286948070167e-03 0.0000000000000000e+00  1.7083973374907858e-04 1.2983516280104868e-03 0.0000000000000000e+00  1.7074802722925398e-04 1.3047420634408017e-03 0.0000000000000000e+00  1.7055491746677696e-04 1.3115802685959978e-03 0.0000000000000000e+00  1.7020436175342713e-04 1.3189690093125114e-03 0.0000000000000000e+00  1.6973470095282066e-04 1.3267675501778787e-03 0.0000000000000000e+00  1.6914634251901557e-04 1.3351106256813386e-03 0.0000000000000000e+00  1.6827433128361796e-04 1.3440563284924506e-03 0.0000000000000000e+00  1.6686361321979686e-04 1.3536707024713159e-03 0.0000000000000000e+00  1.6705484273259741e-04 1.3642746530190639e-03 0.0000000000000000e+00  1.6740821927242172e-04 1.3758385412852593e-03 0.0000000000000000e+00  1.6725862275673975e-04 1.3867828530038165e-03 0.0000000000000000e+00  1.6713198273374521e-04 1.3977389736368694e-03 0.0000000000000000e+00  1.6720924471875614e-04 1.4087439043913013e-03 0.0000000000000000e+00  1.6752561991703859e-04 1.4198469080933781e-03 0.0000000000000000e+00  1.6807847298843469e-04 1.4309685440016397e-03 0.0000000000000000e+00  1.6886096332982190e-04 1.4420032127090807e-03 0.0000000000000000e+00  1.6974101191501111e-04 1.4530843334642728e-03 0.0000000000000000e+00  1.7054230326001279e-04 1.4640303083037769e-03 0.0000000000000000e+00  1.7113716468427706e-04 1.4744738338700095e-03 0.0000000000000000e+00  1.7189494360814555e-04 1.4850718773711574e-03 0.0000000000000000e+00  1.7245996052390016e-04 1.4954934073966955e-03 0.0000000000000000e+00  1.7292043084243103e-04 1.5057872395217438e-03 0.0000000000000000e+00  1.7327854199857630e-04 1.5159117920325209e-03 0.0000000000000000e+00  1.7357529310041674e-04 1.5258928711587847e-03 0.0000000000000000e+00  1.7382900519604346e-04 1.5357828211700752e-03 0.0000000000000000e+00  1.7404738547913733e-04 1.5456168796181766e-03 0.0000000000000000e+00  1.7423481463048929e-04 1.5554252000106459e-03 0.0000000000000000e+00  1.7439510470634709e-04 1.5652378685172459e-03 0.0000000000000000e+00  1.6549330087117727e-04 1.2556149045233420e-03 0.0000000000000000e+00  1.6544542320658109e-04 1.2605684259214406e-03 0.0000000000000000e+00  1.6539996548137805e-04 1.2655671066683475e-03 0.0000000000000000e+00  1.6535853246098177e-04 1.2706365605481998e-03 0.0000000000000000e+00  1.6531300381353639e-04 1.2758088487984174e-03 0.0000000000000000e+00  1.6525300346725426e-04 1.2811146007719652e-03 0.0000000000000000e+00  1.6516911920482511e-04 1.2865876388355284e-03 0.0000000000000000e+00  1.6505355605420471e-04 1.2922723862069168e-03 0.0000000000000000e+00  1.6489416852820120e-04 1.2982332910639596e-03 0.0000000000000000e+00  1.6464911021374598e-04 1.3045897891606685e-03 0.0000000000000000e+00  1.6426146664728797e-04 1.3114079995702260e-03 0.0000000000000000e+00  1.6369350467011537e-04 1.3188686029206105e-03 0.0000000000000000e+00  1.6302679374122138e-04 1.3266696491987897e-03 0.0000000000000000e+00  1.6183701418857695e-04 1.3351231425597963e-03 0.0000000000000000e+00  1.6214929529681710e-04 1.3461112632491357e-03 0.0000000000000000e+00  1.6160683297649614e-04 1.3562328099879764e-03 0.0000000000000000e+00  1.6107271687453652e-04 1.3665437258851970e-03 0.0000000000000000e+