<?xml version="1.0"?>
<VTKFile type="UnstructuredGrid"  version="0.1"  >
<UnstructuredGrid>
<Piece  NumberOfPoints="2421" NumberOfCells="4641">
<Points>
<DataArray  type="Float64"  NumberOfComponents="3"  format="ascii">2.808695652173913 0.2 0  2.808695652173913 0.2083333333333333 0  2.81695652173913 0.2083333333333333 0  2.354347826086956 0.2083333333333333 0  2.362608695652174 0.2083333333333333 0  2.362608695652174 0.2166666666666667 0  2.354347826086956 0.2166666666666667 0  2.370869565217391 0.2083333333333333 0  2.370869565217391 0.2166666666666667 0  2.379130434782609 0.2083333333333333 0  2.379130434782609 0.2166666666666667 0  2.387391304347826 0.2083333333333333 0  2.387391304347826 0.2166666666666667 0  2.395652173913044 0.2083333333333333 0  2.395652173913044 0.2166666666666667 0  2.403913043478261 0.2083333333333333 0  2.403913043478261 0.2166666666666667 0  2.412173913043478 0.2083333333333333 0  2.412173913043478 0.2166666666666667 0  2.420434782608695 0.2083333333333333 0  2.420434782608695 0.2166666666666667 0  2.428695652173913 0.2083333333333333 0  2.428695652173913 0.2166666666666667 0  2.43695652173913 0.2083333333333333 0  2.43695652173913 0.2166666666666667 0  2.445217391304348 0.2083333333333333 0  2.445217391304348 0.2166666666666667 0  2.453478260869565 0.2083333333333333 0  2.453478260869565 0.2166666666666667 0  2.461739130434782 0.2083333333333333 0  2.461739130434782 0.2166666666666667 0  2.47 0.2083333333333333 0  2.47 0.2166666666666667 0  2.478260869565217 0.2083333333333333 0  2.478260869565217 0.2166666666666667 0  2.486521739130435 0.2083333333333333 0  2.486521739130435 0.2166666666666667 0  2.494782608695652 0.2083333333333333 0  2.494782608695652 0.2166666666666667 0  2.503043478260869 0.2083333333333333 0  2.503043478260869 0.2166666666666667 0  2.511304347826087 0.2083333333333333 0  2.511304347826087 0.2166666666666667 0  2.519565217391305 0.2083333333333333 0  2.519565217391305 0.2166666666666667 0  2.527826086956522 0.2083333333333333 0  2.527826086956522 0.2166666666666667 0  2.536086956521739 0.2083333333333333 0  2.536086956521739 0.2166666666666667 0  2.544347826086956 0.2083333333333333 0  2.544347826086956 0.2166666666666667 0  2.552608695652174 0.2083333333333333 0  2.552608695652174 0.2166666666666667 0  2.560869565217391 0.2083333333333333 0  2.560869565217391 0.2166666666666667 0  2.569130434782608 0.2083333333333333 0  2.569130434782608 0.2166666666666667 0  2.577391304347826 0.2083333333333333 0  2.577391304347826 0.2166666666666667 0  2.585652173913043 0.2083333333333333 0  2.585652173913043 0.2166666666666667 0  2.593913043478261 0.2083333333333333 0  2.593913043478261 0.2166666666666667 0  2.602173913043478 0.2083333333333333 0  2.602173913043478 0.2166666666666667 0  2.610434782608696 0.2083333333333333 0  2.610434782608696 0.2166666666666667 0  2.618695652173913 0.2083333333333333 0  2.618695652173913 0.2166666666666667 0  2.62695652173913 0.2083333333333333 0  2.62695652173913 0.2166666666666667 0  2.635217391304348 0.2083333333333333 0  2.635217391304348 0.2166666666666667 0  2.643478260869565 0.2083333333333333 0  2.643478260869565 0.2166666666666667 0  2.651739130434783 0.2083333333333333 0  2.651739130434783 0.2166666666666667 0  2.66 0.2083333333333333 0  2.66 0.2166666666666667 0  2.668260869565217 0.2083333333333333 0  2.668260869565217 0.2166666666666667 0  2.676521739130435 0.2083333333333333 0  2.676521739130435 0.2166666666666667 0  2.684782608695652 0.2083333333333333 0  2.684782608695652 0.2166666666666667 0  2.693043478260869 0.2083333333333333 0  2.693043478260869 0.2166666666666667 0  2.701304347826087 0.2083333333333333 0  2.701304347826087 0.2166666666666667 0  2.709565217391304 0.2083333333333333 0  2.709565217391304 0.2166666666666667 0  2.717826086956522 0.2083333333333333 0  2.717826086956522 0.2166666666666667 0  2.726086956521739 0.2083333333333333 0  2.726086956521739 0.2166666666666667 0  2.734347826086956 0.2083333333333333 0  2.734347826086956 0.2166666666666667 0  2.742608695652174 0.2083333333333333 0  2.742608695652174 0.2166666666666667 0  2.750869565217391 0.2083333333333333 0  2.750869565217391 0.2166666666666667 0  2.759130434782609 0.2083333333333333 0  2.759130434782609 0.2166666666666667 0  2.767391304347826 0.2083333333333333 0  2.767391304347826 0.2166666666666667 0  2.775652173913044 0.2083333333333333 0  2.775652173913044 0.2166666666666667 0  2.783913043478261 0.2083333333333333 0  2.783913043478261 0.2166666666666667 0  2.792173913043478 0.2083333333333333 0  2.792173913043478 0.2166666666666667 0  2.800434782608696 0.2083333333333333 0  2.800434782608696 0.2166666666666667 0  2.808695652173913 0.2166666666666667 0  2.81695652173913 0.2166666666666667 0  2.825217391304347 0.2166666666666667 0  2.346086956521739 0.2166666666666667 0  2.354347826086956 0.225 0  2.346086956521739 0.225 0  2.362608695652174 0.225 0  2.370869565217391 0.225 0  2.379130434782609 0.225 0  2.387391304347826 0.225 0  2.395652173913044 0.225 0  2.403913043478261 0.225 0  2.412173913043478 0.225 0  2.420434782608695 0.225 0  2.428695652173913 0.225 0  2.43695652173913 0.225 0  2.445217391304348 0.225 0  2.453478260869565 0.225 0  2.461739130434782 0.225 0  2.47 0.225 0  2.478260869565217 0.225 0  2.486521739130435 0.225 0  2.494782608695652 0.225 0  2.503043478260869 0.225 0  2.511304347826087 0.225 0  2.519565217391305 0.225 0  2.527826086956522 0.225 0  2.536086956521739 0.225 0  2.544347826086956 0.225 0  2.552608695652174 0.225 0  2.560869565217391 0.225 0  2.569130434782608 0.225 0  2.577391304347826 0.225 0  2.585652173913043 0.225 0  2.593913043478261 0.225 0  2.602173913043478 0.225 0  2.610434782608696 0.225 0  2.618695652173913 0.225 0  2.62695652173913 0.225 0  2.635217391304348 0.225 0  2.643478260869565 0.225 0  2.651739130434783 0.225 0  2.66 0.225 0  2.668260869565217 0.225 0  2.676521739130435 0.225 0  2.684782608695652 0.225 0  2.693043478260869 0.225 0  2.701304347826087 0.225 0  2.709565217391304 0.225 0  2.717826086956522 0.225 0  2.726086956521739 0.225 0  2.734347826086956 0.225 0  2.742608695652174 0.225 0  2.750869565217391 0.225 0  2.759130434782609 0.225 0  2.767391304347826 0.225 0  2.775652173913044 0.225 0  2.783913043478261 0.225 0  2.792173913043478 0.225 0  2.800434782608696 0.225 0  2.808695652173913 0.225 0  2.81695652173913 0.225 0  2.825217391304347 0.225 0  2.833478260869565 0.225 0  2.354347826086956 0.2333333333333333 0  2.346086956521739 0.2333333333333333 0  2.362608695652174 0.2333333333333333 0  2.370869565217391 0.2333333333333333 0  2.379130434782609 0.2333333333333333 0  2.387391304347826 0.2333333333333333 0  2.395652173913044 0.2333333333333333 0  2.403913043478261 0.2333333333333333 0  2.412173913043478 0.2333333333333333 0  2.420434782608695 0.2333333333333333 0  2.428695652173913 0.2333333333333333 0  2.43695652173913 0.2333333333333333 0  2.445217391304348 0.2333333333333333 0  2.453478260869565 0.2333333333333333 0  2.461739130434782 0.2333333333333333 0  2.47 0.2333333333333333 0  2.478260869565217 0.2333333333333333 0  2.486521739130435 0.2333333333333333 0  2.494782608695652 0.2333333333333333 0  2.503043478260869 0.2333333333333333 0  2.511304347826087 0.2333333333333333 0  2.519565217391305 0.2333333333333333 0  2.527826086956522 0.2333333333333333 0  2.536086956521739 0.2333333333333333 0  2.544347826086956 0.2333333333333333 0  2.552608695652174 0.2333333333333333 0  2.560869565217391 0.2333333333333333 0  2.569130434782608 0.2333333333333333 0  2.577391304347826 0.2333333333333333 0  2.585652173913043 0.2333333333333333 0  2.593913043478261 0.2333333333333333 0  2.602173913043478 0.2333333333333333 0  2.610434782608696 0.2333333333333333 0  2.618695652173913 0.2333333333333333 0  2.62695652173913 0.2333333333333333 0  2.635217391304348 0.2333333333333333 0  2.643478260869565 0.2333333333333333 0  2.651739130434783 0.2333333333333333 0  2.66 0.2333333333333333 0  2.668260869565217 0.2333333333333333 0  2.676521739130435 0.2333333333333333 0  2.684782608695652 0.2333333333333333 0  2.693043478260869 0.2333333333333333 0  2.701304347826087 0.2333333333333333 0  2.709565217391304 0.2333333333333333 0  2.717826086956522 0.2333333333333333 0  2.726086956521739 0.2333333333333333 0  2.734347826086956 0.2333333333333333 0  2.742608695652174 0.2333333333333333 0  2.750869565217391 0.2333333333333333 0  2.759130434782609 0.2333333333333333 0  2.767391304347826 0.2333333333333333 0  2.775652173913044 0.2333333333333333 0  2.783913043478261 0.2333333333333333 0  2.792173913043478 0.2333333333333333 0  2.800434782608696 0.2333333333333333 0  2.808695652173913 0.2333333333333333 0  2.81695652173913 0.2333333333333333 0  2.825217391304347 0.2333333333333333 0  2.833478260869565 0.2333333333333333 0  2.841739130434783 0.2333333333333333 0  2.354347826086956 0.2416666666666667 0  2.346086956521739 0.2416666666666667 0  2.362608695652174 0.2416666666666667 0  2.370869565217391 0.2416666666666667 0  2.379130434782609 0.2416666666666667 0  2.387391304347826 0.2416666666666667 0  2.395652173913044 0.2416666666666667 0  2.403913043478261 0.2416666666666667 0  2.412173913043478 0.2416666666666667 0  2.420434782608695 0.2416666666666667 0  2.428695652173913 0.2416666666666667 0  2.43695652173913 0.2416666666666667 0  2.445217391304348 0.2416666666666667 0  2.453478260869565 0.2416666666666667 0  2.461739130434782 0.2416666666666667 0  2.47 0.2416666666666667 0  2.478260869565217 0.2416666666666667 0  2.486521739130435 0.2416666666666667 0  2.494782608695652 0.2416666666666667 0  2.503043478260869 0.2416666666666667 0  2.511304347826087 0.2416666666666667 0  2.519565217391305 0.2416666666666667 0  2.527826086956522 0.2416666666666667 0  2.536086956521739 0.2416666666666667 0  2.544347826086956 0.2416666666666667 0  2.552608695652174 0.2416666666666667 0  2.560869565217391 0.2416666666666667 0  2.569130434782608 0.2416666666666667 0  2.577391304347826 0.2416666666666667 0  2.585652173913043 0.24166
[...]
<PointData  Vectors="Displacement"> 
<DataArray  type="Float64"  Name="Displacement"  NumberOfComponents="3" format="ascii">4.5346494127713385e-05 3.6430692555067140e-03 0.0000000000000000e+00  3.1867608708950010e-05 3.6440689274705403e-03 0.0000000000000000e+00  3.2185552530822227e-05 3.6600879193595011e-03 0.0000000000000000e+00  4.9824316818532064e-05 2.8160299993044919e-03 0.0000000000000000e+00  4.9809983643198371e-05 2.8315107957813924e-03 0.0000000000000000e+00  3.4419188811097037e-05 2.8314074375804504e-03 0.0000000000000000e+00  3.4451784908589106e-05 2.8159420959239885e-03 0.0000000000000000e+00  4.9780224382309880e-05 2.8470667023412165e-03 0.0000000000000000e+00  3.4364358145748049e-05 2.8469561722731587e-03 0.0000000000000000e+00  4.9730829190352584e-05 2.8626891674782742e-03 0.0000000000000000e+00  3.4296933261699364e-05 2.8625823065457790e-03 0.0000000000000000e+00  4.9670964459806320e-05 2.8783652681339434e-03 0.0000000000000000e+00  3.4220878327695258e-05 2.8782501049807764e-03 0.0000000000000000e+00  4.9602839007420963e-05 2.8940686956593097e-03 0.0000000000000000e+00  3.5564561746840017e-05 2.8944597984958144e-03 0.0000000000000000e+00  5.0822126661076175e-05 2.9102746178365120e-03 0.0000000000000000e+00  3.6680721107460631e-05 2.9103254720995145e-03 0.0000000000000000e+00  5.1819283644065165e-05 2.9261432696364546e-03 0.0000000000000000e+00  3.7794720289463393e-05 2.9262542227835734e-03 0.0000000000000000e+00  5.2806895633267477e-05 2.9420291723872625e-03 0.0000000000000000e+00  3.8796951270790505e-05 2.9421598420499005e-03 0.0000000000000000e+00  5.3680427568790209e-05 2.9578661397106363e-03 0.0000000000000000e+00  3.9695807997156208e-05 2.9580551975006324e-03 0.0000000000000000e+00  5.4448313926390760e-05 2.9736624795558466e-03 0.0000000000000000e+00  4.0478308419024756e-05 2.9739220477099800e-03 0.0000000000000000e+00  5.5096812185541432e-05 2.9894101864582825e-03 0.0000000000000000e+00  4.1138936817215163e-05 2.9897549767273191e-03 0.0000000000000000e+00  5.5622513573210554e-05 3.0051126477886811e-03 0.0000000000000000e+00  4.1672696599559479e-05 3.0055506848679046e-03 0.0000000000000000e+00  5.6023928908676787e-05 3.0207732171942860e-03 0.0000000000000000e+00  4.2077691139422152e-05 3.0213080410081698e-03 0.0000000000000000e+00  5.6301777470375326e-05 3.0363938332795904e-03 0.0000000000000000e+00  4.2354139171698025e-05 3.0370251502414344e-03 0.0000000000000000e+00  5.6457675410213304e-05 3.0519694214440106e-03 0.0000000000000000e+00  4.2503560016586770e-05 3.0526970842187158e-03 0.0000000000000000e+00  5.6492656239671315e-05 3.0674969424603024e-03 0.0000000000000000e+00  4.2527671736209186e-05 3.0683190407630435e-03 0.0000000000000000e+00  5.6409111197318363e-05 3.0829719189406253e-03 0.0000000000000000e+00  4.2429087755227974e-05 3.0838851409587939e-03 0.0000000000000000e+00  5.6210470453989749e-05 3.0983883356655519e-03 0.0000000000000000e+00  4.2211134913475675e-05 3.0993885006943812e-03 0.0000000000000000e+00  5.5900799225955724e-05 3.1137386333086083e-03 0.0000000000000000e+00  4.1877533967768817e-05 3.1148215038645649e-03 0.0000000000000000e+00  5.5483880219010788e-05 3.1290153142614053e-03 0.0000000000000000e+00  4.1432061029613931e-05 3.1301769711438929e-03 0.0000000000000000e+00  5.4963014362731879e-05 3.1442153057566580e-03 0.0000000000000000e+00  4.0878767679260036e-05 3.1454500407282178e-03 0.0000000000000000e+00  5.4343410065855110e-05 3.1593410013726758e-03 0.0000000000000000e+00  4.0223232387248907e-05 3.1606376305692830e-03 0.0000000000000000e+00  5.3633778796627481e-05 3.1743847793764260e-03 0.0000000000000000e+00  3.9473206977170957e-05 3.1757325880794650e-03 0.0000000000000000e+00  5.2843267894016705e-05 3.1893517146462007e-03 0.0000000000000000e+00  3.8637446879382392e-05 3.1907296513085850e-03 0.0000000000000000e+00  5.1985280311881621e-05 3.2042029568728546e-03 0.0000000000000000e+00  3.7726005572995933e-05 3.2056063065595080e-03 0.0000000000000000e+00  5.1057343843743689e-05 3.2189223433797326e-03 0.0000000000000000e+00  3.6742675038513939e-05 3.2203500966585751e-03 0.0000000000000000e+00  5.0054965226911424e-05 3.2335021094074970e-03 0.0000000000000000e+00  3.5691050433736012e-05 3.2349550821842397e-03 0.0000000000000000e+00  4.8974793228672541e-05 3.2479445685417991e-03 0.0000000000000000e+00  3.4577213632383225e-05 3.2494255605158271e-03 0.0000000000000000e+00  4.9030548827709024e-05 3.2637037045107637e-03 0.0000000000000000e+00  3.3411341957477040e-05 3.2637830390543155e-03 0.0000000000000000e+00  4.9074555538988900e-05 3.2794347244871429e-03 0.0000000000000000e+00  3.3459180379254257e-05 3.2795134833113080e-03 0.0000000000000000e+00  4.9106252542686470e-05 3.2951369697938079e-03 0.0000000000000000e+00  3.3504464882455790e-05 3.2952222799314391e-03 0.0000000000000000e+00  4.9131779563211430e-05 3.3108018630902953e-03 0.0000000000000000e+00  3.3538292651399496e-05 3.3108758660104470e-03 0.0000000000000000e+00  4.9154006922134257e-05 3.3264369447260972e-03 0.0000000000000000e+00  3.3567374705500188e-05 3.3264994180212631e-03 0.0000000000000000e+00  4.9172267447002142e-05 3.3420414791531451e-03 0.0000000000000000e+00  3.3591752387311495e-05 3.3420948929139831e-03 0.0000000000000000e+00  4.9182420181219358e-05 3.3576037737697473e-03 0.0000000000000000e+00  3.3609359418110044e-05 3.3576571597602827e-03 0.0000000000000000e+00  4.7640127833721193e-05 3.3700552280294433e-03 0.0000000000000000e+00  3.3638068695132453e-05 3.3732183588269246e-03 0.0000000000000000e+00  4.5837828241662823e-05 3.3823350787030191e-03 0.0000000000000000e+00  3.1950846626119279e-05 3.3855857776037526e-03 0.0000000000000000e+00  4.4036144415335203e-05 3.3947933816589428e-03 0.0000000000000000e+00  3.0238632385183953e-05 3.3980134619199538e-03 0.0000000000000000e+00  4.2328506741121922e-05 3.4074989792911713e-03 0.0000000000000000e+00  2.8596996774371198e-05 3.4106027522719995e-03 0.0000000000000000e+00  4.0755066170498096e-05 3.4204872504543841e-03 0.0000000000000000e+00  2.7085983522198524e-05 3.4234339382080235e-03 0.0000000000000000e+00  3.9317776270073805e-05 3.4338018490392046e-03 0.0000000000000000e+00  2.5702092294326392e-05 3.4366118835234879e-03 0.0000000000000000e+00  3.8008287092822130e-05 3.4474379173916798e-03 0.0000000000000000e+00  2.4432588356662045e-05 3.4501247772009479e-03 0.0000000000000000e+00  3.6821159070427198e-05 3.4613715194234799e-03 0.0000000000000000e+00  2.3273752381851708e-05 3.4639378255488722e-03 0.0000000000000000e+00  3.5754533045051909e-05 3.4755760952535058e-03 0.0000000000000000e+00  2.2226904688028336e-05 3.4780192553189614e-03 0.0000000000000000e+00  3.4808342876930505e-05 3.4900272798358205e-03 0.0000000000000000e+00  2.1294533781413638e-05 3.4923432474795145e-03 0.0000000000000000e+00  3.3982972994048837e-05 3.5047034591395489e-03 0.0000000000000000e+00  2.0478641203329645e-05 3.5068884520853588e-03 0.0000000000000000e+00  3.3278591962995707e-05 3.5195852208221392e-03 0.0000000000000000e+00  1.9780301913458044e-05 3.5216363442019372e-03 0.0000000000000000e+00  3.2694907758829594e-05 3.5346547082230556e-03 0.0000000000000000e+00  1.9199700221205468e-05 3.5365700905187840e-03 0.0000000000000000e+00  3.2231127407301801e-05 3.5498951292518661e-03 0.0000000000000000e+00  1.8736302181016498e-05 3.5516738689004368e-03 0.0000000000000000e+00  3.1885992274517907e-05 3.5652904499971988e-03 0.0000000000000000e+00  1.8389025668102226e-05 3.5669325166960112e-03 0.0000000000000000e+00  3.1657823497290445e-05 3.5808252360214014e-03 0.0000000000000000e+00  1.8156358362478080e-05 3.5823313899837495e-03 0.0000000000000000e+00  3.1544548456566277e-05 3.5964845942302814e-03 0.0000000000000000e+00  1.8036409154744426e-05 3.5978563502433378e-03 0.0000000000000000e+00  3.1543709563708923e-05 3.6122541530807890e-03 0.0000000000000000e+00  1.8026918977561102e-05 3.6134937685036901e-03 0.0000000000000000e+00  3.1652467756072287e-05 3.6281200508918167e-03 0.0000000000000000e+00  1.8125263421317660e-05 3.6292305148433171e-03 0.0000000000000000e+00  1.8328462747606338e-05 3.6450539442672682e-03 0.0000000000000000e+00  1.8633200468813552e-05 3.6609518900183992e-03 0.0000000000000000e+00  1.9035844606638345e-05 3.6769126642767621e-03 0.0000000000000000e+00  3.4466666135129348e-05 2.8005687442056396e-03 0.0000000000000000e+00  1.9173188307471996e-05 2.8158352060655011e-03 0.0000000000000000e+00  1.9206749008642204e-05 2.8004840170313258e-03 0.0000000000000000e+00  1.9116249569465488e-05 2.8312867812349952e-03 0.0000000000000000e+00  1.9046516429056745e-05 2.8468306700093074e-03 0.0000000000000000e+00  1.8988460302710785e-05 2.8624045197948129e-03 0.0000000000000000e+00  2.0428978327518513e-05 2.8786163538196143e-03 0.0000000000000000e+00  2.1645667941145661e-05 2.8944565580313270e-03 0.0000000000000000e+00  2.2875347256748693e-05 2.9103870158571033e-03 0.0000000000000000e+00  2.3996496619105165e-05 2.9263269546095229e-03 0.0000000000000000e+00  2.5019346937355969e-05 2.9422855100792746e-03 0.0000000000000000e+00  2.5928928070812000e-05 2.9582427248146326e-03 0.0000000000000000e+00  2.6719638104175811e-05 2.9741867311905042e-03 0.0000000000000000e+00  2.7384877805687314e-05 2.9901078247779266e-03 0.0000000000000000e+00  2.7920313936045136e-05 3.0059996543970579e-03 0.0000000000000000e+00  2.8323635753456163e-05 3.0218572356158187e-03 0.0000000000000000e+00  2.8594565191633130e-05 3.0376756117859007e-03 0.0000000000000000e+00  2.8734223722665789e-05 3.0534486097693937e-03 0.0000000000000000e+00  2.8744463755214065e-05 3.0691698463633232e-03 0.0000000000000000e+00  2.8627931883123140e-05 3.0848322068703338e-03 0.0000000000000000e+00  2.8387883617308115e-05 3.1004279507674975e-03 0.0000000000000000e+00  2.8027979021943906e-05 3.1159490102659979e-03 0.0000000000000000e+00  2.7552164109566363e-05 3.1313876859934359e-03 0.0000000000000000e+00  2.6964910360699359e-05 3.1467373769567997e-03 0.0000000000000000e+00  2.6271856847524353e-05 3.1619919028897788e-03 0.0000000000000000e+00  2.5480054644783781e-05 3.1771430473484315e-03 0.0000000000000000e+00  2.4597399898526587e-05 3.1921818300739806e-03 0.0000000000000000e+00  2.3632242324622076e-05 3.2070923985219519e-03 0.0000000000000000e+00  2.2590718853344382e-05 3.2218635744785729e-03 0.0000000000000000e+00  2.1479986998705570e-05 3.2364888433362689e-03 0.0000000000000000e+00  2.0311243718261114e-05 3.2509701863061096e-03 0.0000000000000000e+00  1.9104169215691147e-05 3.2653260680864556e-03 0.0000000000000000e+00  1.7887908714469435e-05 3.2795986145085282e-03 0.0000000000000000e+00  1.7950636037153327e-05 3.2953224898682756e-03 0.0000000000000000e+00  1.7982568150870034e-05 3.3109563839915880e-03 0.0000000000000000e+00  1.8014450998106506e-05 3.3265679257452607e-03 0.0000000000000000e+00  1.8042519507587618e-05 3.3421555362252815e-03 0.0000000000000000e+00  1.8066206661937362e-05 3.3577161607675713e-03 0.0000000000000000e+00  1.8089040687279808e-05 3.3732627808919099e-03 0.0000000000000000e+00  1.8112688238435815e-05 3.3887761271315562e-03 0.0000000000000000e+00  1.6404068787179736e-05 3.4011433045305242e-03 0.0000000000000000e+00  1.4777745721152043e-05 3.4135860905192520e-03 0.0000000000000000e+00  1.3313938287920694e-05 3.4262249205822635e-03 0.0000000000000000e+00  1.1979403325265313e-05 3.4392771102287828e-03 0.0000000000000000e+00  1.0747798764856623e-05 3.4526864895818269e-03 0.0000000000000000e+00  9.6170236912617460e-06 3.4663959123514654e-03 0.0000000000000000e+00  8.5917541576148715e-06 3.4803673206974610e-03 0.0000000000000000e+00  7.6765871234711793e-06 3.4945745363367973e-03 0.0000000000000000e+00  6.8745030307966965e-06 3.5089975578994743e-03 0.0000000000000000e+00  6.1869309795525830e-06 3.5236194621279804e-03 0.0000000000000000e+00  5.6141425668466236e-06 3.5384248366212134e-03 0.0000000000000000e+00  5.1556275026133953e-06 3.5533990097441162e-03 0.0000000000000000e+00  4.8103637939844615e-06 3.5685277418292852e-03 0.0000000000000000e+00  4.5769706250855580e-06 3.5837971689136961e-03 0.0000000000000000e+00  4.4537433769067497e-06 3.5991938922159115e-03 0.0000000000000000e+00  4.4386345190475335e-06 3.6147050206095715e-03 0.0000000000000000e+00  4.5292389321813209e-06 3.6303181530846652e-03 0.0000000000000000e+00  4.7228028818574765e-06 3.6460213493586997e-03 0.0000000000000000e+00  5.0162540101530787e-06 3.6618031161517839e-03 0.0000000000000000e+00  5.4062441764667543e-06 3.6776524123728156e-03 0.0000000000000000e+00  5.8891705309376374e-06 3.6935587063979380e-03 0.0000000000000000e+00  3.9984143973728420e-06 2.8157058973058038e-03 0.0000000000000000e+00  4.0555814133816307e-06 2.8003756783617400e-03 0.0000000000000000e+00  3.9249667058956615e-06 2.8311468676293391e-03 0.0000000000000000e+00  3.8599915688243852e-06 2.8466379038927531e-03 0.0000000000000000e+00  5.3954087698399856e-06 2.8627639419213846e-03 0.0000000000000000e+00  6.7081913813727745e-06 2.8785585341531915e-03 0.0000000000000000e+00  8.0503200978153101e-06 2.8944627511980009e-03 0.0000000000000000e+00  9.2871382437437325e-06 2.9104001448213364e-03 0.0000000000000000e+00  1.0429473889043286e-05 2.9263876733678072e-03 0.0000000000000000e+00  1.1462068158907900e-05 2.9424023565581131e-03 0.0000000000000000e+00  1.2378692894686010e-05 2.9584302306724067e-03 0.0000000000000000e+00  1.3172166894248381e-05 2.9744566452322044e-03 0.0000000000000000e+00  1.3836890330236107e-05 2.9904703104149831e-03 0.0000000000000000e+00  1.4368724609983073e-05 3.0064619710421609e-03 0.0000000000000000e+00  1.4765386026095373e-05 3.0224237085631394e-03 0.0000000000000000e+00  1.5026321437515266e-05 3.0383479625439211e-03 0.0000000000000000e+00  1.5152359218644659e-05 3.0542268639181273e-03 0.0000000000000000e+00  1.5145281853410140e-05 3.0700524404526997e-03 0.0000000000000000e+00  1.5007687637524337e-05 3.0858163367847866e-03 0.0000000000000000e+00  1.4742792124179086e-05 3.1015098699328438e-03 0.0000000000000000e+00  1.4354273013302077e-05 3.1171242389662949e-03 0.0000000000000000e+00  1.3846215385510499e-05 3.1326508882475908e-03 0.0000000000000000e+00  1.3223259682692632e-05 3.1480817329978630e-03 0.0000000000000000e+00  1.2490891226001649e-05 3.1634086307946959e-03 0.0000000000000000e+00  1.1655476711956835e-05 3.1786222346352486e-03 0.0000000000000000e+00  1.0723894949264179e-05 3.1937121030028667e-03 0.0000000000000000e+00  9.7031161417471088e-06 3.2086649221807432e-03 0.0000000000000000e+00  8.5992968673230488e-06 3.2234694389302490e-03 0.0000000000000000e+00  7.4196131993019793e-06 3.2381169585043142e-03 0.0000000000000000e+00  6.1749533077506189e-06 3.2526035165947173e-03 0.0000000000000000e+00  4.8858379863189852e-06 3.2669353084412846e-03 0.0000000000000000e+00  3.5980785442104885e-06 3.2811485898774917e-03 0.0000000000000000e+00  2.4331591627318743e-06 3.2954253505267529e-03 0.0000000000000000e+00  2.4597603551649152e-06 3.3110450597550458e-03 0.0000000000000000e+00  2.4919354993630607e-06 3.3266435671196587e-03 0.0000000000000000e+00  2.5202578995392458e-06 3.3422243897437229e-03 0.0000000000000000e+00  2.5432039281183313e-06 3.3577792335274257e-03 0.0000000000000000e+00  2.5620519129179563e-06 3.3733099592725738e-03 0.0000000000000000e+00  2.5809974812152074e-06 3.3888112793499805e-03 0.0000000000000000e+00  2.6041772373656356e-06 3.4042735449798852e-03 0.0000000000000000e+00  8.9622798309282440e-07 3.4164925298608697e-03 0.0000000000000000e+00  -5.5287888158730276e-07 3.4288469973558877e-03 0.0000000000000000e+00  -1.8511709450898402e-06 3.4417939972631430e-03 0.0000000000000000e+00  -3.0529089958326496e-06 3.4551246029643720e-03 0.0000000000000000e+00  -4.1580406697079517e-06 3.4687474075950084e-03 0.0000000000000000e+00  -5.1598533964365314e-06 3.4826205368741264e-03 0.0000000000000000e+00  -6.0534826797444624e-06 3.4967200462612930e-03 0.0000000000000000e+00  -6.8363680037547220e-06 3.5110287458097662e-03 0.0000000000000000e+00  -7.5075824415345532e-06 3.5255320152116220e-03 0.0000000000000000e+00  -8.0672296678568786e-06 3.5402161522942303e-03 0.0000000000000000e+00  -8.5160082719051584e-06 3.5550676988230332e-03 0.0000000000000000e+00  -8.8549385923831095e-06 3.5700732909188983e-03 0.0000000000000000e+00  -9.0852383776361070e-06 3.5852197625070108e-03 0.0000000000000000e+00  -9.2083668098206944e-06 3.6004944179478674e-03 0.0000000000000000e+00  -9.2261150280385802e-06 3.6158851085762171e-03 0.0000000000000000e+00  -9.1406527444330093e-06 3.6313801774688491e-03 0.0000000000000000e+00  -8.9545214132500916e-06 3.6469683940408126e-03 0.0000000000000000e+00  -8.6705887388721526e-06 3.6626389216238009e-03 0.0000000000000000e+00  -8.2919713223109868e-06 3.6783813164259029e-03 0.0000000000000000e+00  -7.8219910293414222e-06 3.6941856591693320e-03 0.0000000000000000e+00  -7.2641629252876464e-06 3.7100426319692688e-03 0.0000000000000000e+00  -1.1047796414519779e-05 2.8155559208959484e-03 0.0000000000000000e+00  -1.0977169929122353e-05 2.8002394689287525e-03 0.0000000000000000e+00  -1.1107233762033338e-05 2.8309192264858022e-03 0.0000000000000000e+00  -9.5175092794719136e-06 2.8469638339287287e-03 0.0000000000000000e+00  -8.1248204916316227e-06 2.8626587057335720e-03 0.0000000000000000e+00  -6.6833273437139198e-06 2.8785038291147436e-03 0.0000000000000000e+00  -5.3341669724814118e-06 2.8944073955967766e-03 0.0000000000000000e+00  -4.0730077343721356e-06 2.9103896793496696e-03 0.0000000000000000e+00  -2.9184222236575006e-06 2.9264291428815646e-03 0.0000000000000000e+00  -1.8772239884089007e-06 2.9425103262857174e-03 0.0000000000000000e+00  -9.5728503956767298e-07 2.9586161968713576e-03 0.0000000000000000e+00  -1.6478092718746324e-07 2.9747315880536201e-03 0.0000000000000000e+00  4.9514382194849380e-07 2.9908431995881776e-03 0.0000000000000000e+00  1.0188420906170695e-06 3.0069394763357809e-03 0.0000000000000000e+00  1.4042349789889860e-06 3.0230100276335621e-03 0.0000000000000000e+00  1.6507588724481018e-06 3.0390450506739921e-03 0.0000000000000000e+00  1.7591339336997542e-06 3.0550348983974561e-03 0.0000000000000000e+00  1.7310882966136450e-06 3.0709700247712156e-03 0.0000000000000000e+00  1.5691818688313828e-06 3.0868407977606158e-03 0.0000000000000000e+00  1.2766211178129545e-06 3.1026375018439801e-03 0.0000000000000000e+00  8.5712178418996127e-07 3.1183504451006610e-03 0.0000000000000000e+00  3.1485081596059495e-07 3.1339701173612980e-03 0.0000000000000000e+00  -3.4552719615738628e-07 3.1494872106098944e-03 0.0000000000000000e+00  -1.1187723199240677e-06 3.1648922529714505e-03 0.0000000000000000e+00  -1.9991611594345987e-06 3.1801750271592921e-03 0.0000000000000000e+00  -2.9808154217276837e-06 3.1953244690569238e-03 0.0000000000000000e+00  -4.0581260431113220e-06 3.2103282326596955e-03 0.0000000000000000e+00  -5.2262647006210315e-06 3.2251747597502908e-03 0.0000000000000000e+00  -6.4806033181489734e-06 3.2398534491759399e-03 0.0000000000000000e+00  -7.8158242084114161e-06 3.2543549296208760e-03 0.0000000000000000e+00  -9.2237731259986319e-06 3.2686710475666463e-03 0.0000000000000000e+00  -1.0686182093542223e-05 3.2827957202726135e-03 0.0000000000000000e+00  -1.2133774792775543e-05 3.2967534987675528e-03 0.0000000000000000e+00  -1.3026820461813317e-05 3.3111471867795636e-03 0.0000000000000000e+00  -1.3001672715632605e-05 3.3267250748220947e-03 0.0000000000000000e+00  -1.2973158281854758e-05 3.3423017493033167e-03 0.0000000000000000e+00  -1.2949422001792756e-05 3.3578508827258446e-03 0.0000000000000000e+00  -1.2930889867880783e-05 3.3733694832180743e-03 0.0000000000000000e+00  -1.2914879441689728e-05 3.3888523968987729e-03 0.0000000000000000e+00  -1.2898550995251230e-05 3.4042983432167832e-03 0.0000000000000000e+00  -1.3047137846907285e-05 3.4193986063111707e-03 0.0000000000000000e+00  -1.4551235271298427e-05 3.4312533441101696e-03 0.0000000000000000e+00  -1.5823281935337497e-05 3.4441585252960052e-03 0.0000000000000000e+00  -1.6996905179983463e-05 3.4574427463628459e-03 0.0000000000000000e+00  -1.8071207210986874e-05 3.4709943409316915e-03 0.0000000000000000e+00  -1.90413451