<?xml version="1.0"?>
<VTKFile type="UnstructuredGrid"  version="0.1"  >
<UnstructuredGrid>
<Piece  NumberOfPoints="2431" NumberOfCells="4640">
<Points>
<DataArray  type="Float64"  NumberOfComponents="3"  format="ascii">1.734782608695652 0 0  1.743043478260869 0 0  1.743043478260869 0.008333333333333333 0  1.751304347826087 0 0  1.751304347826087 0.008333333333333333 0  1.759565217391304 0 0  1.759565217391304 0.008333333333333333 0  1.767826086956522 0 0  1.767826086956522 0.008333333333333333 0  1.776086956521739 0 0  1.776086956521739 0.008333333333333333 0  1.784347826086957 0 0  1.784347826086957 0.008333333333333333 0  1.792608695652174 0 0  1.792608695652174 0.008333333333333333 0  1.800869565217391 0 0  1.800869565217391 0.008333333333333333 0  1.809130434782608 0 0  1.809130434782608 0.008333333333333333 0  1.817391304347826 0 0  1.817391304347826 0.008333333333333333 0  1.825652173913043 0 0  1.825652173913043 0.008333333333333333 0  1.833913043478261 0 0  1.833913043478261 0.008333333333333333 0  1.842173913043478 0 0  1.842173913043478 0.008333333333333333 0  1.850434782608696 0 0  1.850434782608696 0.008333333333333333 0  1.858695652173913 0 0  1.858695652173913 0.008333333333333333 0  1.86695652173913 0 0  1.86695652173913 0.008333333333333333 0  1.875217391304348 0 0  1.875217391304348 0.008333333333333333 0  1.883478260869565 0 0  1.883478260869565 0.008333333333333333 0  1.891739130434782 0 0  1.891739130434782 0.008333333333333333 0  1.9 0.008333333333333333 0  1.751304347826087 0.01666666666666667 0  1.743043478260869 0.01666666666666667 0  1.759565217391304 0.01666666666666667 0  1.767826086956522 0.01666666666666667 0  1.776086956521739 0.01666666666666667 0  1.784347826086957 0.01666666666666667 0  1.792608695652174 0.01666666666666667 0  1.800869565217391 0.01666666666666667 0  1.809130434782608 0.01666666666666667 0  1.817391304347826 0.01666666666666667 0  1.825652173913043 0.01666666666666667 0  1.833913043478261 0.01666666666666667 0  1.842173913043478 0.01666666666666667 0  1.850434782608696 0.01666666666666667 0  1.858695652173913 0.01666666666666667 0  1.86695652173913 0.01666666666666667 0  1.875217391304348 0.01666666666666667 0  1.883478260869565 0.01666666666666667 0  1.891739130434782 0.01666666666666667 0  1.9 0.01666666666666667 0  1.908260869565217 0.01666666666666667 0  1.751304347826087 0.025 0  1.759565217391304 0.025 0  1.767826086956522 0.025 0  1.776086956521739 0.025 0  1.784347826086957 0.025 0  1.792608695652174 0.025 0  1.800869565217391 0.025 0  1.809130434782608 0.025 0  1.817391304347826 0.025 0  1.825652173913043 0.025 0  1.833913043478261 0.025 0  1.842173913043478 0.025 0  1.850434782608696 0.025 0  1.858695652173913 0.025 0  1.86695652173913 0.025 0  1.875217391304348 0.025 0  1.883478260869565 0.025 0  1.891739130434782 0.025 0  1.9 0.025 0  1.908260869565217 0.025 0  1.916521739130435 0.025 0  1.759565217391304 0.03333333333333333 0  1.767826086956522 0.03333333333333333 0  1.776086956521739 0.03333333333333333 0  1.784347826086957 0.03333333333333333 0  1.792608695652174 0.03333333333333333 0  1.800869565217391 0.03333333333333333 0  1.809130434782608 0.03333333333333333 0  1.817391304347826 0.03333333333333333 0  1.825652173913043 0.03333333333333333 0  1.833913043478261 0.03333333333333333 0  1.842173913043478 0.03333333333333333 0  1.850434782608696 0.03333333333333333 0  1.858695652173913 0.03333333333333333 0  1.86695652173913 0.03333333333333333 0  1.875217391304348 0.03333333333333333 0  1.883478260869565 0.03333333333333333 0  1.891739130434782 0.03333333333333333 0  1.9 0.03333333333333333 0  1.908260869565217 0.03333333333333333 0  1.916521739130435 0.03333333333333333 0  1.924782608695652 0.03333333333333333 0  1.767826086956522 0.04166666666666666 0  1.776086956521739 0.04166666666666666 0  1.784347826086957 0.04166666666666666 0  1.792608695652174 0.04166666666666666 0  1.800869565217391 0.04166666666666666 0  1.809130434782608 0.04166666666666666 0  1.817391304347826 0.04166666666666666 0  1.825652173913043 0.04166666666666666 0  1.833913043478261 0.04166666666666666 0  1.842173913043478 0.04166666666666666 0  1.850434782608696 0.04166666666666666 0  1.858695652173913 0.04166666666666666 0  1.86695652173913 0.04166666666666666 0  1.875217391304348 0.04166666666666666 0  1.883478260869565 0.04166666666666666 0  1.891739130434782 0.04166666666666666 0  1.9 0.04166666666666666 0  1.908260869565217 0.04166666666666666 0  1.916521739130435 0.04166666666666666 0  1.924782608695652 0.04166666666666666 0  1.933043478260869 0.04166666666666666 0  1.776086956521739 0.05 0  1.767826086956522 0.05 0  1.784347826086957 0.05 0  1.792608695652174 0.05 0  1.800869565217391 0.05 0  1.809130434782608 0.05 0  1.817391304347826 0.05 0  1.825652173913043 0.05 0  1.833913043478261 0.05 0  1.842173913043478 0.05 0  1.850434782608696 0.05 0  1.858695652173913 0.05 0  1.86695652173913 0.05 0  1.875217391304348 0.05 0  1.883478260869565 0.05 0  1.891739130434782 0.05 0  1.9 0.05 0  1.908260869565217 0.05 0  1.916521739130435 0.05 0  1.924782608695652 0.05 0  1.933043478260869 0.05 0  1.941304347826087 0.05 0  1.776086956521739 0.05833333333333333 0  1.784347826086957 0.05833333333333333 0  1.792608695652174 0.05833333333333333 0  1.800869565217391 0.05833333333333333 0  1.809130434782608 0.05833333333333333 0  1.817391304347826 0.05833333333333333 0  1.825652173913043 0.05833333333333333 0  1.833913043478261 0.05833333333333333 0  1.842173913043478 0.05833333333333333 0  1.850434782608696 0.05833333333333333 0  1.858695652173913 0.05833333333333333 0  1.86695652173913 0.05833333333333333 0  1.875217391304348 0.05833333333333333 0  1.883478260869565 0.05833333333333333 0  1.891739130434782 0.05833333333333333 0  1.9 0.05833333333333333 0  1.908260869565217 0.05833333333333333 0  1.916521739130435 0.05833333333333333 0  1.924782608695652 0.05833333333333333 0  1.933043478260869 0.05833333333333333 0  1.941304347826087 0.05833333333333333 0  1.949565217391304 0.05833333333333333 0  1.784347826086957 0.06666666666666667 0  1.792608695652174 0.06666666666666667 0  1.800869565217391 0.06666666666666667 0  1.809130434782608 0.06666666666666667 0  1.817391304347826 0.06666666666666667 0  1.825652173913043 0.06666666666666667 0  1.833913043478261 0.06666666666666667 0  1.842173913043478 0.06666666666666667 0  1.850434782608696 0.06666666666666667 0  1.858695652173913 0.06666666666666667 0  1.86695652173913 0.06666666666666667 0  1.875217391304348 0.06666666666666667 0  1.883478260869565 0.06666666666666667 0  1.891739130434782 0.06666666666666667 0  1.9 0.06666666666666667 0  1.908260869565217 0.06666666666666667 0  1.916521739130435 0.06666666666666667 0  1.924782608695652 0.06666666666666667 0  1.933043478260869 0.06666666666666667 0  1.941304347826087 0.06666666666666667 0  1.949565217391304 0.06666666666666667 0  1.957826086956522 0.06666666666666667 0  1.792608695652174 0.075 0  1.800869565217391 0.075 0  1.809130434782608 0.075 0  1.817391304347826 0.075 0  1.825652173913043 0.075 0  1.833913043478261 0.075 0  1.842173913043478 0.075 0  1.850434782608696 0.075 0  1.858695652173913 0.075 0  1.86695652173913 0.075 0  1.875217391304348 0.075 0  1.883478260869565 0.075 0  1.891739130434782 0.075 0  1.9 0.075 0  1.908260869565217 0.075 0  1.916521739130435 0.075 0  1.924782608695652 0.075 0  1.933043478260869 0.075 0  1.941304347826087 0.075 0  1.949565217391304 0.075 0  1.957826086956522 0.075 0  1.800869565217391 0.08333333333333333 0  1.809130434782608 0.08333333333333333 0  1.817391304347826 0.08333333333333333 0  1.825652173913043 0.08333333333333333 0  1.833913043478261 0.08333333333333333 0  1.842173913043478 0.08333333333333333 0  1.850434782608696 0.08333333333333333 0  1.858695652173913 0.08333333333333333 0  1.86695652173913 0.08333333333333333 0  1.875217391304348 0.08333333333333333 0  1.883478260869565 0.08333333333333333 0  1.891739130434782 0.08333333333333333 0  1.9 0.08333333333333333 0  1.908260869565217 0.08333333333333333 0  1.916521739130435 0.08333333333333333 0  1.924782608695652 0.08333333333333333 0  1.933043478260869 0.08333333333333333 0  1.941304347826087 0.08333333333333333 0  1.949565217391304 0.08333333333333333 0  1.957826086956522 0.08333333333333333 0  1.966086956521739 0.08333333333333333 0  1.817391304347826 0.09166666666666666 0  1.825652173913043 0.09166666666666666 0  1.833913043478261 0.09166666666666666 0  1.842173913043478 0.09166666666666666 0  1.850434782608696 0.09166666666666666 0  1.858695652173913 0.09166666666666666 0  1.86695652173913 0.09166666666666666 0  1.875217391304348 0.09166666666666666 0  1.883478260869565 0.09166666666666666 0  1.891739130434782 0.09166666666666666 0  1.9 0.09166666666666666 0  1.908260869565217 0.09166666666666666 0  1.916521739130435 0.09166666666666666 0  1.924782608695652 0.09166666666666666 0  1.933043478260869 0.09166666666666666 0  1.941304347826087 0.09166666666666666 0  1.949565217391304 0.09166666666666666 0  1.957826086956522 0.09166666666666666 0  1.966086956521739 0.09166666666666666 0  1.974347826086956 0.09166666666666666 0  1.825652173913043 0.1 0  1.833913043478261 0.1 0  1.842173913043478 0.1 0  1.850434782608696 0.1 0  1.858695652173913 0.1 0  1.86695652173913 0.1 0  1.875217391304348 0.1 0  1.883478260869565 0.1 0  1.891739130434782 0.1 0  1.9 0.1 0  1.908260869565217 0.1 0  1.916521739130435 0.1 0  1.924782608695652 0.1 0  1.933043478260869 0.1 0  1.941304347826087 0.1 0  1.949565217391304 0.1 0  1.957826086956522 0.1 0  1.966086956521739 0.1 0  1.974347826086956 0.1 0  1.982608695652174 0.1 0  1.833913043478261 0.1083333333333333 0  1.842173913043478 0.1083333333333333 0  1.850434782608696 0.1083333333333333 0  1.858695652173913 0.1083333333333333 0  1.86695652173913 0.1083333333333333 0  1.875217391304348 0.1083333333333333 0  1.883478260869565 0.1083333333333333 0  1.891739130434782 0.1083333333333333 0  1.9 0.1083333333333333 0  1.908260869565217 0.1083333333333333 0  1.
[...]
<CellData  Scalars="rho"> 
<DataArray  type="Float64"  Name="rho"  format="ascii">7.9114614244831782e-01   7.5464395201197831e-01   7.6409873341132939e-01   7.2920326730858476e-01   7.3727106785897301e-01   7.1520226003655984e-01   7.2048665592636729e-01   6.8203043697817545e-01   6.8417275060218141e-01   6.8619730460037098e-01   6.8305234471959708e-01   7.1465950158907432e-01   7.0945223628931386e-01   7.2167777559341351e-01   7.2383272732354609e-01   7.4616792271478360e-01   7.4209114117204822e-01   7.6542053246931085e-01   7.5301457839216268e-01   7.9046473351214785e-01   7.8022923786213139e-01   7.8678471195237831e-01   7.7769652565289416e-01   8.7780626204929446e-01   7.9480764113156954e-01   9.7416564664369865e-01   9.1694809098479713e-01   9.7272780647971735e-01   9.7393304366174294e-01   9.7392051606190166e-01   9.7266550136863628e-01   9.7508509307685420e-01   9.7390540324945063e-01   9.7582718750627107e-01   9.7486096534869815e-01   9.7586694721084344e-01   9.7520183144699502e-01   9.7474663529191652e-01   7.6528132343123012e-01   8.1451468980328157e-01   7.9200652022046836e-01   7.9858143932671111e-01   7.7786236536055264e-01   7.8607199231546587e-01   6.8265169407227611e-01   7.4578699454834729e-01   6.8109886161524980e-01   6.7964331976667824e-01   7.0661355379304525e-01   6.8204815171565147e-01   7.1964270337286906e-01   7.0764435899336264e-01   7.3396325640054783e-01   7.0953248836146410e-01   7.4280421766730897e-01   7.2922005768060083e-01   7.6585669540553625e-01   7.4186563459739652e-01   7.6741879787586620e-01   7.6876125635449666e-01   7.8376532291011403e-01   7.6560743375093421e-01   8.8795035770338138e-01   8.1325327735615005e-01   9.3467298841591895e-01   9.0994944089465490e-01   9.7256835025388189e-01   9.6969327672814742e-01   9.7124586202030205e-01   9.7122096535698654e-01   9.7214132925728947e-01   9.6970591749348045e-01   9.7237153709632940e-01   9.7027727446137291e-01   9.7179481285237113e-01   9.7008486785864856e-01   9.7201119136608360e-01   8.1904264563432050e-01   8.0186445951863450e-01   8.1721451363938769e-01   7.8452548157184099e-01   7.9355009770409812e-01   7.7187237873111936e-01   7.7465407570042477e-01   6.7482778690298140e-01   7.3809172575123982e-01   6.7196682137796648e-01   6.6640935124520573e-01   6.9441837965214659e-01   6.6403574743613680e-01   6.8188850317586047e-01   6.6391868897575046e-01   7.0821426040773416e-01   6.7692276465433587e-01   7.1592196346890580e-01   6.9655526129017264e-01   7.3604842481945354e-01   7.0445277735211553e-01   7.4040420045603639e-01   7.2584279148988706e-01   7.5588139930406451e-01   7.3074485226235286e-01   8.4744639620739803e-01   7.4703772694557391e-01   8.8491333832237884e-01   8.3710685175257482e-01   9.6613208027620812e-01   8.6964329239343996e-01   9.6739020650328700e-01   9.6381470229182542e-01   9.6801285207253129e-01   9.6477347693713500e-01   9.6782086842295378e-01   9.6498895680183072e-01   9.6679669099067678e-01   9.6437574837825046e-01   9.6299178604637303e-01   8.3335015796097356e-01   8.0496976310021739e-01   8.2956426336082412e-01   7.7842190472195127e-01   7.9289709418039811e-01   7.2904946840927554e-01   7.7224362282735615e-01   7.1792452049458966e-01   7.1613830533517586e-01   6.4010383622956268e-01   7.0126637833192385e-01   6.1353497182194661e-01   6.1944306880811217e-01   6.3077428233621990e-01   5.9072537591469898e-01   6.5474215400047797e-01   6.0362703975002963e-01   6.6499511259105126e-01   6.3327483490317016e-01   6.7580721757039020e-01   6.4494372613319628e-01   6.9844515555051667e-01   6.5804576024168127e-01   7.0509688849600438e-01   6.8047023199508672e-01   7.2793237819061585e-01   7.0243129428589868e-01   8.0075393960459773e-01   7.0883323222889083e-01   8.3222376004172305e-01   7.6931829581967626e-01   8.5424523218246307e-01   7.9901170273587174e-01   9.5916105590333789e-01   8.2391422599693731e-01   9.5873651930270865e-01   8.4210364864003373e-01   9.5725078035160605e-01   9.5519213269629755e-01   9.7047400843857556e-01   9.1719168710370269e-01   7.4937590420932465e-01   7.7521338951196261e-01   6.0811853285199557e-01   6.4802855930158532e-01   6.2253109939921947e-01   6.0896591098351860e-01   5.8923843915719221e-01   5.0712496014670871e-01   4.7880076308368003e-01   4.7279521183257472e-01   4.2708367283010057e-01   3.2552666183182438e-01   4.1758397821728910e-01   2.2811593137175928e-01   3.1878988753948351e-01   4.2134062132939486e-02   4.1506347950351474e-01   1.1813644770705713e-01   4.8159621862280722e-01   2.2007409607217329e-01   5.0057262539928871e-01   1.8843451628814914e-01   5.2074522583774563e-01   2.2011770110619158e-01   5.4491231519149641e-01   2.7281772419527395e-01   5.6731907888648014e-01   2.9123702384390865e-01   5.7670817044965395e-01   3.1142147763161460e-01   6.0160278162625924e-01   3.3337478750211996e-01   5.7226336552139989e-01   3.4992361890659518e-01   5.8379642991235281e-01   3.5707311464870967e-01   6.2221530785159640e-01   3.9548536621140479e-01   3.9707992766842432e-01   5.5627226182403722e-01   5.2728147971576966e-01   4.8287160050179717e-01   4.6976769479046449e-01   3.5027864616989846e-01   3.9077947260291906e-01   3.0377963294833410e-01   2.6589954796393395e-01   2.7198802188822246e-01   1.3909230714432821e-01   1.1031938371275002e-01   9.1275684225447948e-02   3.6453835227927041e-05   3.7210653884078500e-05   3.4138711886570069e-05   3.4641067230041537e-05   3.1942516613638994e-05   3.2221210841430925e-05   2.9895621515674949e-05   2.9991735910570273e-05   1.1545919958950580e-04   7.3921170668026897e-05   5.0144715439031122e-04   2.1212792035419005e-04   1.9300334003465040e-03   3.7236546260340094e-04   2.5936832253562848e-02   5.9890453102154481e-04   6.5060382002987582e-02   1.4347538464543404e-03   8.6265443106776432e-02   1.5170485508388140e-03   1.0436187607700129e-01   1.4550282179647512e-03   1.2235484885243622e-01   1.5028339030683890e-03   1.6316401338769104e-01   1.0129446138232960e-02   2.0247693127678684e-01   1.0874396403389743e-02   2.4175857746174249e-02   4.7206336957262568e-01   4.2558206105560531e-01   3.6738092314651438e-01   3.8106388374869804e-01   3.0559022837365479e-01   2.0040057362429639e-01   2.7028017885812677e-01   1.3376428254754114e-01   7.6655712025148134e-02   3.9213519000834441e-05   4.3884520273841784e-03   3.6111182919673048e-05   3.7094953341165221e-05   3.3200627564272210e-05   3.3913927729601046e-05   3.0554039209415465e-05   3.1031101738466882e-05   2.8173811045994676e-05   2.8457420933652398e-05   6.9096767893860481e-05   5.4659097163707032e-05   1.8708572123564049e-04   1.3834667073667564e-04   3.4499044384647378e-04   2.8142234285162706e-04   4.4050693268063104e-04   3.7794432032617261e-04   5.9160605671647738e-04   4.4081311338180874e-04   6.0359583619540140e-04   5.5273155887030560e-04   5.5894360321100958e-04   5.2889368105951294e-04   3.8703044084908723e-04   3.8204667538365724e-04   2.0104765123956766e-04   3.5540820445803577e-04   1.1667895222872730e-04   9.7013895242838250e-05   2.8497569438896635e-05   5.1311788114956228e-05   8.2135741186356575e-06   1.4609868425684561e-01   8.6826280235097544e-02   1.3565032815435768e-01   4.2080217195216166e-02   8.3337736100240326e-02   2.5398570770979290e-02   3.5011450773367758e-02   7.0647576456736886e-03   1.6386405105602856e-02   3.5854991052555484e-05   1.1715804033052418e-03   3.2459366300880282e-05   3.3416661968904144e-05   2.9450384691639144e-05   3.0165350573025288e-05   4.2016267799244286e-05   3.7220989497241759e-05   8.2066390264920285e-05   6.7754459567859817e-05   1.7941208476779307e-04   1.6186196423701151e-04   2.7226175303312342e-04   1.9405726197391140e-04   3.4171016351609618e-04   2.9960999501459621e-04   3.8097115563293571e-04   3.4445243943923931e-04   4.6036705101345739e-04   4.2780456082995561e-04   4.2532751067548094e-04   4.0770150210786896e-04   2.9498647136649571e-04   3.5122965409559425e-04   2.5031974046556721e-04   3.2309707621374994e-04   5.4878071084434988e-05   7.5292802216421787e-05   2.7743574977912188e-05   3.0667398808198416e-05   7.3796813754519646e-06   7.4950346197694080e-06   6.5676520643343743e-06   1.7135748081814056e-01   1.1097070518450414e-01   1.4814651580784041e-01   5.9652630773063521e-02   1.0314811479495622e-01   1.8023494127282776e-02   5.3063740973916945e-02   3.7034940604997839e-03   1.1226477205543288e-02   3.2065536607845769e-05   3.3729657320734479e-05   3.6537203985407442e-05   3.8179708550958271e-05   5.6269372927412807e-05   5.7455578323743100e-05   8.5921099822516375e-05   7.5886283946548713e-05   1.8636014773115793e-04   1.5134092912213443e-04   2.7133855739728104e-04   2.3628626620071842e-04   3.3297185613702829e-04   3.0078811848150100e-04   3.6604174132285505e-04   3.3963721105831888e-04   3.6796324912051205e-04   3.5005708729707584e-04   3.3873821614515678e-04   3.3158527958089936e-04   2.8073450884075673e-04   2.8589148332122747e-04   2.3798732513266254e-04   3.1343703827439067e-04   4.7214247001917169e-05   1.4463828445425938e-04   2.0942859915108721e-05   3.0164418310029723e-05   6.7974952719992177e-06   6.9281694959963801e-06   5.9817367117401481e-06   6.0962264605224118e-06   2.0191772804629990e-01   1.3005749592362778e-01   1.7732039071818181e-01   8.7996792868952109e-02   1.3413960898109695e-01   1.2113046631238222e-02   7.5530792379448070e-02   1.4026023041441656e-03   6.8425565361897745e-03   6.8109290750424721e-05   7.9600651700081294e-05   8.4927365797918684e-05   8.7389920324042913e-05   9.3906173970387363e-05   1.1064525360269384e-04   1.7939678061161058e-04   1.5405570385858578e-04   2.4820269831291730e-04   2.2633869660871396e-04   2.9532110997830888e-04   2.7779726701014629e-04   3.1809564817099920e-04   3.0597491799053204e-04   3.1579859521462498e-04   3.1025485132896190e-04   2.8937197464201132e-04   2.9150514675096306e-04   2.4117904759741489e-04   2.5182560416904591e-04   2.4837515344649250e-04   1.9429379475516758e-04   1.1937261539774408e-04   1.6613904052575020e-04   2.3780682799883809e-05   7.9519326467057539e-05   6.3621480246315124e-06   1.1368530229600302e-05   5.6139558666882225e-06   5.7492030667018844e-06   5.0937801472100272e-06   1.5752582270226970e-01   1.1532924258788267e-01   1.4838932552561443e-01   2.6419687485873252e-02   1.0646361752753966e-01   9.9951772066846556e-04   3.8691644580037224e-02   1.2722807517861895e-04   1.3189003498882270e-04   1.7055776638950665e-04   1.6954619069055272e-04   2.6531565030560696e-04   2.8313109809618026e-04   2.5135545348445331e-04   4.0233163178590302e-04   2.8909502892256341e-04   3.3802461111716265e-04   3.0382913592907792e-04   3.6235018674860264e-04   2.9685783929478274e-04   3.0256119279232997e-04   2.7031835001221563e-04   2.8122297430465461e-04   2.2696172484794450e-04   2.4332882463426995e-04   1.6997069235221403e-04   1.9199847580837268e-04   1.3603550405661167e-04   1.8115780215455452e-04   6.9323362565970126e-05   9.1348864287757377e-05   9.7108467992743848e-06   3.5772093204822098e-05   5.3624112072288795e-06   5.5269899430133707e-06   4.7643579899713592e-06   4.8977417157476933e-06   4.3765193149337208e-06   1.6970448047535025e-01   1.3023780050871697e-01   1.5989614144525507e-01   7.7964142047568269e-02   1.2350905150954167e-01   2.9716179263858948e-03   7.4667505222448236e-02   3.6455631422605022e-04   2.8293642700665377e-03   5.2750627000820944e-04   6.0276665270563804e-04   6.7549157850608620e-04   6.7729756399555240e-04   5.2943750380523311e-04   7.7517537057941700e-04   4.5460154983728508e-04   5.6530026486173717e-04   3.6554818622683066e-04   4.6021564198603441e-04   2.7682681820577162e-04   3.5363344430023463e-04   2.3376273490777357e-04   2.5636054851608430e-04   1.8081018118750871e-04   2.0621088969782211e-04   1.2097090992640889e-04   1.4927148721390523e-04   8.6625117188635008e-05   1.1599789249762429e-04   3.5048765745290860e-05   6.3801262341837050e-05   5.2254907380143659e-06   1.7717146419389091e-05   4.6387005078234376e-06   4.8018706764213994e-06   4.1559681347544560e-06   4.2847655033326272e-06   3.8659099262305703e-06   1.8430231549891221e-01   1.4935090322188679e-01   1.7799282728971258e-01   1.0161651552285615e-01   1.4465920607051000e-01   1.4567316004747909e-02   9.9392625380384833e-02   4.7652460786650301e-03   8.1185526526135268e-03   2.3773170491412587e-03   5.8461249708679688e-03   9.8960095838163814e-04   3.3146792713911904e-03   9.9063718221822027e-04   1.3427329473649754e-03   6.3041548504194894e-04   1.0419851604252565e-03   5.2339180212762344e-04   7.4535511122032826e-04   3.6776135306770748e-04   4.9000519473782434e-04   2.0470066043416356e-04   2.7939062767920106e-04   1.4719676633898711e-04   1.7722663099078984e-04   1.1727925704408976e-04   1.1886458246711841e-04   6.5229658280961325e-05   8.7247407622109745e-05   2.1605079892066159e-05   4.7012497657257834e-05   4.6068914517271468e-06   9.3450303608666421e-06   4.1189081859507488e-06   4.2778638783702895e-06   3.7255626091228250e-06   3.8497634372264231e-06   3.5098309064877596e-06   1.9960476631331708e-01   2.3594611490954745e-01   1.7219282532091798e-01   1.9258194407043902e-01   1.3920983677068519e-01   1.6709507298786608e-01   5.8756734037013890e-02   1.3576525025570921e-01   9.0553356517663122e-03   1.1808751619946945e-02   6.4081004123253136e-03   8.9710230411668250e-03   3.4276682563238268e-03   6.4496057656444079e-03   1.5053173220390917e-03   3.8429088844634720e-03   1.0095744758243147e-03   1.4766918176801177e-03   7.7423196084195906e-04   9.4527945114104579e-04   3.4093314577531648e-04   5.7320873828762447e-04   1.8002218765326359e-04   3.0253042461554836e-04   1.2188660484905545e-04   1.5301476467908840e-04   8.9990174924709900e-05   9.6494045309654183e-05   4.4055713492574190e-05   7.2770422574420479e-05   1.3183639330551730e-05   3.1844887966694933e-05   4.1635561060103440e-06   5.3349918643435675e-06   3.7556156907462272e-06   3.9104526095484932e-06   3.4325104790391695e-06   3.5540943984004994e-06   3.1843138038710344e-06   3.2758196608198125e-06   3.0022076717118018e-06   3.0660313998875453e-06   2.8783312355731190e-06   2.9162796043042763e-06   2.8056542862723919e-06   2.8191010844794515e-06   2.7678722790679148e-06   2.7026332444908568e-01   3.1234517203212414e-01   2.2088046971142639e-01   2.6186394328613166e-01   1.8244947234802689e-01   2.0936165281694685e-01   1.5934060496405411e-01   1.7619598610160844e-01   1.4498533847628817e-02   1.5249989048906293e-01   9.6854266622966242e-03   1.2191868452564784e-02   7.1150714910596952e-03   9.1221415079273081e-03   4.6575401627055747e-03   6.7073487861527429e-03   2.5784473126012576e-03   4.4774837129849280e-03   4.4226897306339928e-04   2.4451452759884839e-03   7.4506507987947353e-04   4.5718524272894446e-04   3.7047119780303300e-04   6.2951903629002463e-04   1.8725007129622660e-04   3.2182264010519897e-04   1.0177190930061095e-04   1.5633613548283711e-04   7.7197479097872282e-05   7.9393520249568147e-05   3.1765756022008911e-05   6.2626357666713026e-05   1.1105360030916433e-05   2.3658630194654378e-05   3.8619917588943757e-06   5.5867683369812393e-06   3.5198701319293524e-06   3.6729305373278472e-06   3.2526783669822820e-06   3.3751448974466974e-06   3.0504183564687499e-06   3.1455594564916220e-06   2.9044559217946981e-06   2.9747709431096307e-06   2.8073036792108236e-06   2.8547101495292616e-06   2.7524430290188188e-06   2.7784276348281700e-06   2.7341683814748013e-06   2.7399066840446267e-06   2.7474673365436614e-06   2.7339159020245750e-06   2.7879197547659866e-06   2.7558860130347480e-06   2.8516265053133830e-06   2.8018182352131357e-06   2.9351541487740322e-06   2.8682125852758716e-06   3.0355015136281832e-06   2.9520202522278333e-06   3.1500795572581841e-06   3.0506100935430118e-06   3.1617540072567345e-06   3.4966431557355748e-01   2.9061505100128071e-01   3.3234147657250385e-01   2.3833247489524331e-01   2.8079989486406248e-01   1.8620200400278919e-01   2.2837090848890970e-01   1.5854392663650593e-01   1.7414082517453644e-01   1.4512443203110350e-02   7.6526846612944663e-02   1.1271529682048869e-02   1.4019362185277412e-02   8.4020825634088022e-03   1.0740749068005748e-02   6.0006311733549512e-03   7.9035126807056287e-03   3.9033277363943707e-03   5.5704826081924008e-03   2.0084325933841410e-03   3.5626321561668768e-03   6.6086892466408662e-04   2.3875033856811858e-03   4.6895892792148597e-04   5.5156370424446963e-04   1.9212370850406937e-04   2.7967644436203005e-04   8.5386449830436814e-05   1.3294278962321253e-04   6.7731075034886825e-05   6.6455516696686210e-05   3.3355507983932176e-05   5.5772779113666636e-05   1.1482136950731974e-05   2.5965081501937028e-05   3.6836253328112879e-06   7.3095728050206564e-06   3.3960911698070102e-06   3.5515111738607985e-06   3.1737264873233098e-06   3.3017916534682898e-06   3.0069766338646042e-06   3.1107910674133104e-06   2.8877706305879159e-06   2.9697220864627188e-06   2.8092610288411236e-06   2.8711975487739790e-06   2.7656143710162359e-06   2.8089841049447349e-06   2.7518330239206762e-06   2.7777931852528360e-06   2.7636204395048010e-06   2.7731188798309259e-06   2.7972692596883751e-06   2.7911052012393927e-06   2.8495835107198597e-06   2.8284484525580968e-06   2.9178168215781772e-06   2.8823216440998627e-06   2.9996346941155733e-06   2.9503226890532678e-06   3.0930883822798276e-06   3.0304385452172222e-06   3.1966023140750591e-06   3.1210247055965344e-06   3.2207904367279589e-06   3.8651318793416645e-01   3.3976794103534474e-01   3.8895192984738924e-01   2.8764298908484048e-01   3.4395219226663687e-01   2.3332411269364814e-01   2.9155613116966050e-01   1.6544031767847828e-01   2.3621987372175041e-01   1.3037926936731840e-02   1.3941904173322061e-02   1.2499587367647735e-02   1.2304220583800549e-02   9.3362116549408850e-03   1.1589831596979860e-02   6.7050344761653748e-03   8.5608411745932162e-03   4.5459147748698157e-03   6.0823103390167188e-03   3.5739341035577938e-03   5.0227604860082859e-03   9.1868500230606596e-04   3.0660181991317946e-03   3.3733293934547340e-04   5.7280592298867574e-04   1.6334671354699881e-04   2.8415276706705351e-04   8.6239953843815536e-05   1.3454938998363024e-04   6.1244613126044766e-05   5.7918537901769300e-05   3.7712370435977907e-05   5.2006367094828347e-05   1.5758172478878416e-05   3.1462680048967495e-05   3.6205993928707728e-06   1.2675932769101719e-05   3.3782598456368225e-06   3.5416475528228182e-06   3.1917322758169092e-06   3.3311358639821914e-06   3.0522812464907856e-06   3.1704769805667429e-06   2.9526610177235441e-06   3.0517932385615765e-06   2.8868341297830630e-06   2.9685745014500697e-06   2.8497491232917105e-06   2.9154203122604966e-06   2.8371542891602190e-06   2.8878243491991889e-06   2.8454606228222045e-06   2.8820112483128447e-06   2.8716285158975271e-06   2.8948047231941909e-06   2.9130903666956759e-06   2.9235322768720308e-06   2.9676887849975015e-06   2.9659516230636567e-06   3.0336389934088776e-06   3.0202012252311019e-06   3.1094998002893043e-06   3.0847639173777546e-06   3.1941584610420220e-06   3.1584454318275828e-06   3.2403571892163229e-06   4.2302217593041336e-01   3.7749529103149143e-01   4.3692465461462970e-01   3.2920879764224892e-01   3.8988830824447834e-01   2.7626400321831152e-01   3.3963565517968652e-01   1.7065028456444545e-01   2.6988410590114736e-01   1.2387161932057319e-02   1.9906586760438934e-02   1.0654034528351725e-02   1.1584458363984671e-02   9.5810826874479140e-03   9.8249871804859494e-03   6.9807924266072638e-03   8.6241109248447051e-03   6.1219303680025124e-03   7.4676663909608795e-03   4.0946742787726816e-03   5.4284052686146443e-03   2.5391447334945807e-03   3.5701424031322889e-03   2.8473320570629912e-04   1.3285974673259303e-03   1.6647628706004187e-04   2.4049367208397592e-04   7.6978230482857159e-05   1.1774071369981943e-04   5.8031820111489787e-05   6.4868662790396313e-05   3.9366724895075229e-05   5.1641678187656420e-05   2.4009184162105481e-05   3.5588166601533878e-05   1.0016959890527890e-05   2.2335150442228067e-05   3.4672778299810672