<?xml version="1.0"?>
<VTKFile type="UnstructuredGrid"  version="0.1"  >
<UnstructuredGrid>
<Piece  NumberOfPoints="2319" NumberOfCells="4441">
<Points>
<DataArray  type="Float64"  NumberOfComponents="3"  format="ascii">3.246521739130435 0 0  3.254782608695652 0 0  3.254782608695652 0.008333333333333333 0  3.26304347826087 0 0  3.26304347826087 0.008333333333333333 0  3.271304347826087 0 0  3.271304347826087 0.008333333333333333 0  3.279565217391304 0 0  3.279565217391304 0.008333333333333333 0  3.287826086956521 0 0  3.287826086956521 0.008333333333333333 0  3.296086956521739 0 0  3.296086956521739 0.008333333333333333 0  3.304347826086957 0 0  3.304347826086957 0.008333333333333333 0  3.312608695652174 0 0  3.312608695652174 0.008333333333333333 0  3.320869565217391 0 0  3.320869565217391 0.008333333333333333 0  3.329130434782608 0 0  3.329130434782608 0.008333333333333333 0  3.337391304347826 0 0  3.337391304347826 0.008333333333333333 0  3.345652173913043 0 0  3.345652173913043 0.008333333333333333 0  3.353913043478261 0 0  3.353913043478261 0.008333333333333333 0  3.362173913043478 0 0  3.362173913043478 0.008333333333333333 0  3.370434782608696 0 0  3.370434782608696 0.008333333333333333 0  3.378695652173913 0 0  3.378695652173913 0.008333333333333333 0  3.386956521739131 0 0  3.386956521739131 0.008333333333333333 0  3.395217391304348 0 0  3.395217391304348 0.008333333333333333 0  3.403478260869565 0 0  3.403478260869565 0.008333333333333333 0  3.411739130434782 0 0  3.411739130434782 0.008333333333333333 0  3.419999999999999 0 0  3.419999999999999 0.008333333333333333 0  3.428260869565217 0 0  3.428260869565217 0.008333333333333333 0  3.436521739130435 0 0  3.436521739130435 0.008333333333333333 0  3.444782608695652 0 0  3.444782608695652 0.008333333333333333 0  3.453043478260869 0 0  3.453043478260869 0.008333333333333333 0  3.461304347826087 0 0  3.461304347826087 0.008333333333333333 0  3.469565217391304 0 0  3.469565217391304 0.008333333333333333 0  3.477826086956522 0 0  3.477826086956522 0.008333333333333333 0  3.486086956521739 0 0  3.486086956521739 0.008333333333333333 0  3.494347826086956 0 0  3.494347826086956 0.008333333333333333 0  3.502608695652174 0 0  3.502608695652174 0.008333333333333333 0  3.510869565217391 0 0  3.510869565217391 0.008333333333333333 0  3.519130434782609 0 0  3.519130434782609 0.008333333333333333 0  3.527391304347826 0 0  3.527391304347826 0.008333333333333333 0  3.535652173913043 0 0  3.535652173913043 0.008333333333333333 0  3.54391304347826 0 0  3.54391304347826 0.008333333333333333 0  3.552173913043478 0 0  3.552173913043478 0.008333333333333333 0  3.560434782608696 0 0  3.560434782608696 0.008333333333333333 0  3.568695652173913 0 0  3.568695652173913 0.008333333333333333 0  3.57695652173913 0 0  3.57695652173913 0.008333333333333333 0  3.585217391304347 0 0  3.585217391304347 0.008333333333333333 0  3.593478260869565 0 0  3.593478260869565 0.008333333333333333 0  3.601739130434782 0 0  3.601739130434782 0.008333333333333333 0  3.61 0 0  3.61 0.008333333333333333 0  3.618260869565217 0 0  3.618260869565217 0.008333333333333333 0  3.626521739130435 0 0  3.626521739130435 0.008333333333333333 0  3.634782608695652 0 0  3.634782608695652 0.008333333333333333 0  3.64304347826087 0 0  3.64304347826087 0.008333333333333333 0  3.651304347826087 0 0  3.651304347826087 0.008333333333333333 0  3.659565217391304 0 0  3.659565217391304 0.008333333333333333 0  3.667826086956521 0 0  3.667826086956521 0.008333333333333333 0  3.676086956521739 0 0  3.676086956521739 0.008333333333333333 0  3.684347826086956 0 0  3.684347826086956 0.008333333333333333 0  3.692608695652174 0 0  3.692608695652174 0.008333333333333333 0  3.700869565217391 0 0  3.700869565217391 0.008333333333333333 0  3.709130434782608 0 0  3.709130434782608 0.008333333333333333 0  3.717391304347826 0 0  3.717391304347826 0.008333333333333333 0  3.725652173913043 0 0  3.725652173913043 0.008333333333333333 0  3.733913043478261 0 0  3.733913043478261 0.008333333333333333 0  3.742173913043478 0 0  3.742173913043478 0.008333333333333333 0  3.750434782608695 0 0  3.750434782608695 0.008333333333333333 0  3.758695652173913 0 0  3.758695652173913 0.008333333333333333 0  3.766956521739131 0 0  3.766956521739131 0.008333333333333333 0  3.775217391304348 0 0  3.775217391304348 0.008333333333333333 0  3.783478260869565 0 0  3.783478260869565 0.008333333333333333 0  3.791739130434782 0 0  3.791739130434782 0.008333333333333333 0  3.8 0 0  3.8 0.008333333333333333 0  3.26304347826087 0.01666666666666667 0  3.271304347826087 0.01666666666666667 0  3.279565217391304 0.01666666666666667 0  3.287826086956521 0.01666666666666667 0  3.296086956521739 0.01666666666666667 0  3.304347826086957 0.01666666666666667 0  3.312608695652174 0.01666666666666667 0  3.320869565217391 0.01666666666666667 0  3.329130434782608 0.01666666666666667 0  3.337391304347826 0.01666666666666667 0  3.345652173913043 0.01666666666666667 0  3.353913043478261 0.01666666666666667 0  3.362173913043478 0.01666666666666667 0  3.370434782608696 0.01666666666666667 0  3.378695652173913 0.01666666666666667 0  3.386956521739131 0.01666666666666667 0  3.395217391304348 0.01666666666666667 0  3.403478260869565 0.01666666666666667 0  3.411739130434782 0.01666666666666667 0  3.419999999999999 0.01666666666666667 0  3.428260869565217 0.01666666666666667 0  3.436521739130435 0.01666666666666667 0  3.444782608695652 0.01666666666666667 0  3.453043478260869 0.01666666666666667 0  3.461304347826087 0.01666666666666667 0  3.469565217391304 0.01666666666666667 0  3.477826086956522 0.01666666666666667 0  3.486086956521739 0.01666666666666667 0  3.494347826086956 0.01666666666666667 0  3.502608695652174 0.01666666666666667 0  3.510869565217391 0.01666666666666667 0  3.519130434782609 0.01666666666666667 0  3.527391304347826 0.01666666666666667 0  3.535652173913043 0.01666666666666667 0  3.54391304347826 0.01666666666666667 0  3.552173913043478 0.01666666666666667 0  3.560434782608696 0.01666666666666667 0  3.568695652173913 0.01666666666666667 0  3.57695652173913 0.01666666666666667 0  3.585217391304347 0.01666666666666667 0  3.593478260869565 0.01666666666666667 0  3.601739130434782 0.01666666666666667 0  3.61 0.01666666666666667 0  3.618260869565217 0.01666666666666667 0  3.626521739130435 0.01666666666666667 0  3.634782608695652 0.01666666666666667 0  3.64304347826087 0.01666666666666667 0  3.651304347826087 0.01666666666666667 0  3.659565217391304 0.01666666666666667 0  3.667826086956521 0.01666666666666667 0  3.676086956521739 0.01666666666666667 0  3.684347826086956 0.01666666666666667 0  3.692608695652174 0.01666666666666667 0  3.700869565217391 0.01666666666666667 0  3.709130434782608 0.01666666666666667 0  3.717391304347826 0.01666666666666667 0  3.725652173913043 0.01666666666666667 0  3.733913043478261 0.01666666666666667 0  3.742173913043478 0.01666666666666667 0  3.750434782608695 0.01666666666666667 0  3.758695652173913 0.01666666666666667 0  3.766956521739131 0.01666666666666667 0  3.775217391304348 0.01666666666666667 0  3.783478260869565 0.01666666666666667 0  3.791739130434782 0.01666666666666667 0  3.8 0.01666666666666667 0  3.271304347826087 0.025 0  3.279565217391304 0.025 0  3.287826086956521 0.025 0  3.296086956521739 0.025 0  3.304347826086957 0.025 0  3.312608695652174 0.025 0  3.320869565217391 0.025 0  3.329130434782608 0.025 0  3.337391304347826 0.025 0  3.345652173913043 0.025 0  3.353913043478261 0.025 0  3.362173913043478 0.025 0  3.370434782608696 0.025 0  3.378695652173913 0.025 0  3.386956521739131 0.025 0  3.395217391304348 0.025 0  3.403478260869565 0.025 0  3.411739130434782 0.025 0  3.419999999999999 0.025 0  3.428260869565217 0.025 0  3.436521739130435 0.025 0  3.444782608695652 0.025 0  3.453043478260869 0.025 0  3.461304347826087 0.025 0  3.469565217391304 0.025 0  3.477826086956522 0.025 0  3.486086956521739 0.025 0  3.494347826086956 0.025 0  3.502608695652174 0.025 0  3.510869565217391 0.025 0  3.519130434782609 0.025 0  3.527391304347826 0.025 0  3.535652173913043 0.025 0  3.54391304347826 0.025 0  3.552173913043478 0.025 0  3.560434782608696 0.025 0  3.568695652173913 0.025 0  3.57695652173913 0.025 0  3.585217391304347 0.025 0  3.593478260869565 0.025 0  3.601739130434782 0.025 0  3.61 0.025 0  3.618260869565217 0.025 0  3.626521739130435 0.025 0  3.634782608695652 0.025 0  3.64304347826087 0.025 0  3.651304347826087 0.025 0  3.659565217391304 0.025 0  3.667826086956521 0.025 0  3.676086956521739 0.025 0  3.684347826086956 0.025 0  3.692608695652174 0.025 0  3.700869565217391 0.025 0  3.709130434782608 0.025 0  3.717391304347826 0.025 0  3.725652173913043 0.025 0  3.733913043478261 0.025 0  3.742173913043478 0.025 0  3.750434782608695 0.025 0  3.758695652173913 0.025 0  3.766956521739131 0.025 0  3.775217391304348 0.025 0  3.783478260869565 0.025 0  3.791739130434782 0.025 0  3.8 0.025 0  3.279565217391304 0.03333333333333333 0  3.287826086956521 0.03333333333333333 0  3.296086956521739 0.03333333333333333 0  3.304347826086957 0.03333333333333333 0  3.312608695652174 0.03333333333333333 0  3.320869565217391 0.03333333333333333 0  3.329130434782608 0.03333333333333333 0  3.337391304347826 0.03333333333333333 0  3.345652173913043 0.03333333333333333 0  3.353913043478261 0.03333333333333333 0  3.362173913043478 0.03333333333333333 0  3.370434782608696 0.03333333333333333 0  3.378695652173913 0.03333333333333333 0  3.386956521739131 0.03333333333333333 0  3.395217391304348 0.03333333333333333 0  3.403478260869565 0.03333333333333333 0  3.411739130434782 0.03333333333333333 0  3.419999999999999 0.03333333333333333 0  3.428260869565217 0.03333333333333333 0  3.436521739130435 0.03333333333333333 0  3.444782608695652 0.03333333333333333 0  3.453043478260869 0.03333333333333333 0  3.461304347826087 0.03333333333333333 0  3.469565217391304 0.03333333333333333 0  3.477826086956522 0.03333333333333333 0  3.486086956521739 0.03333333333333333 0
[...]
<PointData  Vectors="Displacement"> 
<DataArray  type="Float64"  Name="Displacement"  NumberOfComponents="3" format="ascii">3.3342555769425860e-04 3.4631902039409883e-03 0.0000000000000000e+00  3.3396016374897728e-04 3.4755788178518427e-03 0.0000000000000000e+00  3.2148423324963697e-04 3.4754116115102802e-03 0.0000000000000000e+00  3.3446209379329686e-04 3.4880028558713387e-03 0.0000000000000000e+00  3.2195229361051310e-04 3.4878460432500890e-03 0.0000000000000000e+00  3.3493116117666024e-04 3.5004590561295988e-03 0.0000000000000000e+00  3.2239068438261496e-04 3.5003127007198613e-03 0.0000000000000000e+00  3.3536734473639670e-04 3.5129440073527122e-03 0.0000000000000000e+00  3.2279937416200278e-04 3.5128080941620606e-03 0.0000000000000000e+00  3.3577086129706128e-04 3.5254542658266072e-03 0.0000000000000000e+00  3.2317854386115330e-04 3.5253286932353648e-03 0.0000000000000000e+00  3.3614214462338260e-04 3.5379865048483059e-03 0.0000000000000000e+00  3.2352854789898124e-04 3.5378711098009441e-03 0.0000000000000000e+00  3.3648178870685809e-04 3.5505375666334375e-03 0.0000000000000000e+00  3.2384987054011983e-04 3.5504321458774651e-03 0.0000000000000000e+00  3.3679050376099516e-04 3.5631044552782687e-03 0.0000000000000000e+00  3.2414309850452446e-04 3.5630087750645871e-03 0.0000000000000000e+00  3.3706909204933263e-04 3.5756843229322113e-03 0.0000000000000000e+00  3.2440890515753480e-04 3.5755981228908947e-03 0.0000000000000000e+00  3.3731843321711526e-04 3.5882744668076557e-03 0.0000000000000000e+00  3.2464803805327453e-04 3.5881974632771480e-03 0.0000000000000000e+00  3.3753947102644477e-04 3.6008723324715791e-03 0.0000000000000000e+00  3.2486130641353953e-04 3.6008042227359811e-03 0.0000000000000000e+00  3.3773319999189116e-04 3.6134755155721376e-03 0.0000000000000000e+00  3.2504956914034564e-04 3.6134159821676758e-03 0.0000000000000000e+00  3.3790065345326998e-04 3.6260817595037253e-03 0.0000000000000000e+00  3.2521372466423929e-04 3.6260304737224928e-03 0.0000000000000000e+00  3.3804289426799249e-04 3.6386889504382326e-03 0.0000000000000000e+00  3.2535470306676093e-04 3.6386455748350405e-03 0.0000000000000000e+00  3.3816100809194000e-04 3.6512951117705370e-03 0.0000000000000000e+00  3.2547346013827308e-04 3.6512593019135549e-03 0.0000000000000000e+00  3.3825609855947595e-04 3.6638983990824260e-03 0.0000000000000000e+00  3.2557097280141534e-04 3.6638698048512891e-03 0.0000000000000000e+00  3.3832928366518987e-04 3.6764970958224137e-03 0.0000000000000000e+00  3.2564823544630974e-04 3.6764753624467946e-03 0.0000000000000000e+00  3.3838169289339930e-04 3.6890896095515022e-03 0.0000000000000000e+00  3.2570625689605184e-04 3.6890743784795373e-03 0.0000000000000000e+00  3.3841446483853723e-04 3.7016744686282060e-03 0.0000000000000000e+00  3.2574605782013694e-04 3.7016653782718642e-03 0.0000000000000000e+00  3.3842874514186232e-04 3.7142503193029809e-03 0.0000000000000000e+00  3.2576866844562409e-04 3.7142470057043692e-03 0.0000000000000000e+00  3.3842568458851332e-04 3.7268159232255000e-03 0.0000000000000000e+00  3.2577512642611170e-04 3.7268180206917463e-03 0.0000000000000000e+00  3.3840643722023183e-04 3.7393701553399654e-03 0.0000000000000000e+00  3.2576647474530742e-04 3.7393772970905014e-03 0.0000000000000000e+00  3.3837215834528256e-04 3.7519120020989716e-03 0.0000000000000000e+00  3.2574375955937067e-04 3.7519238209578827e-03 0.0000000000000000e+00  3.3832400236473800e-04 3.7644405598959802e-03 0.0000000000000000e+00  3.2570802791421702e-04 3.7644566890487844e-03 0.0000000000000000e+00  3.3826312037324333e-04 3.7769550336065280e-03 0.0000000000000000e+00  3.2566032530404935e-04 3.7769751074288849e-03 0.0000000000000000e+00  3.3819065752546570e-04 3.7894547351340706e-03 0.0000000000000000e+00  3.2560169306227344e-04 3.7894783900908236e-03 0.0000000000000000e+00  3.3810775018435749e-04 3.8019390818699269e-03 0.0000000000000000e+00  3.2553316559504579e-04 3.8019659574765113e-03 0.0000000000000000e+00  3.3801552288454311e-04 3.8144075949939002e-03 0.0000000000000000e+00  3.2545576748134458e-04 3.8144373348279535e-03 0.0000000000000000e+00  3.3791508515484801e-04 3.8268598975597680e-03 0.0000000000000000e+00  3.2537051047253773e-04 3.8268921503082738e-03 0.0000000000000000e+00  3.3780752824956131e-04 3.8392957123267392e-03 0.0000000000000000e+00  3.2527839042968448e-04 3.8393301328530144e-03 0.0000000000000000e+00  3.3769392183990017e-04 3.8517148593130656e-03 0.0000000000000000e+00  3.2518038423901365e-04 3.8517511097276649e-03 0.0000000000000000e+00  3.3757531071617420e-04 3.8641172530616309e-03 0.0000000000000000e+00  3.2507744674606354e-04 3.8641550037819073e-03 0.0000000000000000e+00  3.3745271154829248e-04 3.8765028996184071e-03 0.0000000000000000e+00  3.2497050774724426e-04 3.8765418304024780e-03 0.0000000000000000e+00  3.3732710974818808e-04 3.8888718932343449e-03 0.0000000000000000e+00  3.2486046907475105e-04 3.8889116941765974e-03 0.0000000000000000e+00  3.3719945647262906e-04 3.9012244128091025e-03 0.0000000000000000e+00  3.2474820180689208e-04 3.9012647852860222e-03 0.0000000000000000e+00  3.3707066579909671e-04 3.9135607181017603e-03 0.0000000000000000e+00  3.2463454363129701e-04 3.9136013756586917e-03 0.0000000000000000e+00  3.3694161210081941e-04 3.9258811457390562e-03 0.0000000000000000e+00  3.2452029638316992e-04 3.9259218149106040e-03 0.0000000000000000e+00  3.3681312763983689e-04 3.9381861050556246e-03 0.0000000000000000e+00  3.2440622377481959e-04 3.9382265261146748e-03 0.0000000000000000e+00  3.3668600038909332e-04 3.9504760738036078e-03 0.0000000000000000e+00  3.2429304932620324e-04 3.9505160014364415e-03 0.0000000000000000e+00  3.3656097208607056e-04 3.9627515937701568e-03 0.0000000000000000e+00  3.2418145449928369e-04 3.9627907976777033e-03 0.0000000000000000e+00  3.3643873651148900e-04 3.9750132663408204e-03 0.0000000000000000e+00  3.2407207703167001e-04 3.9750515317689408e-03 0.0000000000000000e+00  3.3631993797725377e-04 3.9872617480444881e-03 0.0000000000000000e+00  3.2396550945751562e-04 3.9872988762489443e-03 0.0000000000000000e+00  3.3620516999826325e-04 3.9994977461109867e-03 0.0000000000000000e+00  3.2386229779608815e-04 3.9995335547656245e-03 0.0000000000000000e+00  3.3609497411312008e-04 4.0117220140656242e-03 0.0000000000000000e+00  3.2376294038107310e-04 4.0117563376250746e-03 0.0000000000000000e+00  3.3598983880947069e-04 4.0239353473754931e-03 0.0000000000000000e+00  3.2366788679678404e-04 4.0239680374062640e-03 0.0000000000000000e+00  3.3589019850084774e-04 4.0361385791501669e-03 0.0000000000000000e+00  3.2357753688125486e-04 4.0361695046464141e-03 0.0000000000000000e+00  3.3579643249383336e-04 4.0483325758840756e-03 0.0000000000000000e+00  3.2349223975108361e-04 4.0483616235862151e-03 0.0000000000000000e+00  3.3570886387729288e-04 4.0605182332092513e-03 0.0000000000000000e+00  3.2341229279921681e-04 4.0605453079451542e-03 0.0000000000000000e+00  3.3562775825969068e-04 4.0726964716045252e-03 0.0000000000000000e+00  3.2333794061498573e-04 4.0727214966737816e-03 0.0000000000000000e+00  3.3555332227637116e-04 4.0848682319804160e-03 0.0000000000000000e+00  3.2326937377626975e-04 4.0848911496022891e-03 0.0000000000000000e+00  3.3548570178650988e-04 4.0970344710263779e-03 0.0000000000000000e+00  3.2320672746720516e-04 4.0970552428709990e-03 0.0000000000000000e+00  3.3542497967972246e-04 4.1091961561679829e-03 0.0000000000000000e+00  3.2315007988248146e-04 4.1092147639881999e-03 0.0000000000000000e+00  3.3537117321577164e-04 4.1213542599331876e-03 0.0000000000000000e+00  3.2309945039219547e-04 4.1213707063103939e-03 0.0000000000000000e+00  3.3532423082876909e-04 4.1335097534660852e-03 0.0000000000000000e+00  3.2305479746172635e-04 4.1335240626771347e-03 0.0000000000000000e+00  3.3528402834200174e-04 4.1456635988480787e-03 0.0000000000000000e+00  3.2301601635224120e-04 4.1456758178509455e-03 0.0000000000000000e+00  3.3525036456539409e-04 4.1578167397825347e-03 0.0000000000000000e+00  3.2298293667426255e-04 4.1578269393045394e-03 0.0000000000000000e+00  3.3522295629256546e-04 4.1699700900574904e-03 0.0000000000000000e+00  3.2295531993686307e-04 4.1699783657504130e-03 0.0000000000000000e+00  3.3520143279403713e-04 4.1821245190030859e-03 0.0000000000000000e+00  3.2293285733962318e-04 4.1821309926029998e-03 0.0000000000000000e+00  3.3518533004712363e-04 4.1942808328780650e-03 0.0000000000000000e+00  3.2291516820943494e-04 4.1942856532750736e-03 0.0000000000000000e+00  3.3517408520998771e-04 4.2064397507107377e-03 0.0000000000000000e+00  3.2290179970899478e-04 4.2064430948014764e-03 0.0000000000000000e+00  3.3516703235371610e-04 4.2186018725268414e-03 0.0000000000000000e+00  3.2289222875615516e-04 4.2186039457126406e-03 0.0000000000000000e+00  3.3516340144622650e-04 4.2307676370596453e-03 0.0000000000000000e+00  3.2288586748968834e-04 4.2307686733198376e-03 0.0000000000000000e+00  3.3516232451216656e-04 4.2429372649648057e-03 0.0000000000000000e+00  3.2288207402421279e-04 4.2429375266791573e-03 0.0000000000000000e+00  3.3516285676600207e-04 4.2551106826524193e-03 0.0000000000000000e+00  3.2288017041873300e-04 4.2551104608217786e-03 0.0000000000000000e+00  3.3516402853609752e-04 4.2672874233271041e-03 0.0000000000000000e+00  3.2287946927133976e-04 4.2672870386040260e-03 0.0000000000000000e+00  3.3516496222922636e-04 4.2794665176401321e-03 0.0000000000000000e+00  3.2287930908057964e-04 4.2794663122273794e-03 0.0000000000000000e+00  3.3516515254809238e-04 4.2916465022659264e-03 0.0000000000000000e+00  3.2287910159208764e-04 4.2916467010285361e-03 0.0000000000000000e+00  3.0951254868491176e-04 3.4876998842787092e-03 0.0000000000000000e+00  3.0992029387010982e-04 3.5001761943775776e-03 0.0000000000000000e+00  3.1030109058381792e-04 3.5126812412482862e-03 0.0000000000000000e+00  3.1065512414614200e-04 3.5252113586613904e-03 0.0000000000000000e+00  3.1098274014306165e-04 3.5377631082095570e-03 0.0000000000000000e+00  3.1128437540668848e-04 3.5503332784885414e-03 0.0000000000000000e+00  3.1156053866256698e-04 3.5629188293189902e-03 0.0000000000000000e+00  3.1181180918057563e-04 3.5755168652732718e-03 0.0000000000000000e+00  3.1203883253033796e-04 3.5881246384727380e-03 0.0000000000000000e+00  3.1224231042482230e-04 3.6007395582199932e-03 0.0000000000000000e+00  3.1242298938267206e-04 3.6133591933388601e-03 0.0000000000000000e+00  3.1258165174783846e-04 3.6259812671955438e-03 0.0000000000000000e+00  3.1271910954078279e-04 3.6386036500372374e-03 0.0000000000000000e+00  3.1283620015063845e-04 3.6512243519093495e-03 0.0000000000000000e+00  3.1293378290699612e-04 3.6638415170264084e-03 0.0000000000000000e+00  3.1301273607856430e-04 3.6764534192213964e-03 0.0000000000000000e+00  3.1307395418924582e-04 3.6890584580022913e-03 0.0000000000000000e+00  3.1311834562107628e-04 3.7016551550447950e-03 0.0000000000000000e+00  3.1314683043093391e-04 3.7142421511511202e-03 0.0000000000000000e+00  3.1316033826923293e-04 3.7268182037190861e-03 0.0000000000000000e+00  3.1315980629150993e-04 3.7393821846918155e-03 0.0000000000000000e+00  3.1314617698344004e-04 3.7519330788886424e-03 0.0000000000000000e+00  3.1312039585423444e-04 3.7644699825848480e-03 0.0000000000000000e+00  3.1308340898142411e-04 3.7769921022056860e-03 0.0000000000000000e+00  3.1303616040973767e-04 3.7894987530142582e-03 0.0000000000000000e+00  3.1297958942023431e-04 3.8019893576925834e-03 0.0000000000000000e+00  3.1291462769483840e-04 3.8144634447362363e-03 0.0000000000000000e+00  3.1284219640719191e-04 3.8269206466034966e-03 0.0000000000000000e+00  3.1276320327381149e-04 3.8393606975790479e-03 0.0000000000000000e+00  3.1267853960063321e-04 3.8517834313289865e-03 0.0000000000000000e+00  3.1258907735948427e-04 3.8641887781384675e-03 0.0000000000000000e+00  3.1249566632753035e-04 3.8765767618351619e-03 0.0000000000000000e+00  3.1239913132036760e-04 3.8889474964116017e-03 0.0000000000000000e+00  3.1230026954639394e-04 3.9013011823679508e-03 0.0000000000000000e+00  3.1219984810642849e-04 3.9136381028036585e-03 0.0000000000000000e+00  3.1209860165825460e-04 3.9259586192923277e-03 0.0000000000000000e+00  3.1199723026100216e-04 3.9382631675785188e-03 0.0000000000000000e+00  3.1189639740890140e-04 3.9505522531384394e-03 0.0000000000000000e+00  3.1179672825828965e-04 3.9628264466478793e-03 0.0000000000000000e+00  3.1169880804574079e-04 3.9750863794006360e-03 0.0000000000000000e+00  3.1160318068908271e-04 3.9873327387183249e-03 0.0000000000000000e+00  3.1151034755703939e-04 3.9995662633879551e-03 0.0000000000000000e+00  3.1142076638750914e-04 4.0117877391567542e-03 0.0000000000000000e+00  3.1133485032930786e-04 4.0239979943036816e-03 0.0000000000000000e+00  3.1125296707798554e-04 4.0361978952945955e-03 0.0000000000000000e+00  3.1117543807323574e-04 4.0483883425115929e-03 0.0000000000000000e+00  3.1110253772407984e-04 4.0605702660276074e-03 0.0000000000000000e+00  3.1103449262870353e-04 4.0727446213733405e-03 0.0000000000000000e+00  3.1097148075922003e-04 4.0849123852150799e-03 0.0000000000000000e+00  3.1091363058838279e-04 4.0970745508276301e-03 0.0000000000000000e+00  3.1086102014615130e-04 4.1092321232050286e-03 0.0000000000000000e+00  3.1081367601028232e-04 4.1213861136007619e-03 0.0000000000000000e+00  3.1077157225789357e-04 4.1335375332254374e-03 0.0000000000000000e+00  3.1073462943599834e-04 4.1456873857486183e-03 0.0000000000000000e+00  3.1070271364969413e-04 4.1578366581459282e-03 0.0000000000000000e+00  3.1067563591778664e-04 4.1699863092931506e-03 0.0000000000000000e+00  3.1065315200515074e-04 4.1821372555235327e-03 0.0000000000000000e+00  3.1063496300007813e-04 4.1942903521184609e-03 0.0000000000000000e+00  3.1062071693891552e-04 4.2064463693822713e-03 0.0000000000000000e+00  3.1061001173301431e-04 4.2186059615587843e-03 0.0000000000000000e+00  3.1060239940772656e-04 4.2307696264180534e-03 0.0000000000000000e+00  3.1059739100181764e-04 4.2429376530040003e-03 0.0000000000000000e+00  3.1059446004211207e-04 4.2551100550733906e-03 0.0000000000000000e+00  3.1059303984275308e-04 4.2672864885351866e-03 0.0000000000000000e+00  3.1059250558967733e-04 4.2794661516830004e-03 0.0000000000000000e+00  3.1059212479760562e-04 4.2916476535837071e-03 0.0000000000000000e+00  2.9751292339714287e-04 3.5000496371369676e-03 0.0000000000000000e+00  2.9786549696967285e-04 3.5125638486070321e-03 0.0000000000000000e+00  2.9819373844521799e-04 3.5251028972427805e-03 0.0000000000000000e+00  2.9849805048616550e-04 3.5376633197639123e-03 0.0000000000000000e+00  2.9877886536061485e-04 3.5502419378451795e-03 0.0000000000000000e+00  2.9903664388099732e-04 3.5628357234395260e-03 0.0000000000000000e+00  2.9927189762102979e-04 3.5754417676568330e-03 0.0000000000000000e+00  2.9948519537068295e-04 3.5880573028443108e-03 0.0000000000000000e+00  2.9967715412439379e-04 3.6006797250135911e-03 0.0000000000000000e+00  2.9984842714423417e-04 3.6133065967435337e-03 0.0000000000000000e+00  2.9999969606657397e-04 3.6259356381642938e-03 0.0000000000000000e+00  3.0013166715359195e-04 3.6385647162895502e-03 0.0000000000000000e+00  3.0024506942119843e-04 3.6511918371165968e-03 0.0000000000000000e+00  3.0034065298609268e-04 3.6638151403725686e-03 0.0000000000000000e+00  3.0041918716921774e-04 3.6764328954549687e-03 0.0000000000000000e+00  3.0048145850263127e-04 3.6890434977011701e-03 0.0000000000000000e+00  3.0052826881817989e-04 3.7016454648951141e-03 0.0000000000000000e+00  3.0056043343254708e-04 3.7142374342161479e-03 0.0000000000000000e+00  3.0057877933429027e-04 3.7268181597622089e-03 0.0000000000000000e+00  3.0058414326835042e-04 3.7393865106163746e-03 0.0000000000000000e+00  3.0057736965355322e-04 3.7519414693222785e-03 0.0000000000000000e+00  3.0055930831208381e-04 3.7644821306053564e-03 0.0000000000000000e+00  3.0053081201876063e-04 3.7770077001891989e-03 0.0000000000000000e+00  3.0049273389308505e-04 3.7895174935812254e-03 0.0000000000000000e+00  3.0044592466434519e-04 3.8020109347265264e-03 0.0000000000000000e+00  3.0039122984362710e-04 3.8144875544514631e-03 0.0000000000000000e+00  3.0032948683799809e-04 3.8269469886398422e-03 0.0000000000000000e+00  3.0026152204199266e-04 3.8393889761040882e-03 0.0000000000000000e+00  3.0018814794026172e-04 3.8518133561304645e-03 0.0000000000000000e+00  3.0011016025338437e-04 3.8642200656919127e-03 0.0000000000000000e+00  3.0002833515672516e-04 3.8766091363334094e-03 0.0000000000000000e+00  2.9994342659988373e-04 3.8889806907443938e-03 0.0000000000000000e+00  2.9985616375169746e-04 3.9013349390411645e-03 0.0000000000000000e+00  2.9976724859274827e-04 3.9136721747890174e-03 0.0000000000000000e+00  2.9967735367391712e-04 3.9259927708000485e-03 0.0000000000000000e+00  2.9958712005556166e-04 3.9382971747469421e-03 0.0000000000000000e+00  2.9949715543753954e-04 3.9505859046367435e-03 0.0000000000000000e+00  2.9940803248549756e-04 3.9628595441900524e-03 0.0000000000000000e+00  2.9932028735384054e-04 3.9751187381712001e-03 0.0000000000000000e+00  2.9923441840063700e-04 3.9873641877127579e-03 0.0000000000000000e+00  2.9915088508465122e-04 3.9995966456731957e-03 0.0000000000000000e+00  2.9907010702997274e-04 4.0118169120595924e-03 0.0000000000000000e+00  2.9899246323955434e-04 4.0240258295370750e-03 0.0000000000000000e+00  2.9891829143574773e-04 4.0362242790338756e-03 0.0000000000000000e+00  2.9884788750396640e-04 4.0484131754342061e-03 0.0000000000000000e+00  2.9878150501521950e-04 4.0605934633310779e-03 0.0000000000000000e+00  2.9871935480497541e-04 4.0727661127869059e-03 0.0000000000000000e+00  2.9866160458983824e-04 4.0849321150206895e-03 0.0000000000000000e+00  2.9860837861044411e-04 4.0970924779061219e-03 0.0000000000000000e+00  2.9855975729899803e-04 4.1092482211238434e-03 0.0000000000000000e+00  2.9851577698323297e-04 4.1214003707613382e-03 0.0000000000000000e+00  2.9847642965515764e-04 4.1335499530936624e-03 0.0000000000000000e+00  2.9844166285159998e-04 4.1456979872037739e-03 0.0000000000000000e+00  2.9841137971182665e-04 4.1578454760091890e-03 0.0000000000000000e+00  2.9838543928921402e-04 4.1699933951477690e-03 0.0000000000000000e+00  2.9836365718725931e-04 4.1821426790363842e-03 0.0000000000000000e+00  2.9834580654212388e-04 4.1942942032537059e-03 0.0000000000000000e+00  2.9833161924313397e-04 4.2064487622240371e-03 0.0000000000000000e+00  2.9832078699870463e-04 4.2186070410297231e-03 0.0000000000000000e+00  2.9831296130579138e-04 4.2307695801374109e-03 0.0000000000000000e+00  2.9830775040327428e-04 4.2429367320426757e-03 0.0000000000000000e+00  2.9830470967604948e-04 4.2551086095379493e-03 0.0000000000000000e+00  2.9830331948456145e-04 4.2672850265471672e-03 0.0000000000000000e+00  2.9830294053574365e-04 4.2794654329840190e-03 0.0000000000000000e+00  2.9830272904062043e-04 4.2916488379073549e-03 0.0000000000000000e+00  2.8548610616787332e-04 3.5124563106514704e-03 0.0000000000000000e+00  2.8578794693591750e-04 3.5250038828548778e-03 0.0000000000000000e+00  2.8606816251193251e-04 3.5375724485474198e-03 0.0000000000000000e+00  2.8632720263533805e-04 3.5501589481158327e-03 0.0000000000000000e+00  2.8656548880669327e-04 3.5627603954852451e-03 0.0000000000000000e+00  2.8678347930361056e-04 3.5753738686898377e-03 0.0000000000000000e+00  2.8698168580827894e-04 3.5879965786300102e-03 0.0000000000000000e+00  2.8716065948380004e-04 3.6006259138756601e-03 0.0000000000000000e+00  2.8732097531074957e-04 3.6132594404321866e-03 0.0000000000000000e+00  2.8746322551115522e-04 3.6258948838013829e-03 0.0000000000000000e+00  2.8758801956343738e-04 3.6385301134530001e-03 0.0000000000000000e+00  2.8769598581689061e-04 3.6511631345541771e-03 0.0000000000000000e+00  2.8778777208224874e-04 3.6637920841343318e-03 0.0000000000000000e+00  2.8786404500440833e-04 3.6764152281881101e-03 0.0000000000000000e+00  2.8792548888711478e-04 3.6890309583811399e-03 0.0000000000000000e+00  2.8797280444116228e-04 3.7016377886031444e-03 0.0000000000000000e+00  2.8800670752889891e-04 3.7142343519443980e-03 0.0000000000000000e+00  2.8802792778183833e-04 3.7268193983659237e-03 0.0000000000000000e+