<?xml version="1.0"?>
<VTKFile type="UnstructuredGrid"  version="0.1"  >
<UnstructuredGrid>
<Piece  NumberOfPoints="2444" NumberOfCells="4640">
<Points>
<DataArray  type="Float64"  NumberOfComponents="3"  format="ascii">1.891739130434782 0 0  1.9 0 0  1.9 0.008333333333333333 0  1.908260869565217 0 0  1.908260869565217 0.008333333333333333 0  1.916521739130435 0 0  1.916521739130435 0.008333333333333333 0  1.924782608695652 0 0  1.924782608695652 0.008333333333333333 0  1.933043478260869 0 0  1.933043478260869 0.008333333333333333 0  1.941304347826087 0 0  1.941304347826087 0.008333333333333333 0  1.949565217391304 0 0  1.949565217391304 0.008333333333333333 0  1.957826086956522 0 0  1.957826086956522 0.008333333333333333 0  1.966086956521739 0 0  1.966086956521739 0.008333333333333333 0  1.974347826086956 0 0  1.974347826086956 0.008333333333333333 0  1.982608695652174 0 0  1.982608695652174 0.008333333333333333 0  1.990869565217391 0 0  1.990869565217391 0.008333333333333333 0  1.999130434782608 0 0  1.999130434782608 0.008333333333333333 0  2.007391304347826 0 0  2.007391304347826 0.008333333333333333 0  2.015652173913043 0 0  2.015652173913043 0.008333333333333333 0  2.023913043478261 0 0  2.023913043478261 0.008333333333333333 0  2.032173913043478 0 0  2.032173913043478 0.008333333333333333 0  2.040434782608695 0 0  2.040434782608695 0.008333333333333333 0  2.048695652173913 0 0  2.048695652173913 0.008333333333333333 0  2.05695652173913 0 0  2.05695652173913 0.008333333333333333 0  2.065217391304348 0 0  2.065217391304348 0.008333333333333333 0  2.073478260869565 0 0  2.073478260869565 0.008333333333333333 0  2.081739130434782 0 0  2.081739130434782 0.008333333333333333 0  2.09 0 0  2.09 0.008333333333333333 0  2.098260869565217 0 0  2.098260869565217 0.008333333333333333 0  2.106521739130435 0 0  2.106521739130435 0.008333333333333333 0  2.114782608695652 0 0  2.114782608695652 0.008333333333333333 0  2.12304347826087 0 0  2.12304347826087 0.008333333333333333 0  2.131304347826087 0 0  2.131304347826087 0.008333333333333333 0  2.139565217391304 0 0  2.139565217391304 0.008333333333333333 0  2.147826086956522 0 0  2.147826086956522 0.008333333333333333 0  2.156086956521739 0 0  2.156086956521739 0.008333333333333333 0  2.164347826086956 0 0  2.164347826086956 0.008333333333333333 0  2.172608695652174 0 0  2.172608695652174 0.008333333333333333 0  2.180869565217391 0 0  2.180869565217391 0.008333333333333333 0  2.189130434782609 0 0  2.189130434782609 0.008333333333333333 0  2.197391304347826 0 0  2.197391304347826 0.008333333333333333 0  2.205652173913043 0 0  2.205652173913043 0.008333333333333333 0  2.213913043478261 0 0  2.213913043478261 0.008333333333333333 0  2.222173913043478 0 0  2.222173913043478 0.008333333333333333 0  2.230434782608695 0 0  2.230434782608695 0.008333333333333333 0  2.238695652173913 0 0  2.238695652173913 0.008333333333333333 0  2.24695652173913 0 0  2.24695652173913 0.008333333333333333 0  2.255217391304348 0 0  2.255217391304348 0.008333333333333333 0  2.263478260869565 0 0  2.263478260869565 0.008333333333333333 0  2.271739130434783 0 0  2.271739130434783 0.008333333333333333 0  2.28 0 0  2.28 0.008333333333333333 0  2.288260869565217 0 0  2.288260869565217 0.008333333333333333 0  2.296521739130434 0 0  2.296521739130434 0.008333333333333333 0  2.304782608695652 0 0  2.304782608695652 0.008333333333333333 0  2.31304347826087 0 0  2.31304347826087 0.008333333333333333 0  2.321304347826087 0 0  2.321304347826087 0.008333333333333333 0  2.329565217391304 0 0  2.329565217391304 0.008333333333333333 0  2.337826086956521 0 0  2.337826086956521 0.008333333333333333 0  2.346086956521739 0 0  2.346086956521739 0.008333333333333333 0  2.354347826086956 0 0  2.354347826086956 0.008333333333333333 0  2.362608695652174 0 0  2.362608695652174 0.008333333333333333 0  2.370869565217391 0 0  2.370869565217391 0.008333333333333333 0  2.379130434782609 0 0  2.379130434782609 0.008333333333333333 0  2.387391304347826 0 0  2.387391304347826 0.008333333333333333 0  2.395652173913044 0 0  2.395652173913044 0.008333333333333333 0  2.403913043478261 0 0  2.403913043478261 0.008333333333333333 0  2.412173913043478 0 0  2.412173913043478 0.008333333333333333 0  2.420434782608695 0 0  2.420434782608695 0.008333333333333333 0  2.428695652173913 0 0  2.428695652173913 0.008333333333333333 0  2.43695652173913 0 0  2.43695652173913 0.008333333333333333 0  2.445217391304348 0 0  2.445217391304348 0.008333333333333333 0  2.453478260869565 0 0  2.453478260869565 0.008333333333333333 0  2.461739130434782 0 0  2.461739130434782 0.008333333333333333 0  2.47 0 0  2.47 0.008333333333333333 0  2.478260869565217 0 0  2.478260869565217 0.008333333333333333 0  2.486521739130435 0 0  2.486521739130435 0.008333333333333333 0  2.494782608695652 0 0  2.494782608695652 0.008333333333333333 0  2.503043478260869 0 0  2.503043478260869 0.008333333333333333 0  2.511304347826087 0 0  2.511304347826087 0.008333333333333333 0  2.519565217391305 0 0  2.519565217391305 0.008333333333333333 0  2.527826086956522 0 0  2.527826086956522 0.008333333333333333 0  2.536086956521739 0 0  2.536086956521739 0.008333333333333333 0  2.544347826086956 0 0  2.544347826086956 0.008333333333333333 0  2.552608695652174 0 0  2.552608695652174 0.008333333333333333 0  2.560869565217391 0 0  2.560869565217391 0.008333333333333333 0  2.569130434782608 0 0  2.569130434782608 0.008333333333333333 0  2.577391304347826 0 0  2.577391304347826 0.008333333333333333 0  2.585652173913043 0 0  2.585652173913043 0.008333333333333333 0  2.593913043478261 0 0  2.593913043478261 0.008333333333333333 0  2.602173913043478 0 0  2.602173913043478 0.008333333333333333 0  2.610434782608696 0 0  2.610434782608696 0.008333333333333333 0  2.618695652173913 0 0  2.618695652173913 0.008333333333333333 0  2.62695652173913 0 0  2.62695652173913 0.008333333333333333 0  2.635217391304348 0 0  2.635217391304348 0.008333333333333333 0  2.643478260869565 0 0  2.643478260869565 0.008333333333333333 0  2.651739130434783 0.008333333333333333 0  1.908260869565217 0.01666666666666667 0  1.916521739130435 0.01666666666666667 0  1.924782608695652 0.01666666666666667 0  1.933043478260869 0.01666666666666667 0  1.941304347826087 0.01666666666666667 0  1.949565217391304 0.01666666666666667 0  1.957826086956522 0.01666666666666667 0  1.966086956521739 0.01666666666666667 0  1.974347826086956 0.01666666666666667 0  1.982608695652174 0.01666666666666667 0  1.990869565217391 0.01666666666666667 0  1.999130434782608 0.01666666666666667 0  2.007391304347826 0.01666666666666667 0  2.015652173913043 0.01666666666666667 0  2.023913043478261 0.01666666666666667 0  2.032173913043478 0.01666666666666667 0  2.040434782608695 0.01666666666666667 0  2.048695652173913 0.01666666666666667 0  2.05695652173913 0.01666666666666667 0  2.065217391304348 0.01666666666666667 0  2.073478260869565 0.01666666666666667 0  2.081739130434782 0.01666666666666667 0  2.09 0.01666666666666667 0  2.098260869565217 0.01666666666666667 0  2.106521739130435 0.01666666666666667 0  2.114782608695652 0.01666666666666667 0  2.12304347826087 0.01666666666666667 0  2.131304347826087 0.01666666666666667 0  2.139565217391304 0.01666666666666667 0  2.147826086956522 0.01666666666666667 0  2.156086956521739 0.01666666666666667 0  2.164347826086956 0.01666666666666667 0  2.172608695652174 0.01666666666666667 0  2.180869565217391 0.01666666666666667 0  2.189130434782609 0.01666666666666667 0  2.197391304347826 0.01666666666666667 0  2.205652173913043 0.01666666666666667 0  2.213913043478261 0.01666666666666667 0  2.222173913043478 0.01666666666666667 0  2.230434782608695 0.01666666666666667 0  2.238695652173913 0.01666666666666667 0  2.24695652173913 0.01666666666666667 0  2.255217391304348 0.01666666666666667 0  2.263478260869565 0.01666666666666667 0  2.271739130434783 0.01666666666666667 0  2.28 0.01666666666666667 0  2.288260869565217 0.01666666666666667 0  2.296521739130434 0.01666666666666667 0  2.304782608695652 0.01666666666666667 0  2.31304347826087 0.01666666666666667 0  2.321304347826087 0.01666666666666667 0  2.329565217391304 0.01666666666666667 0  2.337826086956521 0.01666666666666667 0  2.346086956521739 0.01666666666666667 0  2.354347826086956 0.01666666666666667 0  2.362608695652174 0.01666666666666667 0  2.370869565217391 0.01666666666666667 0  2.379130434782609 0.01666666666666667 0  2.387391304347826 0.01666666666666667 0  2.395652173913044 0.01666666666666667 0  2.403913043478261 0.01666666666666667 0  2.412173913043478 0.01666666666666667 0  2.420434782608695 0.01666666666666667 0  2.428695652173913 0.01666666666666667 0  2.43695652173913 0.01666666666666667 0  2.445217391304348 0.01666666666666667 0  2.453478260869565 0.01666666666666667 0  2.461739130434782 0.01666666666666667 0  2.47 0.01666666666666667 0  2.478260869565217 0.01666666666666667 0  2.486521739130435 0.01666666666666667 0  2.494782608695652 0.01666666666666667 0  2.503043478260869 0.01666666666666667 0  2.511304347826087 0.01666666666666667 0  2.519565217391305 0.01666666666666667 0  2.527826086956522 0.01666666666666667 0  2.536086956521739 0.01666666666666667 0  2.544347826086956 0.01666666666666667 0  2.552608695652174 0.01666666666666667 0  2.560869565217391 0.01666666666666667 0  2.569130434782608 0.01666666666666667 0  2.577391304347826 0.01666666666666667 0  2.585652173913043 0.01666666666666667 0  2.593913043478261 0.01666666666666667 0  2.602173913043478 0.01666666666666667 0  2.610434782608696 0.01666666666666667 0  2.618695652173913 0.01666666666666667 0  2.62695652173913 0.01666666666666667 0  2.635217391304348 0.01666666666666667 0  2.643478260869565 0.01666666666666667 0  2.651739130434783 0.01666666666666667 0  1.916521739130435 0.025 0  1.924782608695652 0.025 0  1.933043478260869 0.025 0  1.941304347826087 0.025 0  1.949565217391304 0.025 0  1.957826086956522 0.025 0  1.966086956521739 0.025 0  1.974347826086956 0.025 0  1.98260869565217
[...]
<CellData  Scalars="rho_bar"> 
<DataArray  type="Float64"  Name="rho_bar"  format="ascii">9.9964491377205844e-01   9.9960321054503110e-01   9.9952675124382362e-01   9.9957094000008617e-01   9.9948378723025610e-01   9.9954681972178083e-01   9.9945144555514387e-01   9.9952915881045656e-01   9.9942769825296696e-01   9.9951628734026554e-01   9.9941041036465805e-01   9.9950686688888957e-01   9.9939778047773653e-01   9.9949994506995365e-01   9.9938846299610784e-01   9.9949501101581173e-01   9.9938168390606197e-01   9.9949183974825506e-01   9.9937708500029832e-01   9.9949039288057251e-01   9.9937462212779105e-01   9.9949052655977066e-01   9.9937421226214973e-01   9.9949189898296675e-01   9.9937555385122179e-01   9.9949390479159406e-01   9.9937797915259952e-01   9.9949586693775194e-01   9.9938064207440680e-01   9.9949714648616306e-01   9.9938266855650815e-01   9.9949737956319984e-01   9.9938345174280063e-01   9.9949656986666824e-01   9.9938279766288352e-01   9.9949523116669547e-01   9.9938114081630014e-01   9.9949421506320202e-01   9.9937944376578480e-01   9.9949451896723474e-01   9.9937897093308470e-01   9.9949697009072691e-01   9.9938086926078085e-01   9.9950216420459925e-01   9.9938599586538801e-01   9.9951042387551048e-01   9.9939483498381310e-01   9.9952193859908911e-01   9.9940766662427816e-01   9.9953670053841048e-01   9.9942455990759027e-01   9.9955451186942557e-01   9.9944537064453287e-01   9.9957489203153338e-01   9.9946961780968735e-01   9.9959716875692173e-01   9.9949654017136680e-01   9.9962051003954033e-01   9.9952513988121150e-01   9.9964407898606500e-01   9.9955436112211193e-01   9.9966709220483974e-01   9.9958317903613625e-01   9.9968895904404509e-01   9.9961077448643265e-01   9.9970924968901720e-01   9.9963654936763058e-01   9.9972768579393412e-01   9.9966012254902170e-01   9.9974402589950029e-01   9.9968119762462626e-01   9.9975806313805815e-01   9.9969951518885825e-01   9.9976960636630519e-01   9.9971482272808887e-01   9.9977853458965915e-01   9.9972693785632494e-01   9.9978477348313732e-01   9.9973574465923198e-01   9.9978835593877502e-01   9.9974123064469100e-01   9.9978941724591941e-01   9.9974351089380298e-01   9.9978824153933865e-01   9.9974286579068827e-01   9.9978528676334166e-01   9.9973977188432306e-01   9.9978124749908182e-01   9.9973498439365194e-01   9.9977704308456061e-01   9.9972953765670391e-01   9.9977384802720004e-01   9.9972477989644160e-01   9.9977302911224653e-01   9.9972231996340788e-01   9.9977609874660422e-01   9.9972398404485119e-01   9.9978451260422696e-01   9.9973163032936607e-01   9.9979938206099250e-01   9.9974685057917778e-01   9.9982101748677898e-01   9.9977044714424723e-01   9.9984855998019473e-01   9.9980192065348761e-01   9.9987981039946194e-01   9.9983912374439754e-01   9.9991154496303225e-01   9.9987843273224197e-01   9.9994027579604949e-01   9.9991549704475069e-01   9.9996331857153720e-01   9.9994649665735558e-01   9.9997959491105248e-01   9.9996933851756098e-01   9.9998970344470994e-01   9.9998411097395390e-01   9.9999524509347248e-01   9.9999250883543211e-01   9.9999795739713759e-01   9.9999674148368356e-01   9.9999916490062124e-01   9.9999866409460647e-01   9.9999966619998004e-01   9.9999946992138844e-01   9.9999986579448674e-01   9.9999979044879506e-01   9.9999994420914629e-01   9.9999991506727215e-01   9.9999997540129038e-01   9.9999996375182887e-01   9.9999998823576186e-01   9.9999998331836248e-01   9.9999999377905358e-01   9.9999999155056174e-01   9.9999999630506486e-01   9.9999999520901550e-01   9.9999999750467206e-01   9.9999999691762409e-01   9.9999999806744277e-01   9.9999999772762760e-01   9.9999999827505326e-01   9.9999999806847417e-01   9.9999999822330421e-01   9.9999999810228968e-01   9.9999999789287142e-01   9.9999999784721350e-01   9.9999999713872267e-01   9.9999999719315757e-01   9.9999999559032804e-01   9.9999999582684562e-01   9.9999999237669113e-01   9.9999999300191511e-01   9.9999998542423241e-01   9.9999998694199332e-01   9.9999996967428817e-01   9.9999997331441504e-01   9.9999993256454167e-01   9.9999994131512182e-01   9.9999984282177712e-01   9.9999986377596439e-01   9.9999962385356278e-01   9.9999967299861536e-01   9.9999909545311116e-01   9.9999920558116762e-01   9.9999786110295996e-01   9.9999808924396294e-01   9.9999512901193954e-01   9.9999554700096738e-01   9.9998950745175819e-01   9.9999013769565537e-01   9.9997891563773877e-01   9.9997956386181786e-01   9.9996081451278429e-01   9.9996079321875120e-01   9.9993286889516431e-01   9.9993070967594511e-01   9.9989384747322074e-01   9.9988719396100489e-01   9.9984430714312800e-01   9.9983015249590690e-01   9.9976185708846144e-01   9.9874350560967873e-01   9.9865099077333597e-01   9.9755156147532065e-01   9.9858291379565467e-01   9.9741734578181629e-01   9.9853353189742300e-01   9.9732035996149171e-01   9.9849759999104071e-01   9.9725026444596676e-01   9.9847082043205126e-01   9.9719834017638675e-01   9.9845050050606676e-01   9.9715859524846162e-01   9.9843543479520513e-01   9.9712806863858405e-01   9.9842570805023589e-01   9.9710667796653951e-01   9.9842176083439460e-01   9.9709568221626466e-01   9.9842365054441251e-01   9.9709612215326104e-01   9.9843014499350269e-01   9.9710682662032357e-01   9.9843888393227198e-01   9.9712394052668729e-01   9.9844701257726565e-01   9.9714180580535017e-01   9.9845207042137818e-01   9.9715499988357903e-01   9.9845232978468612e-01   9.9715925353051860e-01   9.9844781429676499e-01   9.9715306504435397e-01   9.9844057146536125e-01   9.9713892137863425e-01   9.9843435295200023e-01   9.9712341123000015e-01   9.9843301839780463e-01   9.9711462695829023e-01   9.9843953989922218e-01   9.9711941367487900e-01   9.9845546425771592e-01   9.9714162983041243e-01   9.9848165560316526e-01   9.9718304947592684e-01   9.9851859242061958e-01   9.9724456821301954e-01   9.9856649992246704e-01   9.9732689474807390e-01   9.9862470314231389e-01   9.9742951724135709e-01   9.9869165463523735e-01   9.9755016950474229e-01   9.9876486073362303e-01   9.9768461883476156e-01   9.9884143270651105e-01   9.9782745908504500e-01   9.9891829958939193e-01   9.9797271733671489e-01   9.9899285110085789e-01   9.9811494686190694e-01   9.9906311638983492e-01   9.9824987775635166e-01   9.9912798309742368e-01   9.9837495914922358e-01   9.9918674324155132e-01   9.9848881668934875e-01   9.9923884068910684e-01   9.9859055903802263e-01   9.9928352185959857e-01   9.9867898105461450e-01   9.9932012924899949e-01   9.9875272873054433e-01   9.9934815653706477e-01   9.9881065211288511e-01   9.9936741942003049e-01   9.9885216815847777e-01   9.9937791401673859e-01   9.9887711094896736e-01   9.9938002460856179e-01   9.9888587001880402e-01   9.9937453927593012e-01   9.9887952705619731e-01   9.9936291551583700e-01   9.9886025106021303e-01   9.9934731854810732e-01   9.9883152107881190e-01   9.9933075515865621e-01   9.9879837661118975e-01   9.9931690698605125e-01   9.9876722682765928e-01   9.9931014346789049e-01   9.9874577711864598e-01   9.9931527436961887e-01   9.9874273370966160e-01   9.9933724710962168e-01   9.9876748564568762e-01   9.9937999602990413e-01   9.9882858916118256e-01   9.9944499610746151e-01   9.9893117649040664e-01   9.9952977952883426e-01   9.9907385900054491e-01   9.9962749124149697e-01   9.9924701173231367e-01   9.9972762137310223e-01   9.9943312659178341e-01   9.9981852236514990e-01   9.9961028908038108e-01   9.9989097578641672e-01   9.9975841805658083e-01   9.9994129202870374e-01   9.9986616679436247e-01   9.9997163274509759e-01   9.9993391510447949e-01   9.9998757961012630e-01   9.9997073971078321e-01   9.9999497729647258e-01   9.9998819466951439e-01   9.9999807370798155e-01   9.9999554822552383e-01   9.9999927753275653e-01   9.9999838043156941e-01   9.9999972660635583e-01   9.9999941211935950e-01   9.9999989248875421e-01   9.9999978011866009e-01   9.9999995488341809e-01   9.9999991276822509e-01   9.9999997932039097e-01   9.9999996235233424e-01   9.9999998944069157e-01   9.9999998193920725e-01   9.9999999389531413e-01   9.9999999019532060e-01   9.9999999595364042e-01   9.9999999389129435e-01   9.9999999689757024e-01   9.9999999558654029e-01   9.9999999723457000e-01   9.9999999627850056e-01   9.9999999713037335e-01   9.9999999632817127e-01   9.9999999654194560e-01   9.9999999576653698e-01   9.9999999518936422e-01   9.9999999432493136e-01   9.9999999234636949e-01   9.9999999123099048e-01   9.9999998624546405e-01   9.9999998456657235e-01   9.9999997249646089e-01   9.9999996951745451e-01   9.9999993984751767e-01   9.9999993358374828e-01   9.9999985881405307e-01   9.9999984337982317e-01   9.9999965159296278e-01   9.9999960844067237e-01   9.9999911570477962e-01   9.9999898495282902e-01   9.9999774442147871e-01   9.9999733497669752e-01   9.9999435557220584e-01   9.9999308644877638e-01   9.9998646311146910e-01   9.9998271233929081e-01   9.9996952013849050e-01   9.9995926720301542e-01   9.9993654854946379e-01   9.9991117516461026e-01   9.9987895598258447e-01   9.9982276294589145e-01   9.9978892090366156e-01   9.9967783028568213e-01   9.9966264128827564e-01   9.9946574211866812e-01   9.9950263262092609e-01   9.9918702438528229e-01   9.9931759771568773e-01   9.9885490956747014e-01   9.8304292232380630e-01   9.8239119837026068e-01   9.5363528687416521e-01   9.8193110868989564e-01   9.5241781964263106e-01   9.8159697487505415e-01   9.5155287464681215e-01   9.8133378418803185e-01   9.5088834981607795e-01   9.8110955434845482e-01   9.5031543169364374e-01   9.8092525942689879e-01   9.4981013041793672e-01   9.8080000294163183e-01   9.4942074051328507e-01   9.8075868883022288e-01   9.4922567237643596e-01   9.8081604307556669e-01   9.4929026053729693e-01   9.8095690698503457e-01   9.4961554499008494e-01   9.8113275881591766e-01   9.5010031635021686e-01   9.8129197286058523e-01   9.5059310525718155e-01   9.8138796432188768e-01   9.5095236930223281e-01   9.8138483580730451e-01   9.5106161800017275e-01   9.8127440913576935e-01   9.5085768545602800e-01   9.8109794622170499e-01   9.5039759322860085e-01   9.8093106483693160e-01   9.4986482773726166e-01   9.8084947841726033e-01   9.4948886641443442e-01   9.8089515423606044e-01   9.4943238632991311e-01   9.8107804667397336e-01   9.4975070425390429e-01   9.8139670728987582e-01   9.5043556013484110e-01   9.8186055819622597e-01   9.5149331043156282e-01   9.8247870891343791e-01   9.5295507553619230e-01   9.8324777778286632e-01   9.5483522075151295e-01   9.8414440208158094e-01   9.5709594337407178e-01   9.8513203424478701e-01   9.5965236974885826e-01   9.8616446569829441e-01   9.6238644055575850e-01   9.8719440646658885e-01   9.6516699920038207e-01   9.8818020331588718e-01   9.6786891049129520e-01   9.8909690581045884e-01   9.7040351771701527e-01   9.8993459395385153e-01   9.7272966180904452e-01   9.9069270466113557e-01   9.7484241492834012e-01   9.9136743457059928e-01   9.7674049488888171e-01   9.9194767421816576e-01   9.7840236004238246e-01   9.9242000059517510e-01   9.7978880130159440e-01   9.9277728512177188e-01   9.8086983152422957e-01   9.9301624484195838e-01   9.8163136083651215e-01   9.9313627199314203e-01   9.8206875102930202e-01   9.9313885683912861e-01   9.8218152042449758e-01   9.9303212574226618e-01   9.8198174206781186e-01   9.9283242108674574e-01   9.8150211154228639e-01   9.9256796090052357e-01   9.8080513530193036e-01   9.9227726723997578e-01   9.7998425349004936e-01   9.9200785102525990e-01   9.7915941002960105e-01   9.9181291386235959e-01   9.7846745208067520e-01   9.9175405104599312e-01   9.7806394086571824e-01   9.9190127709390963e-01   9.7813092153691639e-01   9.9232085035453599e-01   9.7886468583892605e-01   9.9304696127396230e-01   9.8041229305241395e-01   9.9406095446809262e-01   9.8279879553851535e-01   9.9528174015988802e-01   9.8588317844866225e-01   9.9657194805855254e-01   9.8935305072364099e-01   9.9776314926351517e-01   9.9276218869306254e-01   9.9871011041987590e-01   9.9564975736194050e-01   9.9934933167971995e-01   9.9772244845802949e-01   9.9971324279128082e-01   9.9896842119752094e-01   9.9988833408358824e-01   9.9959378321230663e-01   9.9996060277538679e-01   9.9985815360311825e-01   9.9998694792065879e-01   9.9995455449843229e-01   9.9999577393512373e-01   9.9998605666678009e-01   9.9999861031078596e-01   9.9999571958122635e-01   9.9999951990229852e-01   9.9999863260904165e-01   9.9999982056903114e-01   9.9999953005663411e-01   9.9999992561499107e-01   9.9999982129490506e-01   9.9999996506143984e-01   9.9999992300794605e-01   9.9999998108231258e-01   9.9999996167809135e-01   9.9999998803138879e-01   9.9999997762025383e-01   9.9999999106819626e-01   9.9999998449179273e-01   9.9999999209466672e-01   9.9999998715842242e-01   9.9999999169169107e-01   9.9999998726046979e-01   9.9999998966023840e-01   9.9999998488446318e-01   9.9999998486623209e-01   9.9999997867830470e-01   9.9999997422252540e-01   9.9999996460195872e-01   9.9999994962089644e-01   9.9999993179216717e-01   9.9999988893508418e-01   9.9999985006788406e-01   9.9999972909499291e-01   9.9999963141272408e-01   9.9999928413697903e-01   9.9999900831313993e-01   9.9999799676420587e-01   9.9999714702984255e-01   9.9999420655498272e-01   9.9999143884297648e-01   9.9998314038445379e-01   9.9997391738369135e-01   9.9995204872341348e-01   9.9992168746627308e-01   9.9987065008750287e-01   9.9977548775233782e-01   9.9967780037484444e-01   9.9940348009305613e-01   9.9927312976745519e-01   9.9856512131656150e-01   9.9852891533907340e-01   9.9691721515194187e-01   9.9733066897635714e-01   9.9410433009043320e-01   9.9563213688895524e-01   9.8991854610904795e-01   9.9349229113906945e-01   9.8444009255907805e-01   9.9106236322673580e-01   9.7804886330804264e-01   9.7128391163557914e-01   6.2120393056405421e-01   6.1769005546863565e-01   3.1194845660593618e-01   6.1521761458660751e-01   3.0964104331868719e-01   6.1310515456834214e-01   3.0781826286442621e-01   6.1094926040215181e-01   3.0594912900478161e-01   6.0888319834485227e-01   3.0395515231134951e-01   6.0732582634049370e-01   3.0221377667933930e-01   6.0672020203280186e-01   3.0120173600791056e-01   6.0746524883583097e-01   3.0137278909076742e-01   6.0949891506234866e-01   3.0292100564280283e-01   6.1212246771138645e-01   3.0542181995448103e-01   6.1456774166338402e-01   3.0805839364897730e-01   6.1617016829699978e-01   3.1011190965565005e-01   6.1628248166970334e-01   3.1090181734450018e-01   6.1462669275701953e-01   3.0992348051198604e-01   6.1174674003705776e-01   3.0734768211384961e-01   6.0885125469087442e-01   3.0420667086070713e-01   6.0709251570770595e-01   3.0178643676900524e-01   6.0702273629932502e-01   3.0091405225587065e-01   6.0858352797703430e-01   3.0170136649784174e-01   6.1159213891299247e-01   3.0391250041328288e-01   6.1620468001234607e-01   3.0751638662202813e-01   6.2278440022727755e-01   3.1287956542420103e-01   6.3155024423859352e-01   3.2041001067117791e-01   6.4248691400482116e-01   3.3033318450385790e-01   6.5535244534619885e-01   3.4265096385939708e-01   6.6973066248379909e-01   3.5718810162652503e-01   6.8499933865305418e-01   3.7353014279788332e-01   7.0046245918280703e-01   3.9103749498879126e-01   7.1558451441160342e-01   4.0903134386900702e-01   7.3015537495458738e-01   4.2710843021275119e-01   7.4419336542409686e-01   4.4521064193998505e-01   7.5764692303079562e-01   4.6338642150336345e-01   7.7000038478087185e-01   4.8118498994307185e-01   7.8053737426311021e-01   4.9749752225467586e-01   7.8875420776489458e-01   5.1113769201984693e-01   7.9434665704065832e-01   5.2125963662529917e-01   7.9705641363650703e-01   5.2719883804907475e-01   7.9673104866990796e-01   5.2845548246330620e-01   7.9348254681217167e-01   5.2494158380212907e-01   7.8776798496073519e-01   5.1722962282064366e-01   7.8039512383766263e-01   5.0652620109312463e-01   7.7240595175875926e-01   4.9447166373270529e-01   7.6484449779886965e-01   4.8270579339892200e-01   7.5867541689240836e-01   4.7260104997616892e-01   7.5488984354164101e-01   4.6532387509460693e-01   7.5484942228153651e-01   4.6231513597588353e-01   7.6023351539090833e-01   4.6563608211834429e-01   7.7263311617305030e-01   4.7781767739305214e-01   7.9323417764235804e-01   5.0166235851891350e-01   8.2264315678587752e-01   5.4053533711285739e-01   8.6014750884543667e-01   5.9839044013589315e-01   9.0225378179079208e-01   6.7787500046779392e-01   9.4190859135393579e-01   7.7448325827154862e-01   9.7157745330924805e-01   8.7022554673664665e-01   9.8865981814003268e-01   9.4126109236536970e-01   9.9624694918253875e-01   9.7912307639399543e-01   9.9892635190687762e-01   9.9393371806876696e-01   9.9971879703289501e-01   9.9846337181807243e-01   9.9992832546615151e-01   9.9963539862808848e-01   9.9998125809041982e-01   9.9991339966774628e-01   9.9999475834600038e-01   9.9997828997095350e-01   9.9999837875120423e-01   9.9999401897423779e-01   9.9999942968452715e-01   9.9999812951410516e-01   9.9999976641049126e-01   9.9999931777734019e-01   9.9999988643539717e-01   9.9999970325648402e-01   9.9999993347400262e-01   9.9999984333585479e-01   9.9999995253856844e-01   9.9999989830169445e-01   9.9999995851752388e-01   9.9999991818003875e-01   9.9999995552766174e-01   9.9999991819046752e-01   9.9999994172605566e-01   9.9999989858936078e-01   9.9999990741712896e-01   9.9999984529678343e-01   9.9999982390764042e-01   9.9999971313455827e-01   9.9999960582191727e-01   9.9999936447440219e-01   9.9999898285347677e-01   9.9999835363085654e-01   9.9999704293877434e-01   9.9999513184829203e-01   9.9999055015812344e-01   9.9998398846325798e-01   9.9996766436347329e-01   9.9994299402995235e-01   9.9988481672621987e-01   9.9978656594129356e-01   9.9958646614688296e-01   9.9918652588406720e-01   9.9856181014181855e-01   9.9696827812940270e-01   9.9536808821508149e-01   9.8948356410409111e-01   9.8677668058663703e-01   9.6787265872216588e-01   9.6770631976070598e-01   9.1811045213357190e-01   9.3389362248153152e-01   8.3209550948356426e-01   8.8635242327814634e-01   7.2222801522563806e-01   8.3192371911942442e-01   6.1332350584932405e-01   7.7852020181997750e-01   5.2193353971583445e-01   7.3108052227079345e-01   4.5162269975478153e-01   6.9126329243891171e-01   3.9940779208426730e-01   3.6097820092197175e-01   2.1465733796612332e-02   2.1178749774303961e-02   4.4693511040208396e-03   2.0928647746752928e-02   4.3949816386720545e-03   2.0645701549726909e-02   4.3219399105165583e-03   2.0339119271124036e-02   4.2425981687818923e-03   2.0076928015206441e-02   4.1680334012142743e-03   1.9930106341007361e-02   4.1139364337310375e-03   1.9961871919360885e-02   4.0931680766223303e-03   2.0194972545644493e-02   4.1164541812399981e-03   2.0552040781442876e-02   4.1775227658668980e-03   2.0912151435134002e-02   4.2503582123694017e-03   2.1172231838937489e-02   4.3112946834951990e-03   2.1229269564819474e-02   4.3399429500581210e-03   2.1013169579058792e-02   4.3159076837355499e-03   2.0577550235095450e-02   4.2365829295463826e-03   2.0100668595105835e-02   4.1304776034920762e-03   1.9768893694214244e-02   4.0408195314196697e-03   1.9672875783795288e-02   3.9969678113722373e-03   1.9800719422898457e-02   4.0042379320654577e-03   2.0105742576745841e-02   4.0525067694167924e-03   2.0594467950357714e-02   4.1355451845542426e-03   2.1338528045131769e-02   4.2638886200671031e-03   2.2418509580562806e-02   4.4559983133877420e-03   2.3895931257312097e-02   4.7268270749976828e-03   2.5815131526854846e-02   5.0878330276337719e-03   2.8203322418748723e-02   5.5473235654655848e-03   3.1049537359134405e-02   6.1092781954471568e-03   3.4288552114533487e-02   6.7663278329783902e-03   3.7834455357490596e-02   7.5019717513430699e-03   4.1643095893031758e-02   8.3021755493079014e-03   4.5746224940868309e-02   9.1686714810373035e-03   5.0196007380293443e-02   1.0117514709520607e-02   5.4876190003524242e-02   1.1151767650537624e-02   5.9414410476016463e-02   1.2211674093389536e-02   6.3368839351023470e-02   1.3192869411901899e-02   6.6361483575294394e-02   1.3997617021160464e-02   6.8059065284269776e-02   1.4542040684755514e-02   6.82105609