<?xml version="1.0"?>
<VTKFile type="UnstructuredGrid"  version="0.1"  >
<UnstructuredGrid>
<Piece  NumberOfPoints="2452" NumberOfCells="4705">
<Points>
<DataArray  type="Float64"  NumberOfComponents="3"  format="ascii">0.2230434782608696 0 0  0.2313043478260869 0 0  0.2313043478260869 0.008333333333333333 0  0.2395652173913043 0 0  0.2395652173913043 0.008333333333333333 0  0.2478260869565218 0 0  0.2478260869565218 0.008333333333333333 0  0.2560869565217391 0 0  0.2560869565217391 0.008333333333333333 0  0.2643478260869565 0 0  0.2643478260869565 0.008333333333333333 0  0.2726086956521739 0 0  0.2726086956521739 0.008333333333333333 0  0.2808695652173913 0 0  0.2808695652173913 0.008333333333333333 0  0.2891304347826087 0 0  0.2891304347826087 0.008333333333333333 0  0.2973913043478261 0 0  0.2973913043478261 0.008333333333333333 0  0.3056521739130434 0 0  0.3056521739130434 0.008333333333333333 0  0.3139130434782609 0 0  0.3139130434782609 0.008333333333333333 0  0.3221739130434783 0 0  0.3221739130434783 0.008333333333333333 0  0.3304347826086956 0 0  0.3304347826086956 0.008333333333333333 0  0.338695652173913 0 0  0.338695652173913 0.008333333333333333 0  0.3469565217391304 0 0  0.3469565217391304 0.008333333333333333 0  0.3552173913043478 0 0  0.3552173913043478 0.008333333333333333 0  0.3634782608695652 0 0  0.3634782608695652 0.008333333333333333 0  0.3717391304347826 0 0  0.3717391304347826 0.008333333333333333 0  0.3799999999999999 0 0  0.3799999999999999 0.008333333333333333 0  0.3882608695652174 0 0  0.3882608695652174 0.008333333333333333 0  0.3965217391304348 0 0  0.3965217391304348 0.008333333333333333 0  0.4047826086956521 0 0  0.4047826086956521 0.008333333333333333 0  0.4130434782608696 0.008333333333333333 0  0.2395652173913043 0.01666666666666667 0  0.2478260869565218 0.01666666666666667 0  0.2560869565217391 0.01666666666666667 0  0.2643478260869565 0.01666666666666667 0  0.2726086956521739 0.01666666666666667 0  0.2808695652173913 0.01666666666666667 0  0.2891304347826087 0.01666666666666667 0  0.2973913043478261 0.01666666666666667 0  0.3056521739130434 0.01666666666666667 0  0.3139130434782609 0.01666666666666667 0  0.3221739130434783 0.01666666666666667 0  0.3304347826086956 0.01666666666666667 0  0.338695652173913 0.01666666666666667 0  0.3469565217391304 0.01666666666666667 0  0.3552173913043478 0.01666666666666667 0  0.3634782608695652 0.01666666666666667 0  0.3717391304347826 0.01666666666666667 0  0.3799999999999999 0.01666666666666667 0  0.3882608695652174 0.01666666666666667 0  0.3965217391304348 0.01666666666666667 0  0.4047826086956521 0.01666666666666667 0  0.4130434782608696 0.01666666666666667 0  0.4213043478260869 0.01666666666666667 0  0.2478260869565218 0.025 0  0.2560869565217391 0.025 0  0.2643478260869565 0.025 0  0.2726086956521739 0.025 0  0.2808695652173913 0.025 0  0.2891304347826087 0.025 0  0.2973913043478261 0.025 0  0.3056521739130434 0.025 0  0.3139130434782609 0.025 0  0.3221739130434783 0.025 0  0.3304347826086956 0.025 0  0.338695652173913 0.025 0  0.3469565217391304 0.025 0  0.3552173913043478 0.025 0  0.3634782608695652 0.025 0  0.3717391304347826 0.025 0  0.3799999999999999 0.025 0  0.3882608695652174 0.025 0  0.3965217391304348 0.025 0  0.4047826086956521 0.025 0  0.4130434782608696 0.025 0  0.4213043478260869 0.025 0  0.4295652173913043 0.025 0  0.2560869565217391 0.03333333333333333 0  0.2643478260869565 0.03333333333333333 0  0.2726086956521739 0.03333333333333333 0  0.2808695652173913 0.03333333333333333 0  0.2891304347826087 0.03333333333333333 0  0.2973913043478261 0.03333333333333333 0  0.3056521739130434 0.03333333333333333 0  0.3139130434782609 0.03333333333333333 0  0.3221739130434783 0.03333333333333333 0  0.3304347826086956 0.03333333333333333 0  0.338695652173913 0.03333333333333333 0  0.3469565217391304 0.03333333333333333 0  0.3552173913043478 0.03333333333333333 0  0.3634782608695652 0.03333333333333333 0  0.3717391304347826 0.03333333333333333 0  0.3799999999999999 0.03333333333333333 0  0.3882608695652174 0.03333333333333333 0  0.3965217391304348 0.03333333333333333 0  0.4047826086956521 0.03333333333333333 0  0.4130434782608696 0.03333333333333333 0  0.4213043478260869 0.03333333333333333 0  0.4295652173913043 0.03333333333333333 0  0.4378260869565217 0.03333333333333333 0  0.2643478260869565 0.04166666666666666 0  0.2560869565217391 0.04166666666666666 0  0.2726086956521739 0.04166666666666666 0  0.2808695652173913 0.04166666666666666 0  0.2891304347826087 0.04166666666666666 0  0.2973913043478261 0.04166666666666666 0  0.3056521739130434 0.04166666666666666 0  0.3139130434782609 0.04166666666666666 0  0.3221739130434783 0.04166666666666666 0  0.3304347826086956 0.04166666666666666 0  0.338695652173913 0.04166666666666666 0  0.3469565217391304 0.04166666666666666 0  0.3552173913043478 0.04166666666666666 0  0.3634782608695652 0.04166666666666666 0  0.3717391304347826 0.04166666666666666 0  0.3799999999999999 0.04166666666666666 0  0.3882608695652174 0.04166666666666666 0  0.3965217391304348 0.04166666666666666 0  0.4047826086956521 0.04166666666666666 0  0.4130434782608696 0.04166666666666666 0  0.4213043478260869 0.04166666666666666 0  0.4295652173913043 0.04166666666666666 0  0.4378260869565217 0.04166666666666666 0  0.4460869565217391 0.04166666666666666 0  0.2643478260869565 0.05 0  0.2726086956521739 0.05 0  0.2808695652173913 0.05 0  0.2891304347826087 0.05 0  0.2973913043478261 0.05 0  0.3056521739130434 0.05 0  0.3139130434782609 0.05 0  0.3221739130434783 0.05 0  0.3304347826086956 0.05 0  0.338695652173913 0.05 0  0.3469565217391304 0.05 0  0.3552173913043478 0.05 0  0.3634782608695652 0.05 0  0.3717391304347826 0.05 0  0.3799999999999999 0.05 0  0.3882608695652174 0.05 0  0.3965217391304348 0.05 0  0.4047826086956521 0.05 0  0.4130434782608696 0.05 0  0.4213043478260869 0.05 0  0.4295652173913043 0.05 0  0.4378260869565217 0.05 0  0.4460869565217391 0.05 0  0.4543478260869565 0.05 0  0.2726086956521739 0.05833333333333333 0  0.2643478260869565 0.05833333333333333 0  0.2808695652173913 0.05833333333333333 0  0.2891304347826087 0.05833333333333333 0  0.2973913043478261 0.05833333333333333 0  0.3056521739130434 0.05833333333333333 0  0.3139130434782609 0.05833333333333333 0  0.3221739130434783 0.05833333333333333 0  0.3304347826086956 0.05833333333333333 0  0.338695652173913 0.05833333333333333 0  0.3469565217391304 0.05833333333333333 0  0.3552173913043478 0.05833333333333333 0  0.3634782608695652 0.05833333333333333 0  0.3717391304347826 0.05833333333333333 0  0.3799999999999999 0.05833333333333333 0  0.3882608695652174 0.05833333333333333 0  0.3965217391304348 0.05833333333333333 0  0.4047826086956521 0.05833333333333333 0  0.4130434782608696 0.05833333333333333 0  0.4213043478260869 0.05833333333333333 0  0.4295652173913043 0.05833333333333333 0  0.4378260869565217 0.05833333333333333 0  0.4460869565217391 0.05833333333333333 0  0.4543478260869565 0.05833333333333333 0  0.4626086956521739 0.05833333333333333 0  0.2726086956521739 0.06666666666666667 0  0.2643478260869565 0.06666666666666667 0  0.2808695652173913 0.06666666666666667 0  0.2891304347826087 0.06666666666666667 0  0.2973913043478261 0.06666666666666667 0  0.3056521739130434 0.06666666666666667 0  0.3139130434782609 0.06666666666666667 0  0.3221739130434783 0.06666666666666667 0  0.3304347826086956 0.06666666666666667 0  0.338695652173913 0.06666666666666667 0  0.3469565217391304 0.06666666666666667 0  0.3552173913043478 0.06666666666666667 0  0.3634782608695652 0.06666666666666667 0  0.3717391304347826 0.06666666666666667 0  0.3799999999999999 0.06666666666666667 0  0.3882608695652174 0.06666666666666667 0  0.3965217391304348 0.06666666666666667 0  0.4047826086956521 0.06666666666666667 0  0.4130434782608696 0.06666666666666667 0  0.4213043478260869 0.06666666666666667 0  0.4295652173913043 0.06666666666666667 0  0.4378260869565217 0.06666666666666667 0  0.4460869565217391 0.06666666666666667 0  0.4543478260869565 0.06666666666666667 0  0.4626086956521739 0.06666666666666667 0  0.4708695652173913 0.06666666666666667 0  0.2726086956521739 0.075 0  0.2643478260869565 0.075 0  0.2808695652173913 0.075 0  0.2891304347826087 0.075 0  0.2973913043478261 0.075 0  0.3056521739130434 0.075 0  0.3139130434782609 0.075 0  0.3221739130434783 0.075 0  0.3304347826086956 0.075 0  0.338695652173913 0.075 0  0.3469565217391304 0.075 0  0.3552173913043478 0.075 0  0.3634782608695652 0.075 0  0.3717391304347826 0.075 0  0.3799999999999999 0.075 0  0.3882608695652174 0.075 0  0.3965217391304348 0.075 0  0.4047826086956521 0.075 0  0.4130434782608696 0.075 0  0.4213043478260869 0.075 0  0.4295652173913043 0.075 0  0.4378260869565217 0.075 0  0.4460869565217391 0.075 0  0.4543478260869565 0.075 0  0.4626086956521739 0.075 0  0.4708695652173913 0.075 0  0.4791304347826086 0.075 0  0.2726086956521739 0.08333333333333333 0  0.2643478260869565 0.08333333333333333 0  0.2808695652173913 0.08333333333333333 0  0.2891304347826087 0.08333333333333333 0  0.2973913043478261 0.08333333333333333 0  0.3056521739130434 0.08333333333333333 0  0.3139130434782609 0.08333333333333333 0  0.3221739130434783 0.08333333333333333 0  0.3304347826086956 0.08333333333333333 0  0.338695652173913 0.08333333333333333 0  0.3469565217391304 0.08333333333333333 0  0.3552173913043478 0.08333333333333333 0  0.3634782608695652 0.08333333333333333 0  0.3717391304347826 0.08333333333333333 0  0.3799999999999999 0.08333333333333333 0  0.3882608695652174 0.08333333333333333 0  0.3965217391304348 0.08333333333333333 0  0.4047826086956521 0.08333333333333333 0  0.4130434782608696 0.08333333333333333 0  0.4213043478260869 0.08333333333333333 0  0.4295652173913043 0.08333333333333333 0  0.4378260869565217 0.08333333333333333 0  0.4460869565217391 0.08333333333333333 0  0.4543478260869565 0.08333333333333333 0  0.4626086956521739 0.08333333333333333 0  0.4708695652173913 0.08333333333333333 0  0.4791304347826086 0.0833333
[...]
<CellData  Scalars="sigma_m"> 
<DataArray  type="Float64"  Name="sigma_m"  format="ascii">1.9247972383945502e+07   1.7314494377111550e+07   1.4935703528884921e+07   1.5249967866878808e+07   1.3688113691841390e+07   1.3122518192059219e+07   1.2363905890427884e+07   1.1047930944074802e+07   1.1016952101159859e+07   9.1411527399139274e+06   9.7289542367414925e+06   7.4647548231175942e+06   8.5623735523472205e+06   5.9903535304827308e+06   7.4934322691027028e+06   4.6736613412467334e+06   6.4688192372809649e+06   3.5302732183926706e+06   5.5082026958688339e+06   2.6110817740141619e+06   4.6904731401847610e+06   1.9440258092919688e+06   4.0776472847837787e+06   1.5062829421369981e+06   3.6136460543781221e+06   1.2174335708488391e+06   3.2417937984396592e+06   1.0086827782975816e+06   2.9619798425376038e+06   8.5859194053182309e+05   2.7913089408862251e+06   8.0508424955170345e+05   2.7068190646738224e+06   8.8226650112099119e+05   2.6858435146684591e+06   1.0820295086488789e+06   2.7234261245175735e+06   1.3834824598840675e+06   2.8277914732496012e+06   1.7850732356490386e+06   3.0116877059167139e+06   2.3040371490160064e+06   3.2908693238119162e+06   3.6794670942281950e+06   1.4648781379737616e+07   1.3577404053996751e+07   1.2352235722324206e+07   1.2454986298451228e+07   1.1847823983204637e+07   1.1311087728047812e+07   1.1224168685506448e+07   1.0201171391702639e+07   1.0552206778056353e+07   9.1855619916425310e+06   9.9441154428684507e+06   8.2468378705653436e+06   9.3941050872201603e+06   7.3202377549405256e+06   8.7558196782187466e+06   6.3845276839666739e+06   7.9964303857925124e+06   5.4894749740620237e+06   7.2380644354798710e+06   4.7269677622309346e+06   6.6279057240963541e+06   4.1155763283819384e+06   6.1174028775150031e+06   3.6066821570078093e+06   5.6160573956128405e+06   3.1845790416500331e+06   5.1489486772807445e+06   2.8784737677719225e+06   4.7847506047887411e+06   2.7001762821361520e+06   4.5157478278331961e+06   2.6307017793875118e+06   4.3074506751602571e+06   2.6520693058365574e+06   4.1484390979212304e+06   2.7644590171301099e+06   4.0493249418575475e+06   2.9820029546240969e+06   4.0273013312849528e+06   3.3251043633196154e+06   4.1035645190965435e+06   3.8074220189552526e+06   4.2937638113434575e+06   4.5984858811338851e+06   1.1845226598714260e+07   1.1585624116051083e+07   1.1034544246541509e+07   1.1246581205036705e+07   1.1198313585589290e+07   1.0848590175271286e+07   1.1203997873995751e+07   1.0474358674662711e+07   1.1161053233343579e+07   1.0092789445367744e+07   1.1174763741094390e+07   9.5735379644200709e+06   1.1031203809480038e+07   8.8732936468445119e+06   1.0538496441763535e+07   8.0815173161484394e+06   9.8132244988644589e+06   7.3773054365323521e+06   9.1959201177614611e+06   6.7620840449147206e+06   8.6539011273370776e+06   6.1417712998446440e+06   8.0039908535094913e+06   5.5312459919509711e+06   7.2981929585354757e+06   5.0165804835483124e+06   6.6907933204770479e+06   4.6215389647531100e+06   6.1967145895055691e+06   4.3171466935339440e+06   5.7584371581771020e+06   4.0868433201561910e+06   5.3568591333874408e+06   3.9418073520592884e+06   5.0070860464249561e+06   3.9092007027994972e+06   4.7339665621552644e+06   4.0241013200943982e+06   4.5751797045970960e+06   4.3075534791986914e+06   4.5644233504132396e+06   4.7483919045414692e+06   4.7071489823726183e+06   4.9759861887971349e+06   1.0204462782064425e+07   1.0788580583165303e+07   1.0856147633924613e+07   1.1226000264598483e+07   1.2071315138085477e+07   1.1521380518320162e+07   1.2590891980669357e+07   1.1688279136429567e+07   1.2785744079180010e+07   1.1668092854873633e+07   1.3281106264749071e+07   1.1339541000356033e+07   1.3514366354652574e+07   1.0684143951462170e+07   1.2795035830872182e+07   1.0033338767577337e+07   1.1908295088812860e+07   9.4395257134986967e+06   1.1307247358282071e+07   8.7055781424711738e+06   1.0502764992954861e+07   7.8700156282892441e+06   9.4958493465538155e+06   7.1086741091470486e+06   8.5702899952713829e+06   6.4730266533398675e+06   7.8109840675951876e+06   5.9096877477867883e+06   7.1080233804268101e+06   5.3952572267031847e+06   6.4291191768987868e+06   4.9475648121197307e+06   5.7903014555447334e+06   4.6044189784117760e+06   5.2178229437142331e+06   4.4244808543332275e+06   4.7686785939093558e+06   4.4577571958660278e+06   4.5131015977960788e+06   4.7053920236894321e+06   4.4822226165720746e+06   5.1158437928054780e+06   4.6466605320488447e+06   4.9305115760775320e+06   1.0396670217712136e+07   9.9539485995879900e+06   1.2169889222977327e+07   1.3299630495088428e+07   1.3225311797855513e+07   1.5649313036512347e+07   1.3111305009595521e+07   1.2223656430145027e+07   1.3682020841212949e+07   1.5321262711575709e+07   1.4181465413970992e+07   1.6725059218141615e+07   1.4006188403024163e+07   1.8587779222603127e+07   1.2944761995578319e+07   1.4453068880482079e+07   1.2287607955188200e+07   1.3981184702266125e+07   1.1426154287970457e+07   1.3181954036976542e+07   1.0336302624602783e+07   1.1986222343482057e+07   9.2547409124085326e+06   1.0525178170957668e+07   8.3388559039996490e+06   9.4228896578633972e+06   7.4883720805283301e+06   8.4228117804792393e+06   6.6678522558621783e+06   7.4556200707997065e+06   5.8948564099551681e+06   6.5209450150717460e+06   5.2034294676151341e+06   5.6291088694411796e+06   4.6650094125862308e+06   4.8380190309130149e+06   4.3698240418223292e+06   4.2646199906901624e+06   4.3613234429277750e+06   3.9960005758064184e+06   4.6002014398545455e+06   4.0331116103861029e+06   4.9888432442335859e+06   4.2786823965908708e+06   4.5850265683307629e+06   2.9976286480551384e-01   4.7758189389555272e-01   9.0570368535760430e-09   1.1622962409143966e+01   6.4044396423609205e-08   4.9919655177523418e+03   6.6326144487223003e-06   6.4281519226651201e+06   1.7489599558788902e-02   1.4390975297077160e+07   5.2726509939809841e+02   1.7173103391354084e+07   1.2986464354569569e+07   1.6174282049691239e+07   1.8950292092510182e+07   1.5338930951228982e+07   1.5074224230018264e+07   1.4097736607228952e+07   1.4069185760437438e+07   1.3321181590160156e+07   1.6412124210571641e+07   1.1641898924369618e+07   1.2646127056254476e+07   1.0312671650684012e+07   1.1019180861816080e+07   9.1170079272363055e+06   9.7153756482198481e+06   7.9816196186344121e+06   8.5081225550920498e+06   6.8989317691914178e+06   7.3245318266597530e+06   5.8771607259805342e+06   6.1635368303559851e+06   4.9631681570548732e+06   5.0308013406085884e+06   4.2674086359321186e+06   4.0791965843593017e+06   3.8899190285456493e+06   3.4582417523177988e+06   3.8537116415704484e+06   3.2617082924335659e+06   4.0734433592375778e+06   3.4281969944647350e+06   4.4084419110513749e+06   3.7376227518439954e+06   3.9904263143264567e+06   0.0000000000000000e+00   0.0000000000000000e+00   0.0000000000000000e+00   0.0000000000000000e+00   0.0000000000000000e+00   0.0000000000000000e+00   0.0000000000000000e+00   0.0000000000000000e+00   0.0000000000000000e+00   0.0000000000000000e+00   0.0000000000000000e+00   0.0000000000000000e+00   1.4537982347414015e-05   0.0000000000000000e+00   1.0026641263263689e+03   2.1230149270828652e-09   1.1412373375219816e+07   4.5065171896935241e-01   1.6218936303878402e+07   1.3417683427071024e+07   1.4624465030415926e+07   1.5369684294075828e+07   1.2382498336843332e+07   1.2328780306535730e+07   1.0715586097561721e+07   1.0793653162616480e+07   9.3333791463035624e+06   9.6482146616769936e+06   8.0129986521433778e+06   8.2721623891797150e+06   6.7672398022313891e+06   6.9979704564679712e+06   5.5556523989527514e+06   5.6164200882473672e+06   4.4780945887991367e+06   4.3281200761850430e+06   3.6460242706753383e+06   3.2941200158006018e+06   3.1461190792351440e+06   2.6758648475093399e+06   2.9973773232903266e+06   2.5865223310295870e+06   3.0944961639089263e+06   2.8122260635375516e+06   3.3051780872824485e+06   3.0597321890821815e+06   3.2099659412404001e+06   0.0000000000000000e+00   0.0000000000000000e+00   0.0000000000000000e+00   0.0000000000000000e+00   0.0000000000000000e+00   0.0000000000000000e+00   0.0000000000000000e+00   0.0000000000000000e+00   0.0000000000000000e+00   0.0000000000000000e+00   0.0000000000000000e+00   0.0000000000000000e+00   0.0000000000000000e+00   0.0000000000000000e+00   0.0000000000000000e+00   0.0000000000000000e+00   0.0000000000000000e+00   0.0000000000000000e+00   0.0000000000000000e+00   0.0000000000000000e+00   6.8593790524681166e+00   0.0000000000000000e+00   9.6012206933875345e+06   8.9653409912501689e-02   1.1579998845063314e+07   9.1906290601254106e+06   1.0754606984208396e+07   1.1050071734711757e+07   9.1705246839470584e+06   9.1884066588522810e+06   7.9126782891994286e+06   8.1803146725984151e+06   6.5766919046609346e+06   6.7194232022713525e+06   5.2599391860612622e+06   5.2279917005811008e+06   4.0755929153229203e+06   3.9129091719656484e+06   3.0563082538944455e+06   2.8555314843937783e+06   2.2526566478828434e+06   2.2351789715724564e+06   1.7976636686472606e+06   2.0633081685928660e+06   1.9461358210261045e+06   2.1548308061675699e+06   2.9728685028167390e+06   2.4634512563895877e+06   3.3396942200991903e+06   0.0000000000000000e+00   0.0000000000000000e+00   0.0000000000000000e+00   0.0000000000000000e+00   0.0000000000000000e+00   0.0000000000000000e+00   0.0000000000000000e+00   0.0000000000000000e+00   0.0000000000000000e+00   0.0000000000000000e+00   0.0000000000000000e+00   0.0000000000000000e+00   0.0000000000000000e+00   0.0000000000000000e+00   0.0000000000000000e+00   0.0000000000000000e+00   0.0000000000000000e+00   0.0000000000000000e+00   0.0000000000000000e+00   0.0000000000000000e+00   0.0000000000000000e+00   0.0000000000000000e+00   0.0000000000000000e+00   0.0000000000000000e+00   2.6264086410405029e-06   0.0000000000000000e+00   6.7650414397436259e+06   1.6316394555518499e-06   9.5123572351639383e+06   5.7300709882673984e+06   9.1026344149194974e+06   9.6506753470425904e+06   8.0409836417244822e+06   8.3604147454979792e+06   6.6345186077603642e+06   6.6977256753324457e+06   5.2855835252445647e+06   5.2549505493365191e+06   3.9626141296026018e+06   3.9469140395815182e+06   2.6061814419065504e+06   2.8455085974874902e+06   1.2596887412182624e+06   1.9813875077516534e+06   8.7522662423101452e+05   1.4455569498441566e+06   2.7898871694295155e+06   1.8026690379170231e+06   5.6244075296603879e+06   3.3528796125539537e+06   6.0069231661391724e+06   0.0000000000000000e+00   0.0000000000000000e+00   0.0000000000000000e+00   0.0000000000000000e+00   0.0000000000000000e+00   0.0000000000000000e+00   0.0000000000000000e+00   0.0000000000000000e+00   0.0000000000000000e+00   0.0000000000000000e+00   0.0000000000000000e+00   0.0000000000000000e+00   0.0000000000000000e+00   0.0000000000000000e+00   0.0000000000000000e+00   0.0000000000000000e+00   0.0000000000000000e+00   0.0000000000000000e+00   0.0000000000000000e+00   0.0000000000000000e+00   0.0000000000000000e+00   0.0000000000000000e+00   0.0000000000000000e+00   0.0000000000000000e+00   0.0000000000000000e+00   0.0000000000000000e+00   0.0000000000000000e+00   0.0000000000000000e+00   4.0217246177457113e-05   0.0000000000000000e+00   9.2594297534244619e+06   3.7791296278584545e-03   1.0733807024961628e+07   9.7626053707111813e+06   8.6453939478911068e+06   8.7601728388615008e+06   7.0929619822814763e+06   7.1322964938015249e+06   5.5785309293522006e+06   5.6148449859890267e+06   3.9035595125999632e+06   4.1400922973097982e+06   2.2322454312016699e+06   2.7591174453322571e+06   9.4827640137158660e+05   1.3884773698974855e+06   2.6345055057667117e+06   1.0868431363686942e+06   5.8042687961892365e+06   3.1796747051458866e+06   9.7111823818397820e+06   6.3458727768019978e+06   1.1154619751038656e+04   0.0000000000000000e+00   0.0000000000000000e+00   0.0000000000000000e+00   0.0000000000000000e+00   0.0000000000000000e+00   0.0000000000000000e+00   0.0000000000000000e+00   0.0000000000000000e+00   0.0000000000000000e+00   0.0000000000000000e+00   0.0000000000000000e+00   0.0000000000000000e+00   0.0000000000000000e+00   0.0000000000000000e+00   0.0000000000000000e+00   0.0000000000000000e+00   0.0000000000000000e+00   0.0000000000000000e+00   0.0000000000000000e+00   0.0000000000000000e+00   0.0000000000000000e+00   0.0000000000000000e+00   0.0000000000000000e+00   0.0000000000000000e+00   0.0000000000000000e+00   0.0000000000000000e+00   0.0000000000000000e+00   0.0000000000000000e+00   0.0000000000000000e+00   0.0000000000000000e+00   0.0000000000000000e+00   0.0000000000000000e+00   1.4304859808796505e+06   0.0000000000000000e+00   1.0311741543798348e+07   9.0452881582487598e+06   9.0329559259856585e+06   9.0303975786268525e+06   7.5231462814183906e+06   7.5055520327942846e+06   5.5476134629574418e+06   5.6969515554637564e+06   3.7343765922444887e+06   3.9875806920682322e+06   2.1542662918719635e+06   2.2029821538138436e+06   2.4255121495441943e+06   3.2947745372025168e+05   5.4390020750111230e+06   2.6118730047926437e+06   1.0251971863899596e+07   6.2541544883181527e+06   3.4080678614374578e+00   6.5612623308436032e+06   0.0000000000000000e+00   0.0000000000000000e+00   0.0000000000000000e+00   0.0000000000000000e+00   0.0000000000000000e+00   0.0000000000000000e+00   0.0000000000000000e+00   0.0000000000000000e+00   0.0000000000000000e+00   0.0000000000000000e+00   0.0000000000000000e+00   0.0000000000000000e+00   0.0000000000000000e+00   0.0000000000000000e+00   0.0000000000000000e+00   0.0000000000000000e+00   0.0000000000000000e+00   0.0000000000000000e+00   0.0000000000000000e+00   0.0000000000000000e+00   0.0000000000000000e+00   0.0000000000000000e+00   0.0000000000000000e+00   0.0000000000000000e+00   0.0000000000000000e+00   0.0000000000000000e+00   0.0000000000000000e+00   0.0000000000000000e+00   0.0000000000000000e+00   0.0000000000000000e+00   0.0000000000000000e+00   0.0000000000000000e+00   0.0000000000000000e+00   0.0000000000000000e+00   0.0000000000000000e+00   2.4353031115723937e+05   0.0000000000000000e+00   1.0984528956098117e+07   9.8979966490962245e+06   9.8235665012180824e+06   9.6194220805989243e+06   7.3467643243112620e+06   7.3910055629414497e+06   5.4482817809701245e+06   5.4557324500687504e+06   3.7378528184889317e+06   3.5160417022957196e+06   2.7991584970709430e+06   1.2973090523285624e+06   4.4981006680863854e+06   1.5582419074588732e+06   9.4299031307254545e+06   5.5015075415562456e+06   5.5708393894962827e+06   1.1052229733445361e+07   0.0000000000000000e+00   2.9745286014449896e-07   0.0000000000000000e+00   0.0000000000000000e+00   0.0000000000000000e+00   0.0000000000000000e+00   0.0000000000000000e+00   0.0000000000000000e+00   0.0000000000000000e+00   0.0000000000000000e+00   0.0000000000000000e+00   0.0000000000000000e+00   0.0000000000000000e+00   0.0000000000000000e+00   0.0000000000000000e+00   0.0000000000000000e+00   0.0000000000000000e+00   0.0000000000000000e+00   0.0000000000000000e+00   0.0000000000000000e+00   0.0000000000000000e+00   0.0000000000000000e+00   0.0000000000000000e+00   0.0000000000000000e+00   0.0000000000000000e+00   0.0000000000000000e+00   0.0000000000000000e+00   0.0000000000000000e+00   0.0000000000000000e+00   0.0000000000000000e+00   0.0000000000000000e+00   0.0000000000000000e+00   0.0000000000000000e+00   0.0000000000000000e+00   0.0000000000000000e+00   0.0000000000000000e+00   0.0000000000000000e+00   0.0000000000000000e+00   0.0000000000000000e+00   1.0410537435093682e+07   1.9124876671624860e-05   1.3600755415336180e+07   1.2316114178255366e+07   9.3947475946272537e+06   9.5980520839308854e+06   7.3675333866361734e+06   7.2578949908238929e+06   5.5274920388500374e+06   5.1869586307694521e+06   3.9256176510890624e+06   2.8791045963718006e+06   3.7695808446053164e+06   7.2728035125007515e+05   6.0564618628111742e+06   3.7790305282842699e+06   9.1090526604975108e+06   8.5282566758287456e+06   6.9508838115531044e-08   2.0204682376636106e+03   0.0000000000000000e+00   0.0000000000000000e+00   0.0000000000000000e+00   0.0000000000000000e+00   0.0000000000000000e+00   0.0000000000000000e+00   0.0000000000000000e+00   0.0000000000000000e+00   0.0000000000000000e+00   0.0000000000000000e+00   0.0000000000000000e+00   0.0000000000000000e+00   0.0000000000000000e+00   0.0000000000000000e+00   0.0000000000000000e+00   0.0000000000000000e+00   0.0000000000000000e+00   0.0000000000000000e+00   0.0000000000000000e+00   0.0000000000000000e+00   0.0000000000000000e+00   0.0000000000000000e+00   0.0000000000000000e+00   0.0000000000000000e+00   0.0000000000000000e+00   0.0000000000000000e+00   0.0000000000000000e+00   0.0000000000000000e+00   0.0000000000000000e+00   0.0000000000000000e+00   0.0000000000000000e+00   0.0000000000000000e+00   0.0000000000000000e+00   0.0000000000000000e+00   0.0000000000000000e+00   0.0000000000000000e+00   0.0000000000000000e+00   0.0000000000000000e+00   1.1147858281782875e-07   0.0000000000000000e+00   1.3707160680259019e+07   9.4831804132408124e+01   1.0819453462757038e+07   1.1244484389216302e+07   9.1913227217491847e+06   9.0868296987818070e+06   7.2746527456670264e+06   6.9319945460497048e+06   5.2709424982911972e+06   4.5295648777822945e+06   3.6619305050662155e+06   1.8471710981200796e+06   4.0019766112811775e+06   2.0167899515968119e+06   6.6772995576209296e+06   5.9266698823698200e+06   9.6160250740455049e+03   8.7769286881742980e+06   0.0000000000000000e+00   2.8124452013233992e-06   0.0000000000000000e+00   0.0000000000000000e+00   0.0000000000000000e+00   0.0000000000000000e+00   0.0000000000000000e+00   0.0000000000000000e+00   0.0000000000000000e+00   0.0000000000000000e+00   0.0000000000000000e+00   0.0000000000000000e+00   0.0000000000000000e+00   0.0000000000000000e+00   0.0000000000000000e+00   0.0000000000000000e+00   0.0000000000000000e+00   0.0000000000000000e+00   0.0000000000000000e+00   0.0000000000000000e+00   0.0000000000000000e+00   0.0000000000000000e+00   0.0000000000000000e+00   0.0000000000000000e+00   0.0000000000000000e+00   0.0000000000000000e+00   0.0000000000000000e+00   0.0000000000000000e+00   0.0000000000000000e+00   0.0000000000000000e+00   0.0000000000000000e+00   0.0000000000000000e+00   0.0000000000000000e+00   0.0000000000000000e+00   0.0000000000000000e+00   0.0000000000000000e+00   0.0000000000000000e+00   0.0000000000000000e+00   0.0000000000000000e+00   0.0000000000000000e+00   0.0000000000000000e+00   9.3464996864539207e-01   0.0000000000000000e+00   1.0285238193993900e+07   2.3119843043991243e+06   1.0392998892620683e+07   9.9282183332152981e+06   8.7990929783010650e+06   8.3228380538589070e+06   6.7584687172731850e+06   6.1131464967447836e+06   4.6031257828315310e+06   3.5373021453316240e+06   3.0488591141530816e+06   1.1657571690695100e+06   4.0687322564051538e+06   3.3619154727897886e+06   7.0954828581835758e+06   7.2544760912721008e+06   1.7876768266707497e-04   2.0132508234544040e+06   0.0000000000000000e+00   0.0000000000000000e+00   0.0000000000000000e+00   0.0000000000000000e+00   0.0000000000000000e+00   0.0000000000000000e+00   0.0000000000000000e+00   0.0000000000000000e+00   0.0000000000000000e+00   0.0000000000000000e+00   0.0000000000000000e+00   0.0000000000000000e+00   0.0000000000000000e+00   0.0000000000000000e+00   0.0000000000000000e+00   0.0000000000000000e+00   0.0000000000000000e+00   0.0000000000000000e+00   0.0000000000000000e+00   0.0000000000000000e+00   0.0000000000000000e+00   0.0000000000000000e+00   0.0000000000000000e+00   0.0000000000000000e+00   0.0000000000000000e+00   0.0000000000000000e+00   0.0000000000000000e+00   0.0000000000000000e+00   0.0000000000000000e+00   0.0000000000000000e+00   0.0000000000000000e+00   0.0000000000000000e+00   0.0000000000000000e+00   0.0000000000000000e+00   0.0000000000000000e+00   0.0000000000000000e+00   0.0000000000000000e+00   0.0000000000000000e+00   0.0000000000000000e+00   0.0000000000000000e+00   0.0000000000000000e+00   0.0000000000000000e+00   6.13006520