<?xml version="1.0"?>
<VTKFile type="UnstructuredGrid"  version="0.1"  >
<UnstructuredGrid>
<Piece  NumberOfPoints="2431" NumberOfCells="4640">
<Points>
<DataArray  type="Float64"  NumberOfComponents="3"  format="ascii">1.734782608695652 0 0  1.743043478260869 0 0  1.743043478260869 0.008333333333333333 0  1.751304347826087 0 0  1.751304347826087 0.008333333333333333 0  1.759565217391304 0 0  1.759565217391304 0.008333333333333333 0  1.767826086956522 0 0  1.767826086956522 0.008333333333333333 0  1.776086956521739 0 0  1.776086956521739 0.008333333333333333 0  1.784347826086957 0 0  1.784347826086957 0.008333333333333333 0  1.792608695652174 0 0  1.792608695652174 0.008333333333333333 0  1.800869565217391 0 0  1.800869565217391 0.008333333333333333 0  1.809130434782608 0 0  1.809130434782608 0.008333333333333333 0  1.817391304347826 0 0  1.817391304347826 0.008333333333333333 0  1.825652173913043 0 0  1.825652173913043 0.008333333333333333 0  1.833913043478261 0 0  1.833913043478261 0.008333333333333333 0  1.842173913043478 0 0  1.842173913043478 0.008333333333333333 0  1.850434782608696 0 0  1.850434782608696 0.008333333333333333 0  1.858695652173913 0 0  1.858695652173913 0.008333333333333333 0  1.86695652173913 0 0  1.86695652173913 0.008333333333333333 0  1.875217391304348 0 0  1.875217391304348 0.008333333333333333 0  1.883478260869565 0 0  1.883478260869565 0.008333333333333333 0  1.891739130434782 0 0  1.891739130434782 0.008333333333333333 0  1.9 0.008333333333333333 0  1.751304347826087 0.01666666666666667 0  1.743043478260869 0.01666666666666667 0  1.759565217391304 0.01666666666666667 0  1.767826086956522 0.01666666666666667 0  1.776086956521739 0.01666666666666667 0  1.784347826086957 0.01666666666666667 0  1.792608695652174 0.01666666666666667 0  1.800869565217391 0.01666666666666667 0  1.809130434782608 0.01666666666666667 0  1.817391304347826 0.01666666666666667 0  1.825652173913043 0.01666666666666667 0  1.833913043478261 0.01666666666666667 0  1.842173913043478 0.01666666666666667 0  1.850434782608696 0.01666666666666667 0  1.858695652173913 0.01666666666666667 0  1.86695652173913 0.01666666666666667 0  1.875217391304348 0.01666666666666667 0  1.883478260869565 0.01666666666666667 0  1.891739130434782 0.01666666666666667 0  1.9 0.01666666666666667 0  1.908260869565217 0.01666666666666667 0  1.751304347826087 0.025 0  1.759565217391304 0.025 0  1.767826086956522 0.025 0  1.776086956521739 0.025 0  1.784347826086957 0.025 0  1.792608695652174 0.025 0  1.800869565217391 0.025 0  1.809130434782608 0.025 0  1.817391304347826 0.025 0  1.825652173913043 0.025 0  1.833913043478261 0.025 0  1.842173913043478 0.025 0  1.850434782608696 0.025 0  1.858695652173913 0.025 0  1.86695652173913 0.025 0  1.875217391304348 0.025 0  1.883478260869565 0.025 0  1.891739130434782 0.025 0  1.9 0.025 0  1.908260869565217 0.025 0  1.916521739130435 0.025 0  1.759565217391304 0.03333333333333333 0  1.767826086956522 0.03333333333333333 0  1.776086956521739 0.03333333333333333 0  1.784347826086957 0.03333333333333333 0  1.792608695652174 0.03333333333333333 0  1.800869565217391 0.03333333333333333 0  1.809130434782608 0.03333333333333333 0  1.817391304347826 0.03333333333333333 0  1.825652173913043 0.03333333333333333 0  1.833913043478261 0.03333333333333333 0  1.842173913043478 0.03333333333333333 0  1.850434782608696 0.03333333333333333 0  1.858695652173913 0.03333333333333333 0  1.86695652173913 0.03333333333333333 0  1.875217391304348 0.03333333333333333 0  1.883478260869565 0.03333333333333333 0  1.891739130434782 0.03333333333333333 0  1.9 0.03333333333333333 0  1.908260869565217 0.03333333333333333 0  1.916521739130435 0.03333333333333333 0  1.924782608695652 0.03333333333333333 0  1.767826086956522 0.04166666666666666 0  1.776086956521739 0.04166666666666666 0  1.784347826086957 0.04166666666666666 0  1.792608695652174 0.04166666666666666 0  1.800869565217391 0.04166666666666666 0  1.809130434782608 0.04166666666666666 0  1.817391304347826 0.04166666666666666 0  1.825652173913043 0.04166666666666666 0  1.833913043478261 0.04166666666666666 0  1.842173913043478 0.04166666666666666 0  1.850434782608696 0.04166666666666666 0  1.858695652173913 0.04166666666666666 0  1.86695652173913 0.04166666666666666 0  1.875217391304348 0.04166666666666666 0  1.883478260869565 0.04166666666666666 0  1.891739130434782 0.04166666666666666 0  1.9 0.04166666666666666 0  1.908260869565217 0.04166666666666666 0  1.916521739130435 0.04166666666666666 0  1.924782608695652 0.04166666666666666 0  1.933043478260869 0.04166666666666666 0  1.776086956521739 0.05 0  1.767826086956522 0.05 0  1.784347826086957 0.05 0  1.792608695652174 0.05 0  1.800869565217391 0.05 0  1.809130434782608 0.05 0  1.817391304347826 0.05 0  1.825652173913043 0.05 0  1.833913043478261 0.05 0  1.842173913043478 0.05 0  1.850434782608696 0.05 0  1.858695652173913 0.05 0  1.86695652173913 0.05 0  1.875217391304348 0.05 0  1.883478260869565 0.05 0  1.891739130434782 0.05 0  1.9 0.05 0  1.908260869565217 0.05 0  1.916521739130435 0.05 0  1.924782608695652 0.05 0  1.933043478260869 0.05 0  1.941304347826087 0.05 0  1.776086956521739 0.05833333333333333 0  1.784347826086957 0.05833333333333333 0  1.792608695652174 0.05833333333333333 0  1.800869565217391 0.05833333333333333 0  1.809130434782608 0.05833333333333333 0  1.817391304347826 0.05833333333333333 0  1.825652173913043 0.05833333333333333 0  1.833913043478261 0.05833333333333333 0  1.842173913043478 0.05833333333333333 0  1.850434782608696 0.05833333333333333 0  1.858695652173913 0.05833333333333333 0  1.86695652173913 0.05833333333333333 0  1.875217391304348 0.05833333333333333 0  1.883478260869565 0.05833333333333333 0  1.891739130434782 0.05833333333333333 0  1.9 0.05833333333333333 0  1.908260869565217 0.05833333333333333 0  1.916521739130435 0.05833333333333333 0  1.924782608695652 0.05833333333333333 0  1.933043478260869 0.05833333333333333 0  1.941304347826087 0.05833333333333333 0  1.949565217391304 0.05833333333333333 0  1.784347826086957 0.06666666666666667 0  1.792608695652174 0.06666666666666667 0  1.800869565217391 0.06666666666666667 0  1.809130434782608 0.06666666666666667 0  1.817391304347826 0.06666666666666667 0  1.825652173913043 0.06666666666666667 0  1.833913043478261 0.06666666666666667 0  1.842173913043478 0.06666666666666667 0  1.850434782608696 0.06666666666666667 0  1.858695652173913 0.06666666666666667 0  1.86695652173913 0.06666666666666667 0  1.875217391304348 0.06666666666666667 0  1.883478260869565 0.06666666666666667 0  1.891739130434782 0.06666666666666667 0  1.9 0.06666666666666667 0  1.908260869565217 0.06666666666666667 0  1.916521739130435 0.06666666666666667 0  1.924782608695652 0.06666666666666667 0  1.933043478260869 0.06666666666666667 0  1.941304347826087 0.06666666666666667 0  1.949565217391304 0.06666666666666667 0  1.957826086956522 0.06666666666666667 0  1.792608695652174 0.075 0  1.800869565217391 0.075 0  1.809130434782608 0.075 0  1.817391304347826 0.075 0  1.825652173913043 0.075 0  1.833913043478261 0.075 0  1.842173913043478 0.075 0  1.850434782608696 0.075 0  1.858695652173913 0.075 0  1.86695652173913 0.075 0  1.875217391304348 0.075 0  1.883478260869565 0.075 0  1.891739130434782 0.075 0  1.9 0.075 0  1.908260869565217 0.075 0  1.916521739130435 0.075 0  1.924782608695652 0.075 0  1.933043478260869 0.075 0  1.941304347826087 0.075 0  1.949565217391304 0.075 0  1.957826086956522 0.075 0  1.800869565217391 0.08333333333333333 0  1.809130434782608 0.08333333333333333 0  1.817391304347826 0.08333333333333333 0  1.825652173913043 0.08333333333333333 0  1.833913043478261 0.08333333333333333 0  1.842173913043478 0.08333333333333333 0  1.850434782608696 0.08333333333333333 0  1.858695652173913 0.08333333333333333 0  1.86695652173913 0.08333333333333333 0  1.875217391304348 0.08333333333333333 0  1.883478260869565 0.08333333333333333 0  1.891739130434782 0.08333333333333333 0  1.9 0.08333333333333333 0  1.908260869565217 0.08333333333333333 0  1.916521739130435 0.08333333333333333 0  1.924782608695652 0.08333333333333333 0  1.933043478260869 0.08333333333333333 0  1.941304347826087 0.08333333333333333 0  1.949565217391304 0.08333333333333333 0  1.957826086956522 0.08333333333333333 0  1.966086956521739 0.08333333333333333 0  1.817391304347826 0.09166666666666666 0  1.825652173913043 0.09166666666666666 0  1.833913043478261 0.09166666666666666 0  1.842173913043478 0.09166666666666666 0  1.850434782608696 0.09166666666666666 0  1.858695652173913 0.09166666666666666 0  1.86695652173913 0.09166666666666666 0  1.875217391304348 0.09166666666666666 0  1.883478260869565 0.09166666666666666 0  1.891739130434782 0.09166666666666666 0  1.9 0.09166666666666666 0  1.908260869565217 0.09166666666666666 0  1.916521739130435 0.09166666666666666 0  1.924782608695652 0.09166666666666666 0  1.933043478260869 0.09166666666666666 0  1.941304347826087 0.09166666666666666 0  1.949565217391304 0.09166666666666666 0  1.957826086956522 0.09166666666666666 0  1.966086956521739 0.09166666666666666 0  1.974347826086956 0.09166666666666666 0  1.825652173913043 0.1 0  1.833913043478261 0.1 0  1.842173913043478 0.1 0  1.850434782608696 0.1 0  1.858695652173913 0.1 0  1.86695652173913 0.1 0  1.875217391304348 0.1 0  1.883478260869565 0.1 0  1.891739130434782 0.1 0  1.9 0.1 0  1.908260869565217 0.1 0  1.916521739130435 0.1 0  1.924782608695652 0.1 0  1.933043478260869 0.1 0  1.941304347826087 0.1 0  1.949565217391304 0.1 0  1.957826086956522 0.1 0  1.966086956521739 0.1 0  1.974347826086956 0.1 0  1.982608695652174 0.1 0  1.833913043478261 0.1083333333333333 0  1.842173913043478 0.1083333333333333 0  1.850434782608696 0.1083333333333333 0  1.858695652173913 0.1083333333333333 0  1.86695652173913 0.1083333333333333 0  1.875217391304348 0.1083333333333333 0  1.883478260869565 0.1083333333333333 0  1.891739130434782 0.1083333333333333 0  1.9 0.1083333333333333 0  1.908260869565217 0.1083333333333333 0  1.
[...]
<CellData  Scalars="sigma_m"> 
<DataArray  type="Float64"  Name="sigma_m"  format="ascii">2.8871439914556718e+06   3.3831320712891188e+06   3.4236185465341522e+06   3.9461762596674780e+06   3.7423698540792069e+06   4.5497645026572980e+06   4.1003405933210980e+06   5.1601709596034586e+06   4.4751047928820560e+06   5.7358164754741853e+06   4.8400658128815228e+06   6.2293414085442107e+06   5.1657656557084955e+06   6.5929717892210688e+06   5.4226536877458906e+06   6.7976820935834236e+06   5.5939979102622084e+06   6.8480571250389647e+06   5.6805564956055721e+06   6.7783285939416206e+06   5.6962445817552414e+06   6.6530337655910105e+06   5.6823706096378155e+06   6.4975922152789831e+06   5.6687428450998412e+06   6.2910065490331911e+06   5.6464215985359047e+06   6.0115334024625029e+06   5.5940795833080709e+06   5.7026150483076163e+06   5.5411348305727243e+06   5.4392701264562365e+06   5.5275038062264044e+06   5.2516861866837637e+06   5.5366393841573251e+06   5.1405952268103082e+06   5.5511697993159117e+06   5.5641361252837572e+06   3.5297865271576433e+06   3.4438205725762597e+06   3.8928092243228676e+06   3.6018797697490007e+06   4.2771483174471539e+06   3.7872675581683135e+06   4.6545074124397542e+06   3.9816917351592490e+06   4.9965082824626984e+06   4.1676733035081299e+06   5.2764546970132506e+06   4.3286792200223049e+06   5.4718620985479793e+06   4.4461193872783268e+06   5.5811526696018474e+06   4.5203161800718270e+06   5.6196751272659153e+06   4.5736143716553031e+06   5.6076524265842130e+06   4.6105411697901152e+06   5.5965850521657141e+06   4.6628622477874300e+06   5.5963745088895215e+06   4.7719725660732063e+06   5.5829813440857409e+06   4.9365671188207157e+06   5.5339788284932757e+06   5.0829892239014897e+06   5.5024055991331069e+06   5.2429450835577007e+06   5.5221668950236319e+06   5.5564718650099309e+06   5.5517142069816124e+06   5.8514325684957029e+06   5.5780760736029781e+06   6.0106397485431144e+06   5.5963913428770732e+06   6.0886390974575225e+06   6.1239911590138013e+06   3.4941787030248921e+06   3.7195572537205555e+06   3.3337896239134013e+06   3.9600178789352248e+06   3.4174594587677373e+06   4.1854138767270162e+06   3.5005284464921495e+06   4.3712515534326453e+06   3.5635574563629162e+06   4.4987341645420752e+06   3.5919356187934880e+06   4.5492253361746827e+06   3.5673673558285530e+06   4.5428241158107603e+06   3.5068493448831462e+06   4.5310323766100267e+06   3.4607286792117031e+06   4.5202904004322989e+06   3.5096776696300781e+06   4.5800488138068831e+06   3.6229874491585665e+06   4.7089366680705603e+06   3.7791983888754165e+06   4.8827377968005631e+06   4.0350760429158635e+06   5.0025393692504838e+06   4.4422256537622008e+06   5.1968933074920829e+06   4.7851167369198548e+06   5.6018949351105541e+06   5.4997715489267195e+06   5.8921852685880316e+06   6.5900839444475928e+06   6.0508757064912822e+06   6.7341594562208438e+06   6.1275328829459716e+06   6.7276421143142246e+06   6.1611903868543934e+06   6.7182113827583902e+06   6.7120492638635999e+06   3.3727046408222863e+06   3.5205671869908147e+06   2.9183227422002982e+06   3.6556726317173024e+06   2.9420556739411918e+06   3.7465571693015490e+06   2.9301113053292464e+06   3.7664328898005094e+06   2.8556161313966196e+06   3.6785993406818947e+06   2.6742825523199481e+06   3.5167709311767393e+06   2.4566738405265952e+06   3.4053072617050461e+06   2.2155371258312664e+06   3.4565585889720889e+06   2.0604311862504988e+06   3.5873271775032375e+06   2.7085910979386885e+06   3.7681106764116087e+06   2.7491038535320731e+06   4.0771232123151068e+06   2.7014916657025265e+06   4.5904509720173394e+06   2.8179279492972856e+06   4.8838967177645667e+06   4.5008631414984018e+06   5.4049143612735169e+06   5.3779864289903129e+06   6.1645244404145852e+06   4.8772268023932250e+06   6.2029469692812935e+06   5.1317598718846450e+06   6.1722458087177845e+06   5.1836364740479663e+06   6.1546319671896221e+06   5.1880601675040377e+06   6.1450110988738881e+06   5.1894604649052965e+06   5.1941396693499126e+06   2.9264898008263623e+06   3.0075262210978377e+06   2.2700907216653479e+06   3.0462308254136550e+06   2.2250391250248556e+06   2.9893622112160674e+06   2.0870382561135560e+06   2.7180516318544061e+06   1.7943832486504114e+06   2.3656662096311501e+06   1.4972737179872096e+06   2.0282620846622933e+06   1.3048724006581262e+06   1.9850290106050349e+06   8.4087153625812219e+05   2.4416472919812971e+06   1.4027195304180554e+06   2.3401896771579850e+06   1.1785034571489482e+06   7.0371670200378145e+05   2.7644516076958979e+01   1.0719243671522010e+02   8.2677773931774700e-04   6.7322021454260569e-02   1.8202962789780973e-07   4.0905524984792601e-04   5.5858309842327909e-10   2.1893030054380316e-05   0.0000000000000000e+00   5.5148218551114106e-06   0.0000000000000000e+00   3.2148545602526698e-06   0.0000000000000000e+00   2.8822245428052895e-06   0.0000000000000000e+00   3.0871834501705981e-06   0.0000000000000000e+00   2.9287942439963939e-06   0.0000000000000000e+00   0.0000000000000000e+00   2.2116908934213175e+06   1.4973798078408909e+06   2.2409089802324898e+06   1.4744822914058976e+06   2.1746879347786107e+06   1.4246181058484463e+06   1.7621098947936576e+06   1.5376294758955380e+06   1.4268595209676167e+06   1.9031473594413525e+06   1.1749540458079977e+06   1.9865310676432690e+06   2.3002226363229763e+05   7.2330539597298106e+04   2.2316674611041053e-04   8.9913368895998968e-07   0.0000000000000000e+00   0.0000000000000000e+00   0.0000000000000000e+00   0.0000000000000000e+00   0.0000000000000000e+00   0.0000000000000000e+00   0.0000000000000000e+00   0.0000000000000000e+00   0.0000000000000000e+00   0.0000000000000000e+00   0.0000000000000000e+00   0.0000000000000000e+00   0.0000000000000000e+00   0.0000000000000000e+00   0.0000000000000000e+00   0.0000000000000000e+00   0.0000000000000000e+00   0.0000000000000000e+00   0.0000000000000000e+00   0.0000000000000000e+00   0.0000000000000000e+00   0.0000000000000000e+00   0.0000000000000000e+00   0.0000000000000000e+00   0.0000000000000000e+00   1.3063066983700015e+06   1.5014827476459811e+06   7.6018038075658225e+05   1.9785451412127723e+06   1.1859199484363880e+06   2.3858669037419297e+06   2.5186738583344840e+06   2.4934111619101781e+06   3.0675536958358269e+06   4.0076670532938854e+00   9.1864301574215002e-01   0.0000000000000000e+00   0.0000000000000000e+00   0.0000000000000000e+00   0.0000000000000000e+00   0.0000000000000000e+00   0.0000000000000000e+00   0.0000000000000000e+00   0.0000000000000000e+00   0.0000000000000000e+00   0.0000000000000000e+00   0.0000000000000000e+00   0.0000000000000000e+00   0.0000000000000000e+00   0.0000000000000000e+00   0.0000000000000000e+00   0.0000000000000000e+00   0.0000000000000000e+00   0.0000000000000000e+00   0.0000000000000000e+00   0.0000000000000000e+00   0.0000000000000000e+00   0.0000000000000000e+00   0.0000000000000000e+00   0.0000000000000000e+00   0.0000000000000000e+00   0.0000000000000000e+00   0.0000000000000000e+00   0.0000000000000000e+00   0.0000000000000000e+00   0.0000000000000000e+00   0.0000000000000000e+00   1.4729303480777061e+06   3.4016082167164483e+06   1.3693526006482875e+06   4.4142514399660947e+06   4.0564394209385966e+06   1.4699549487542829e+01   1.8692246835723765e+02   0.0000000000000000e+00   0.0000000000000000e+00   0.0000000000000000e+00   0.0000000000000000e+00   0.0000000000000000e+00   0.0000000000000000e+00   0.0000000000000000e+00   0.0000000000000000e+00   0.0000000000000000e+00   0.0000000000000000e+00   0.0000000000000000e+00   0.0000000000000000e+00   0.0000000000000000e+00   0.0000000000000000e+00   0.0000000000000000e+00   0.0000000000000000e+00   0.0000000000000000e+00   0.0000000000000000e+00   0.0000000000000000e+00   0.0000000000000000e+00   0.0000000000000000e+00   0.0000000000000000e+00   0.0000000000000000e+00   0.0000000000000000e+00   0.0000000000000000e+00   0.0000000000000000e+00   0.0000000000000000e+00   0.0000000000000000e+00   0.0000000000000000e+00   0.0000000000000000e+00   0.0000000000000000e+00   0.0000000000000000e+00   0.0000000000000000e+00   0.0000000000000000e+00   0.0000000000000000e+00   3.4527601618115823e+06   6.0145841227173153e+06   3.2585793605874334e+06   3.7475180824127167e-09   1.1714463240222137e-06   0.0000000000000000e+00   0.0000000000000000e+00   0.0000000000000000e+00   0.0000000000000000e+00   0.0000000000000000e+00   0.0000000000000000e+00   0.0000000000000000e+00   0.0000000000000000e+00   0.0000000000000000e+00   0.0000000000000000e+00   0.0000000000000000e+00   0.0000000000000000e+00   0.0000000000000000e+00   0.0000000000000000e+00   0.0000000000000000e+00   0.0000000000000000e+00   0.0000000000000000e+00   0.0000000000000000e+00   0.0000000000000000e+00   0.0000000000000000e+00   0.0000000000000000e+00   0.0000000000000000e+00   0.0000000000000000e+00   0.0000000000000000e+00   0.0000000000000000e+00   0.0000000000000000e+00   0.0000000000000000e+00   0.0000000000000000e+00   0.0000000000000000e+00   0.0000000000000000e+00   0.0000000000000000e+00   0.0000000000000000e+00   0.0000000000000000e+00   0.0000000000000000e+00   0.0000000000000000e+00   0.0000000000000000e+00   2.0320194417536352e+05   0.0000000000000000e+00   1.9411089741654374e-09   0.0000000000000000e+00   0.0000000000000000e+00   0.0000000000000000e+00   0.0000000000000000e+00   0.0000000000000000e+00   0.0000000000000000e+00   0.0000000000000000e+00   0.0000000000000000e+00   0.0000000000000000e+00   0.0000000000000000e+00   0.0000000000000000e+00   0.0000000000000000e+00   0.0000000000000000e+00   0.0000000000000000e+00   0.0000000000000000e+00   0.0000000000000000e+00   0.0000000000000000e+00   0.0000000000000000e+00   0.0000000000000000e+00   0.0000000000000000e+00   0.0000000000000000e+00   0.0000000000000000e+00   0.0000000000000000e+00   0.0000000000000000e+00   0.0000000000000000e+00   0.0000000000000000e+00   0.0000000000000000e+00   0.0000000000000000e+00   0.0000000000000000e+00   0.0000000000000000e+00   0.0000000000000000e+00   0.0000000000000000e+00   0.0000000000000000e+00   0.0000000000000000e+00   0.0000000000000000e+00   0.0000000000000000e+00   0.0000000000000000e+00   0.0000000000000000e+00   0.0000000000000000e+00   0.0000000000000000e+00   0.0000000000000000e+00   0.0000000000000000e+00   0.0000000000000000e+00   0.0000000000000000e+00   0.0000000000000000e+00   0.0000000000000000e+00   0.0000000000000000e+00   0.0000000000000000e+00   0.0000000000000000e+00   0.0000000000000000e+00   0.0000000000000000e+00   0.0000000000000000e+00   0.0000000000000000e+00   0.0000000000000000e+00   0.0000000000000000e+00   0.0000000000000000e+00   0.0000000000000000e+00   0.0000000000000000e+00   0.0000000000000000e+00   0.0000000000000000e+00   0.0000000000000000e+00   0.0000000000000000e+00   0.0000000000000000e+00   0.0000000000000000e+00   0.0000000000000000e+00   0.0000000000000000e+00   0.0000000000000000e+00   0.0000000000000000e+00   0.0000000000000000e+00   0.0000000000000000e+00   0.0000000000000000e+00   0.0000000000000000e+00   0.0000000000000000e+00   0.0000000000000000e+00   0.0000000000000000e+00   0.0000000000000000e+00   0.0000000000000000e+00   0.0000000000000000e+00   0.0000000000000000e+00   0.0000000000000000e+00   0.0000000000000000e+00   0.0000000000000000e+00   0.0000000000000000e+00   0.0000000000000000e+00   0.0000000000000000e+00   0.0000000000000000e+00   0.0000000000000000e+00   0.0000000000000000e+00   0.0000000000000000e+00   0.0000000000000000e+00   0.0000000000000000e+00   0.0000000000000000e+00   0.0000000000000000e+00   0.0000000000000000e+00   0.0000000000000000e+00   0.0000000000000000e+00   0.0000000000000000e+00   0.0000000000000000e+00   0.0000000000000000e+00   0.0000000000000000e+00   0.0000000000000000e+00   0.0000000000000000e+00   0.0000000000000000e+00   0.0000000000000000e+00   0.0000000000000000e+00   0.0000000000000000e+00   0.0000000000000000e+00   0.0000000000000000e+00   0.0000000000000000e+00   0.0000000000000000e+00   0.0000000000000000e+00   0.0000000000000000e+00   0.0000000000000000e+00   0.0000000000000000e+00   0.0000000000000000e+00   0.0000000000000000e+00   0.0000000000000000e+00   0.0000000000000000e+00   0.0000000000000000e+00   0.0000000000000000e+00   0.0000000000000000e+00   0.0000000000000000e+00   0.0000000000000000e+00   0.0000000000000000e+00   0.0000000000000000e+00   0.0000000000000000e+00   0.0000000000000000e+00   0.0000000000000000e+00   0.0000000000000000e+00   0.0000000000000000e+00   0.0000000000000000e+00   0.0000000000000000e+00   0.0000000000000000e+00   0.0000000000000000e+00   0.0000000000000000e+00   0.0000000000000000e+00   0.0000000000000000e+00   0.0000000000000000e+00   0.0000000000000000e+00   0.0000000000000000e+00   0.0000000000000000e+00   0.0000000000000000e+00   0.0000000000000000e+00   0.0000000000000000e+00   0.0000000000000000e+00   0.0000000000000000e+00   0.0000000000000000e+00   0.0000000000000000e+00   0.0000000000000000e+00   0.0000000000000000e+00   0.0000000000000000e+00   0.0000000000000000e+00   0.0000000000000000e+00   0.0000000000000000e+00   0.0000000000000000e+00   0.0000000000000000e+00   0.0000000000000000e+00   0.0000000000000000e+00   0.0000000000000000e+00   0.0000000000000000e+00   0.0000000000000000e+00   0.0000000000000000e+00   0.0000000000000000e+00   0.0000000000000000e+00   0.0000000000000000e+00   0.0000000000000000e+00   0.0000000000000000e+00   0.0000000000000000e+00   0.0000000000000000e+00   0.0000000000000000e+00   0.0000000000000000e+00   0.0000000000000000e+00   0.0000000000000000e+00   0.0000000000000000e+00   0.0000000000000000e+00   0.0000000000000000e+00   0.0000000000000000e+00   0.0000000000000000e+00   0.0000000000000000e+00   0.0000000000000000e+00   0.0000000000000000e+00   0.0000000000000000e+00   0.0000000000000000e+00   0.0000000000000000e+00   0.0000000000000000e+00   0.0000000000000000e+00   0.0000000000000000e+00   0.0000000000000000e+00   0.0000000000000000e+00   0.0000000000000000e+00   0.0000000000000000e+00   0.0000000000000000e+00   0.0000000000000000e+00   0.0000000000000000e+00   0.0000000000000000e+00   0.0000000000000000e+00   0.0000000000000000e+00   0.0000000000000000e+00   0.0000000000000000e+00   0.0000000000000000e+00   0.0000000000000000e+00   0.0000000000000000e+00   0.0000000000000000e+00   0.0000000000000000e+00   0.0000000000000000e+00   0.0000000000000000e+00   0.0000000000000000e+00   0.0000000000000000e+00   0.0000000000000000e+00   0.0000000000000000e+00   0.0000000000000000e+00   0.0000000000000000e+00   0.0000000000000000e+00   0.0000000000000000e+00   0.0000000000000000e+00   0.0000000000000000e+00   0.0000000000000000e+00   0.0000000000000000e+00   0.0000000000000000e+00   0.0000000000000000e+00   0.0000000000000000e+00   0.0000000000000000e+00   0.0000000000000000e+00   0.0000000000000000e+00   0.0000000000000000e+00   0.0000000000000000e+00   0.0000000000000000e+00   0.0000000000000000e+00   0.0000000000000000e+00   0.0000000000000000e+00   0.0000000000000000e+00   0.0000000000000000e+00   0.0000000000000000e+00   0.0000000000000000e+00   0.0000000000000000e+00   0.0000000000000000e+00   0.0000000000000000e+00   0.0000000000000000e+00   0.0000000000000000e+00   0.0000000000000000e+00   0.0000000000000000e+00   0.0000000000000000e+00   0.0000000000000000e+00   0.0000000000000000e+00   0.0000000000000000e+00   0.0000000000000000e+00   0.0000000000000000e+00   0.0000000000000000e+00   0.0000000000000000e+00   0.0000000000000000e+00   0.0000000000000000e+00   0.0000000000000000e+00   0.0000000000000000e+00   0.0000000000000000e+00   0.0000000000000000e+00   0.0000000000000000e+00   0.0000000000000000e+00   0.0000000000000000e+00   0.0000000000000000e+00   0.0000000000000000e+00   0.0000000000000000e+00   0.0000000000000000e+00   0.0000000000000000e+00   0.0000000000000000e+00   0.0000000000000000e+00   0.0000000000000000e+00   0.0000000000000000e+00   0.0000000000000000e+00   0.0000000000000000e+00   0.0000000000000000e+00   0.0000000000000000e+00   0.0000000000000000e+00   0.0000000000000000e+00   0.0000000000000000e+00   0.0000000000000000e+00   0.0000000000000000e+00   0.0000000000000000e+00   0.0000000000000000e+00   0.0000000000000000e+00   0.0000000000000000e+00   0.0000000000000000e+00   0.0000000000000000e+00   0.0000000000000000e+00   0.0000000000000000e+00   0.0000000000000000e+00   0.0000000000000000e+00   0.0000000000000000e+00   0.0000000000000000e+00   0.0000000000000000e+00   0.0000000000000000e+00   0.0000000000000000e+00   0.0000000000000000e+00   0.0000000000000000e+00   0.0000000000000000e+00   0.0000000000000000e+00   0.0000000000000000e+00   0.0000000000000000e+00   0.0000000000000000e+00   0.0000000000000000e+00   0.0000000000000000e+00   0.0000000000000000e+00   0.0000000000000000e+00   0.0000000000000000e+00   0.0000000000000000e+00   0.0000000000000000e+00   0.0000000000000000e+00   0.0000000000000000e+00   0.0000000000000000e+00   0.0000000000000000e+00   0.0000000000000000e+00   0.0000000000000000e+00   0.0000000000000000e+00   0.0000000000000000e+00   0.0000000000000000e+00   0.0000000000000000e+00   0.0000000000000000e+00   0.0000000000000000e+00   0.0000000000000000e+00   0.0000000000000000e+00   0.0000000000000000e+00   0.0000000000000000e+00   0.0000000000000000e+00   0.0000000000000000e+00   0.0000000000000000e+00   0.0000000000000000e+00   0.0000000000000000e+00   0.0000000000000000e+00   0.0000000000000000e+00   0.0000000000000000e+00   0.0000000000000000e+00   0.0000000000000000e+00   0.0000000000000000e+00   0.0000000000000000e+00   0.0000000000000000e+00   0.0000000000000000e+00   0.0000000000000000e+00   0.0000000000000000e+00   0.0000000000000000e+00   0.0000000000000000e+00   0.0000000000000000e+00   0.0000000000000000e+00   0.0000000000000000e+00   0.0000000000000000e+00   0.0000000000000000e+00   0.0000000000000000e+00   0.0000000000000000e+00   0.0000000000000000e+00   0.0000000000000000e+00   0.0000000000000000e+00   0.0000000000000000e+00   0.0000000000000000e+00   0.0000000000000000e+00   0.0000000000000000e+00   0.0000000000000000e+00   0.0000000000000000e+00   0.0000000000000000e+00   0.0000000000000000e+00   0.0000000000000000e+00   0.0000000000000000e+00   0.0000000000000000e+00   0.0000000000000000e+00   0.0000000000000000e+00   0.0000000000000000e+00   0.0000000000000000e+00   0.0000000000000000e+00   0.0000000000000000e+00   0.0000000000000000e+00   0.0000000000000000e+00   0.0000000000000000e+00   0.0000000000000000e+00   0.0000000000000000e+00   0.0000000000000000e+00   0.0000000000000000e+00   0.0000000000000000e+00   0.0000000000000000e+00   0.0000000000000000e+00   0.0000000000000000e+00   0.0000000000000000e+00   0.0000000000000000e+00   0.0000000000000000e+00   0.0000000000000000e+00   0.0000000000000000e+00   0.0000000000000000e+00   0.0000000000000000e+00   0.0000000000000000e+00   0.0000000000000000e+00   0.0000000000000000e+00   0.0000000000000000e+00   0.0000000000000000e+00   0.0000000000000000e+00   0.0000000000000000e+00   0.0000000000000000e+00   0.0000000000000000e+00   0.0000000000000000e+00   0.0000000000000000e+00   0.0000000000000000e+00   0.0000000000000000e+00   0.0000000000000000e+00   0.0000000000000000e+00   0.0000000000000000e+00   0.0000000000000000e+00   0.0000000000000000e+00   0.0000000000000000e+00   0.0000000000000000e+00   0.0000000000000000e+00   0.0000000000000000e+00   0.0000000000000000e+00   0.0000000000000000e+00   0.0000000000000000e+00   0.0000000000000000e+00   0.0000000000000000e+00   0.0000000000000000e+00   0.0000000000000000e+00   0.0000000000000000e+00   0.0000000000000000e+00   0.0000000000000000e+00   0.0000000000000000e+00   0.0000000000000000e+00   0.0000000000000000e+00   0.0000000000000000e+00   0.0000000000000000e+00   0.0000000000000000e+00   0.0000000000000000e+00   0.0000000000000000e+00   0.0000000000000000e+00   0.0000000000000000e+00   0.0000000000000000e+00   0.0000000000000000e+00   0.0000000000000000e+00   0.0000000000000000e+00   0.00000000