<?xml version="1.0"?>
<VTKFile type="UnstructuredGrid"  version="0.1"  >
<UnstructuredGrid>
<Piece  NumberOfPoints="2421" NumberOfCells="4641">
<Points>
<DataArray  type="Float64"  NumberOfComponents="3"  format="ascii">2.808695652173913 0.2 0  2.808695652173913 0.2083333333333333 0  2.81695652173913 0.2083333333333333 0  2.354347826086956 0.2083333333333333 0  2.362608695652174 0.2083333333333333 0  2.362608695652174 0.2166666666666667 0  2.354347826086956 0.2166666666666667 0  2.370869565217391 0.2083333333333333 0  2.370869565217391 0.2166666666666667 0  2.379130434782609 0.2083333333333333 0  2.379130434782609 0.2166666666666667 0  2.387391304347826 0.2083333333333333 0  2.387391304347826 0.2166666666666667 0  2.395652173913044 0.2083333333333333 0  2.395652173913044 0.2166666666666667 0  2.403913043478261 0.2083333333333333 0  2.403913043478261 0.2166666666666667 0  2.412173913043478 0.2083333333333333 0  2.412173913043478 0.2166666666666667 0  2.420434782608695 0.2083333333333333 0  2.420434782608695 0.2166666666666667 0  2.428695652173913 0.2083333333333333 0  2.428695652173913 0.2166666666666667 0  2.43695652173913 0.2083333333333333 0  2.43695652173913 0.2166666666666667 0  2.445217391304348 0.2083333333333333 0  2.445217391304348 0.2166666666666667 0  2.453478260869565 0.2083333333333333 0  2.453478260869565 0.2166666666666667 0  2.461739130434782 0.2083333333333333 0  2.461739130434782 0.2166666666666667 0  2.47 0.2083333333333333 0  2.47 0.2166666666666667 0  2.478260869565217 0.2083333333333333 0  2.478260869565217 0.2166666666666667 0  2.486521739130435 0.2083333333333333 0  2.486521739130435 0.2166666666666667 0  2.494782608695652 0.2083333333333333 0  2.494782608695652 0.2166666666666667 0  2.503043478260869 0.2083333333333333 0  2.503043478260869 0.2166666666666667 0  2.511304347826087 0.2083333333333333 0  2.511304347826087 0.2166666666666667 0  2.519565217391305 0.2083333333333333 0  2.519565217391305 0.2166666666666667 0  2.527826086956522 0.2083333333333333 0  2.527826086956522 0.2166666666666667 0  2.536086956521739 0.2083333333333333 0  2.536086956521739 0.2166666666666667 0  2.544347826086956 0.2083333333333333 0  2.544347826086956 0.2166666666666667 0  2.552608695652174 0.2083333333333333 0  2.552608695652174 0.2166666666666667 0  2.560869565217391 0.2083333333333333 0  2.560869565217391 0.2166666666666667 0  2.569130434782608 0.2083333333333333 0  2.569130434782608 0.2166666666666667 0  2.577391304347826 0.2083333333333333 0  2.577391304347826 0.2166666666666667 0  2.585652173913043 0.2083333333333333 0  2.585652173913043 0.2166666666666667 0  2.593913043478261 0.2083333333333333 0  2.593913043478261 0.2166666666666667 0  2.602173913043478 0.2083333333333333 0  2.602173913043478 0.2166666666666667 0  2.610434782608696 0.2083333333333333 0  2.610434782608696 0.2166666666666667 0  2.618695652173913 0.2083333333333333 0  2.618695652173913 0.2166666666666667 0  2.62695652173913 0.2083333333333333 0  2.62695652173913 0.2166666666666667 0  2.635217391304348 0.2083333333333333 0  2.635217391304348 0.2166666666666667 0  2.643478260869565 0.2083333333333333 0  2.643478260869565 0.2166666666666667 0  2.651739130434783 0.2083333333333333 0  2.651739130434783 0.2166666666666667 0  2.66 0.2083333333333333 0  2.66 0.2166666666666667 0  2.668260869565217 0.2083333333333333 0  2.668260869565217 0.2166666666666667 0  2.676521739130435 0.2083333333333333 0  2.676521739130435 0.2166666666666667 0  2.684782608695652 0.2083333333333333 0  2.684782608695652 0.2166666666666667 0  2.693043478260869 0.2083333333333333 0  2.693043478260869 0.2166666666666667 0  2.701304347826087 0.2083333333333333 0  2.701304347826087 0.2166666666666667 0  2.709565217391304 0.2083333333333333 0  2.709565217391304 0.2166666666666667 0  2.717826086956522 0.2083333333333333 0  2.717826086956522 0.2166666666666667 0  2.726086956521739 0.2083333333333333 0  2.726086956521739 0.2166666666666667 0  2.734347826086956 0.2083333333333333 0  2.734347826086956 0.2166666666666667 0  2.742608695652174 0.2083333333333333 0  2.742608695652174 0.2166666666666667 0  2.750869565217391 0.2083333333333333 0  2.750869565217391 0.2166666666666667 0  2.759130434782609 0.2083333333333333 0  2.759130434782609 0.2166666666666667 0  2.767391304347826 0.2083333333333333 0  2.767391304347826 0.2166666666666667 0  2.775652173913044 0.2083333333333333 0  2.775652173913044 0.2166666666666667 0  2.783913043478261 0.2083333333333333 0  2.783913043478261 0.2166666666666667 0  2.792173913043478 0.2083333333333333 0  2.792173913043478 0.2166666666666667 0  2.800434782608696 0.2083333333333333 0  2.800434782608696 0.2166666666666667 0  2.808695652173913 0.2166666666666667 0  2.81695652173913 0.2166666666666667 0  2.825217391304347 0.2166666666666667 0  2.346086956521739 0.2166666666666667 0  2.354347826086956 0.225 0  2.346086956521739 0.225 0  2.362608695652174 0.225 0  2.370869565217391 0.225 0  2.379130434782609 0.225 0  2.387391304347826 0.225 0  2.395652173913044 0.225 0  2.403913043478261 0.225 0  2.412173913043478 0.225 0  2.420434782608695 0.225 0  2.428695652173913 0.225 0  2.43695652173913 0.225 0  2.445217391304348 0.225 0  2.453478260869565 0.225 0  2.461739130434782 0.225 0  2.47 0.225 0  2.478260869565217 0.225 0  2.486521739130435 0.225 0  2.494782608695652 0.225 0  2.503043478260869 0.225 0  2.511304347826087 0.225 0  2.519565217391305 0.225 0  2.527826086956522 0.225 0  2.536086956521739 0.225 0  2.544347826086956 0.225 0  2.552608695652174 0.225 0  2.560869565217391 0.225 0  2.569130434782608 0.225 0  2.577391304347826 0.225 0  2.585652173913043 0.225 0  2.593913043478261 0.225 0  2.602173913043478 0.225 0  2.610434782608696 0.225 0  2.618695652173913 0.225 0  2.62695652173913 0.225 0  2.635217391304348 0.225 0  2.643478260869565 0.225 0  2.651739130434783 0.225 0  2.66 0.225 0  2.668260869565217 0.225 0  2.676521739130435 0.225 0  2.684782608695652 0.225 0  2.693043478260869 0.225 0  2.701304347826087 0.225 0  2.709565217391304 0.225 0  2.717826086956522 0.225 0  2.726086956521739 0.225 0  2.734347826086956 0.225 0  2.742608695652174 0.225 0  2.750869565217391 0.225 0  2.759130434782609 0.225 0  2.767391304347826 0.225 0  2.775652173913044 0.225 0  2.783913043478261 0.225 0  2.792173913043478 0.225 0  2.800434782608696 0.225 0  2.808695652173913 0.225 0  2.81695652173913 0.225 0  2.825217391304347 0.225 0  2.833478260869565 0.225 0  2.354347826086956 0.2333333333333333 0  2.346086956521739 0.2333333333333333 0  2.362608695652174 0.2333333333333333 0  2.370869565217391 0.2333333333333333 0  2.379130434782609 0.2333333333333333 0  2.387391304347826 0.2333333333333333 0  2.395652173913044 0.2333333333333333 0  2.403913043478261 0.2333333333333333 0  2.412173913043478 0.2333333333333333 0  2.420434782608695 0.2333333333333333 0  2.428695652173913 0.2333333333333333 0  2.43695652173913 0.2333333333333333 0  2.445217391304348 0.2333333333333333 0  2.453478260869565 0.2333333333333333 0  2.461739130434782 0.2333333333333333 0  2.47 0.2333333333333333 0  2.478260869565217 0.2333333333333333 0  2.486521739130435 0.2333333333333333 0  2.494782608695652 0.2333333333333333 0  2.503043478260869 0.2333333333333333 0  2.511304347826087 0.2333333333333333 0  2.519565217391305 0.2333333333333333 0  2.527826086956522 0.2333333333333333 0  2.536086956521739 0.2333333333333333 0  2.544347826086956 0.2333333333333333 0  2.552608695652174 0.2333333333333333 0  2.560869565217391 0.2333333333333333 0  2.569130434782608 0.2333333333333333 0  2.577391304347826 0.2333333333333333 0  2.585652173913043 0.2333333333333333 0  2.593913043478261 0.2333333333333333 0  2.602173913043478 0.2333333333333333 0  2.610434782608696 0.2333333333333333 0  2.618695652173913 0.2333333333333333 0  2.62695652173913 0.2333333333333333 0  2.635217391304348 0.2333333333333333 0  2.643478260869565 0.2333333333333333 0  2.651739130434783 0.2333333333333333 0  2.66 0.2333333333333333 0  2.668260869565217 0.2333333333333333 0  2.676521739130435 0.2333333333333333 0  2.684782608695652 0.2333333333333333 0  2.693043478260869 0.2333333333333333 0  2.701304347826087 0.2333333333333333 0  2.709565217391304 0.2333333333333333 0  2.717826086956522 0.2333333333333333 0  2.726086956521739 0.2333333333333333 0  2.734347826086956 0.2333333333333333 0  2.742608695652174 0.2333333333333333 0  2.750869565217391 0.2333333333333333 0  2.759130434782609 0.2333333333333333 0  2.767391304347826 0.2333333333333333 0  2.775652173913044 0.2333333333333333 0  2.783913043478261 0.2333333333333333 0  2.792173913043478 0.2333333333333333 0  2.800434782608696 0.2333333333333333 0  2.808695652173913 0.2333333333333333 0  2.81695652173913 0.2333333333333333 0  2.825217391304347 0.2333333333333333 0  2.833478260869565 0.2333333333333333 0  2.841739130434783 0.2333333333333333 0  2.354347826086956 0.2416666666666667 0  2.346086956521739 0.2416666666666667 0  2.362608695652174 0.2416666666666667 0  2.370869565217391 0.2416666666666667 0  2.379130434782609 0.2416666666666667 0  2.387391304347826 0.2416666666666667 0  2.395652173913044 0.2416666666666667 0  2.403913043478261 0.2416666666666667 0  2.412173913043478 0.2416666666666667 0  2.420434782608695 0.2416666666666667 0  2.428695652173913 0.2416666666666667 0  2.43695652173913 0.2416666666666667 0  2.445217391304348 0.2416666666666667 0  2.453478260869565 0.2416666666666667 0  2.461739130434782 0.2416666666666667 0  2.47 0.2416666666666667 0  2.478260869565217 0.2416666666666667 0  2.486521739130435 0.2416666666666667 0  2.494782608695652 0.2416666666666667 0  2.503043478260869 0.2416666666666667 0  2.511304347826087 0.2416666666666667 0  2.519565217391305 0.2416666666666667 0  2.527826086956522 0.2416666666666667 0  2.536086956521739 0.2416666666666667 0  2.544347826086956 0.2416666666666667 0  2.552608695652174 0.2416666666666667 0  2.560869565217391 0.2416666666666667 0  2.569130434782608 0.2416666666666667 0  2.577391304347826 0.2416666666666667 0  2.585652173913043 0.24166
[...]
<CellData  Scalars="sigma_m"> 
<DataArray  type="Float64"  Name="sigma_m"  format="ascii">0.0000000000000000e+00   1.1740405757101350e+06   1.1377104020418713e+06   1.2971351421708746e+06   1.3735692876442964e+06   1.3885634130331257e+06   1.5115086271526553e+06   1.4845825498212082e+06   1.6376725574991542e+06   1.2723385236767286e+06   1.3584815565088100e+06   3.3938103925917097e-03   5.0098493671858497e-03   0.0000000000000000e+00   0.0000000000000000e+00   0.0000000000000000e+00   0.0000000000000000e+00   0.0000000000000000e+00   0.0000000000000000e+00   0.0000000000000000e+00   0.0000000000000000e+00   0.0000000000000000e+00   0.0000000000000000e+00   0.0000000000000000e+00   0.0000000000000000e+00   0.0000000000000000e+00   0.0000000000000000e+00   0.0000000000000000e+00   0.0000000000000000e+00   0.0000000000000000e+00   0.0000000000000000e+00   0.0000000000000000e+00   0.0000000000000000e+00   0.0000000000000000e+00   0.0000000000000000e+00   0.0000000000000000e+00   0.0000000000000000e+00   0.0000000000000000e+00   0.0000000000000000e+00   0.0000000000000000e+00   0.0000000000000000e+00   0.0000000000000000e+00   0.0000000000000000e+00   0.0000000000000000e+00   0.0000000000000000e+00   0.0000000000000000e+00   0.0000000000000000e+00   0.0000000000000000e+00   0.0000000000000000e+00   0.0000000000000000e+00   0.0000000000000000e+00   0.0000000000000000e+00   0.0000000000000000e+00   3.9973191985704195e-09   0.0000000000000000e+00   5.5599708824779908e+05   6.4575703425473179e-03   8.9210297623995657e+05   8.2130135706465342e+05   8.5773684674244351e+05   8.5457844528256264e+05   9.1537310872376396e+05   9.0911275618683745e+05   9.6485973884068744e+05   9.6224799576504959e+05   9.9645058139433991e+05   9.9892432151842176e+05   1.0083729677308495e+06   1.0167082891180146e+06   9.9307082213997061e+05   1.0067902956761745e+06   9.3796076319984382e+05   9.5242181142878952e+05   4.5357697414472168e+03   7.9057930894980754e+05   0.0000000000000000e+00   5.0777986832854164e-04   0.0000000000000000e+00   0.0000000000000000e+00   0.0000000000000000e+00   0.0000000000000000e+00   0.0000000000000000e+00   0.0000000000000000e+00   0.0000000000000000e+00   0.0000000000000000e+00   0.0000000000000000e+00   0.0000000000000000e+00   0.0000000000000000e+00   0.0000000000000000e+00   0.0000000000000000e+00   0.0000000000000000e+00   0.0000000000000000e+00   0.0000000000000000e+00   0.0000000000000000e+00   0.0000000000000000e+00   0.0000000000000000e+00   0.0000000000000000e+00   0.0000000000000000e+00   0.0000000000000000e+00   0.0000000000000000e+00   0.0000000000000000e+00   0.0000000000000000e+00   0.0000000000000000e+00   0.0000000000000000e+00   0.0000000000000000e+00   0.0000000000000000e+00   0.0000000000000000e+00   0.0000000000000000e+00   0.0000000000000000e+00   0.0000000000000000e+00   0.0000000000000000e+00   0.0000000000000000e+00   0.0000000000000000e+00   0.0000000000000000e+00   1.1851551862937324e+06   1.0882139346547606e+06   1.3846141795689862e+06   1.3767486392056649e+06   1.5453595886188541e+06   1.6554333833957480e+06   1.7260376906283502e+06   1.7435468874366588e+06   1.6391415529778705e+06   1.6176951722459549e+06   3.2344783029980673e-02   9.2727648137041818e-02   0.0000000000000000e+00   0.0000000000000000e+00   0.0000000000000000e+00   0.0000000000000000e+00   0.0000000000000000e+00   0.0000000000000000e+00   0.0000000000000000e+00   0.0000000000000000e+00   0.0000000000000000e+00   0.0000000000000000e+00   0.0000000000000000e+00   0.0000000000000000e+00   0.0000000000000000e+00   0.0000000000000000e+00   0.0000000000000000e+00   0.0000000000000000e+00   0.0000000000000000e+00   0.0000000000000000e+00   0.0000000000000000e+00   0.0000000000000000e+00   0.0000000000000000e+00   0.0000000000000000e+00   0.0000000000000000e+00   0.0000000000000000e+00   0.0000000000000000e+00   0.0000000000000000e+00   0.0000000000000000e+00   0.0000000000000000e+00   0.0000000000000000e+00   0.0000000000000000e+00   0.0000000000000000e+00   0.0000000000000000e+00   0.0000000000000000e+00   0.0000000000000000e+00   0.0000000000000000e+00   0.0000000000000000e+00   0.0000000000000000e+00   0.0000000000000000e+00   0.0000000000000000e+00   0.0000000000000000e+00   0.0000000000000000e+00   0.0000000000000000e+00   0.0000000000000000e+00   0.0000000000000000e+00   1.8711448375162656e-06   0.0000000000000000e+00   7.8453956972114637e+05   9.2357669511431588e+00   8.2638252381438704e+05   8.3849991351885861e+05   9.0947067155023513e+05   9.0530971407130454e+05   9.6521211442925164e+05   9.5975942767059547e+05   9.9995256626281200e+05   9.9680875178296398e+05   1.0083127745356243e+06   1.0097853803666319e+06   9.8845648589094414e+05   9.9465265283247398e+05   9.3955147620694165e+05   9.4817343557322060e+05   8.6828049083822628e+05   8.6453090804444032e+05   6.4281034619355359e-01   7.7804527440792997e+05   0.0000000000000000e+00   7.9970320697421415e-08   0.0000000000000000e+00   0.0000000000000000e+00   0.0000000000000000e+00   0.0000000000000000e+00   0.0000000000000000e+00   0.0000000000000000e+00   0.0000000000000000e+00   0.0000000000000000e+00   0.0000000000000000e+00   0.0000000000000000e+00   0.0000000000000000e+00   0.0000000000000000e+00   0.0000000000000000e+00   0.0000000000000000e+00   0.0000000000000000e+00   0.0000000000000000e+00   0.0000000000000000e+00   0.0000000000000000e+00   0.0000000000000000e+00   0.0000000000000000e+00   0.0000000000000000e+00   0.0000000000000000e+00   0.0000000000000000e+00   0.0000000000000000e+00   0.0000000000000000e+00   0.0000000000000000e+00   0.0000000000000000e+00   0.0000000000000000e+00   0.0000000000000000e+00   0.0000000000000000e+00   0.0000000000000000e+00   0.0000000000000000e+00   0.0000000000000000e+00   0.0000000000000000e+00   0.0000000000000000e+00   0.0000000000000000e+00   0.0000000000000000e+00   1.4032342973553643e+06   1.3330974855183803e+06   1.6277605963364688e+06   1.6464937539627731e+06   1.8200439626674894e+06   1.9860337012488379e+06   1.7794523991528850e+06   1.7640972152866023e+06   3.7411322558300415e+00   1.9462448791325858e+01   0.0000000000000000e+00   0.0000000000000000e+00   0.0000000000000000e+00   0.0000000000000000e+00   0.0000000000000000e+00   0.0000000000000000e+00   0.0000000000000000e+00   0.0000000000000000e+00   0.0000000000000000e+00   0.0000000000000000e+00   0.0000000000000000e+00   0.0000000000000000e+00   0.0000000000000000e+00   0.0000000000000000e+00   0.0000000000000000e+00   0.0000000000000000e+00   0.0000000000000000e+00   0.0000000000000000e+00   0.0000000000000000e+00   0.0000000000000000e+00   0.0000000000000000e+00   0.0000000000000000e+00   0.0000000000000000e+00   0.0000000000000000e+00   0.0000000000000000e+00   0.0000000000000000e+00   0.0000000000000000e+00   0.0000000000000000e+00   0.0000000000000000e+00   0.0000000000000000e+00   0.0000000000000000e+00   0.0000000000000000e+00   0.0000000000000000e+00   0.0000000000000000e+00   0.0000000000000000e+00   0.0000000000000000e+00   0.0000000000000000e+00   0.0000000000000000e+00   0.0000000000000000e+00   0.0000000000000000e+00   0.0000000000000000e+00   0.0000000000000000e+00   0.0000000000000000e+00   0.0000000000000000e+00   0.0000000000000000e+00   0.0000000000000000e+00   0.0000000000000000e+00   0.0000000000000000e+00   6.2397475397827371e-03   0.0000000000000000e+00   7.0930680578586948e+05   2.3485037955717387e+04   8.9355486624484102e+05   8.7832290652272489e+05   9.6784230219338171e+05   9.5332351724797720e+05   1.0119302448090226e+06   1.0006589426272947e+06   1.0176162752718689e+06   1.0121677169961917e+06   9.9077384003389685e+05   9.9206723625034280e+05   9.4117812230496597e+05   9.4702120760873286e+05   8.9179052900576778e+05   8.9243016992632963e+05   8.4233693582379224e+05   9.4032628206226835e+05   1.9243509569065353e-04   5.0964159313849016e+05   0.0000000000000000e+00   0.0000000000000000e+00   0.0000000000000000e+00   0.0000000000000000e+00   0.0000000000000000e+00   0.0000000000000000e+00   0.0000000000000000e+00   0.0000000000000000e+00   0.0000000000000000e+00   0.0000000000000000e+00   0.0000000000000000e+00   0.0000000000000000e+00   0.0000000000000000e+00   0.0000000000000000e+00   0.0000000000000000e+00   0.0000000000000000e+00   0.0000000000000000e+00   0.0000000000000000e+00   0.0000000000000000e+00   0.0000000000000000e+00   0.0000000000000000e+00   0.0000000000000000e+00   0.0000000000000000e+00   0.0000000000000000e+00   0.0000000000000000e+00   0.0000000000000000e+00   0.0000000000000000e+00   0.0000000000000000e+00   0.0000000000000000e+00   0.0000000000000000e+00   0.0000000000000000e+00   0.0000000000000000e+00   0.0000000000000000e+00   0.0000000000000000e+00   0.0000000000000000e+00   0.0000000000000000e+00   0.0000000000000000e+00   0.0000000000000000e+00   0.0000000000000000e+00   1.7443168009287640e+06   1.6101762027312263e+06   2.1074597628684468e+06   1.9655324669143555e+06   2.0869735711111890e+06   2.3764465058528688e+06   1.8723272447169663e+03   1.0428362245338991e+04   0.0000000000000000e+00   0.0000000000000000e+00   0.0000000000000000e+00   0.0000000000000000e+00   0.0000000000000000e+00   0.0000000000000000e+00   0.0000000000000000e+00   0.0000000000000000e+00   0.0000000000000000e+00   0.0000000000000000e+00   0.0000000000000000e+00   0.0000000000000000e+00   0.0000000000000000e+00   0.0000000000000000e+00   0.0000000000000000e+00   0.0000000000000000e+00   0.0000000000000000e+00   0.0000000000000000e+00   0.0000000000000000e+00   0.0000000000000000e+00   0.0000000000000000e+00   0.0000000000000000e+00   0.0000000000000000e+00   0.0000000000000000e+00   0.0000000000000000e+00   0.0000000000000000e+00   0.0000000000000000e+00   0.0000000000000000e+00   0.0000000000000000e+00   0.0000000000000000e+00   0.0000000000000000e+00   0.0000000000000000e+00   0.0000000000000000e+00   0.0000000000000000e+00   0.0000000000000000e+00   0.0000000000000000e+00   0.0000000000000000e+00   0.0000000000000000e+00   0.0000000000000000e+00   0.0000000000000000e+00   0.0000000000000000e+00   0.0000000000000000e+00   0.0000000000000000e+00   0.0000000000000000e+00   0.0000000000000000e+00   0.0000000000000000e+00   0.0000000000000000e+00   0.0000000000000000e+00   0.0000000000000000e+00   0.0000000000000000e+00   0.0000000000000000e+00   0.0000000000000000e+00   2.0967373288383616e+01   0.0000000000000000e+00   8.8339457823095762e+05   5.1367473002319242e+05   9.7825279305933567e+05   9.5850560424894770e+05   1.0390211017209912e+06   1.0200752580480261e+06   1.0422123394969640e+06   1.0295742349523751e+06   1.0068274818099625e+06   1.0037401972389482e+06   9.4923284027090005e+05   9.5594410953192972e+05   8.7788020024957776e+05   8.9375750878750591e+05   8.1348988806178921e+05   8.3710302572346944e+05   6.0892431576363766e+05   6.7551650437488011e+05   2.3130105029697201e-07   2.6999273271860380e+05   0.0000000000000000e+00   0.0000000000000000e+00   0.0000000000000000e+00   0.0000000000000000e+00   0.0000000000000000e+00   0.0000000000000000e+00   0.0000000000000000e+00   0.0000000000000000e+00   0.0000000000000000e+00   0.0000000000000000e+00   0.0000000000000000e+00   0.0000000000000000e+00   0.0000000000000000e+00   0.0000000000000000e+00   0.0000000000000000e+00   0.0000000000000000e+00   0.0000000000000000e+00   0.0000000000000000e+00   0.0000000000000000e+00   0.0000000000000000e+00   0.0000000000000000e+00   0.0000000000000000e+00   0.0000000000000000e+00   0.0000000000000000e+00   0.0000000000000000e+00   0.0000000000000000e+00   0.0000000000000000e+00   0.0000000000000000e+00   0.0000000000000000e+00   0.0000000000000000e+00   0.0000000000000000e+00   0.0000000000000000e+00   0.0000000000000000e+00   0.0000000000000000e+00   0.0000000000000000e+00   0.0000000000000000e+00   0.0000000000000000e+00   0.0000000000000000e+00   0.0000000000000000e+00   2.0421535854424050e+06   1.8585932943123486e+06   2.1527559264959628e+06   2.2931363525923798e+06   5.7338996189444186e+05   3.3883098164772766e+05   0.0000000000000000e+00   0.0000000000000000e+00   0.0000000000000000e+00   0.0000000000000000e+00   0.0000000000000000e+00   0.0000000000000000e+00   0.0000000000000000e+00   0.0000000000000000e+00   0.0000000000000000e+00   0.0000000000000000e+00   0.0000000000000000e+00   0.0000000000000000e+00   0.0000000000000000e+00   0.0000000000000000e+00   0.0000000000000000e+00   0.0000000000000000e+00   0.0000000000000000e+00   0.0000000000000000e+00   0.0000000000000000e+00   0.0000000000000000e+00   0.0000000000000000e+00   0.0000000000000000e+00   0.0000000000000000e+00   0.0000000000000000e+00   0.0000000000000000e+00   0.0000000000000000e+00   0.0000000000000000e+00   0.0000000000000000e+00   0.0000000000000000e+00   0.0000000000000000e+00   0.0000000000000000e+00   0.0000000000000000e+00   0.0000000000000000e+00   0.0000000000000000e+00   0.0000000000000000e+00   0.0000000000000000e+00   0.0000000000000000e+00   0.0000000000000000e+00   0.0000000000000000e+00   0.0000000000000000e+00   0.0000000000000000e+00   0.0000000000000000e+00   0.0000000000000000e+00   0.0000000000000000e+00   0.0000000000000000e+00   0.0000000000000000e+00   0.0000000000000000e+00   0.0000000000000000e+00   0.0000000000000000e+00   0.0000000000000000e+00   0.0000000000000000e+00   0.0000000000000000e+00   0.0000000000000000e+00   0.0000000000000000e+00   0.0000000000000000e+00   0.0000000000000000e+00   2.1356599971605970e+04   1.9418118082779240e-08   9.9545318344817031e+05   8.8641343665251764e+05   1.0964147075642257e+06   1.0696752350298339e+06   1.0944902276036325e+06   1.0731385508253037e+06   1.0498975554482744e+06   1.0389752759823921e+06   9.9236918184588128e+05   9.9122403190270625e+05   9.1966976432940282e+05   9.2876002800989675e+05   8.2851489576215949e+05   8.4754642997439962e+05   6.8119898047951667e+05   7.0095467390982492e+05   4.4096763043233362e+05   4.9866371225202479e+05   2.2935710673103842e-09   1.6273632730285895e+04   0.0000000000000000e+00   0.0000000000000000e+00   0.0000000000000000e+00   0.0000000000000000e+00   0.0000000000000000e+00   0.0000000000000000e+00   0.0000000000000000e+00   0.0000000000000000e+00   0.0000000000000000e+00   0.0000000000000000e+00   0.0000000000000000e+00   0.0000000000000000e+00   0.0000000000000000e+00   0.0000000000000000e+00   0.0000000000000000e+00   0.0000000000000000e+00   0.0000000000000000e+00   0.0000000000000000e+00   0.0000000000000000e+00   0.0000000000000000e+00   0.0000000000000000e+00   0.0000000000000000e+00   0.0000000000000000e+00   0.0000000000000000e+00   0.0000000000000000e+00   0.0000000000000000e+00   0.0000000000000000e+00   0.0000000000000000e+00   0.0000000000000000e+00   0.0000000000000000e+00   0.0000000000000000e+00   0.0000000000000000e+00   0.0000000000000000e+00   0.0000000000000000e+00   0.0000000000000000e+00   0.0000000000000000e+00   0.0000000000000000e+00   0.0000000000000000e+00   0.0000000000000000e+00   1.8670575157314104e+06   2.0809645408667682e+06   1.4400986861516454e+06   1.2885700059681959e+06   0.0000000000000000e+00   3.7825269889122957e-10   0.0000000000000000e+00   0.0000000000000000e+00   0.0000000000000000e+00   0.0000000000000000e+00   0.0000000000000000e+00   0.0000000000000000e+00   0.0000000000000000e+00   0.0000000000000000e+00   0.0000000000000000e+00   0.0000000000000000e+00   0.0000000000000000e+00   0.0000000000000000e+00   0.0000000000000000e+00   0.0000000000000000e+00   0.0000000000000000e+00   0.0000000000000000e+00   0.0000000000000000e+00   0.0000000000000000e+00   0.0000000000000000e+00   0.0000000000000000e+00   0.0000000000000000e+00   0.0000000000000000e+00   0.0000000000000000e+00   0.0000000000000000e+00   0.0000000000000000e+00   0.0000000000000000e+00   0.0000000000000000e+00   0.0000000000000000e+00   0.0000000000000000e+00   0.0000000000000000e+00   0.0000000000000000e+00   0.0000000000000000e+00   0.0000000000000000e+00   0.0000000000000000e+00   0.0000000000000000e+00   0.0000000000000000e+00   0.0000000000000000e+00   0.0000000000000000e+00   0.0000000000000000e+00   0.0000000000000000e+00   0.0000000000000000e+00   0.0000000000000000e+00   0.0000000000000000e+00   0.0000000000000000e+00   0.0000000000000000e+00   0.0000000000000000e+00   0.0000000000000000e+00   0.0000000000000000e+00   0.0000000000000000e+00   0.0000000000000000e+00   0.0000000000000000e+00   0.0000000000000000e+00   0.0000000000000000e+00   0.0000000000000000e+00   0.0000000000000000e+00   0.0000000000000000e+00   0.0000000000000000e+00   0.0000000000000000e+00   7.5028636561302771e+05   7.6102329441434470e-05   1.2474069859547229e+06   1.1193933279038128e+06   1.1957612681076133e+06   1.1775003318252556e+06   1.1222106133245651e+06   1.1079894743540375e+06   1.0632505047106505e+06   1.0545997887584292e+06   9.9152806609662704e+05   9.9146751500362635e+05   8.9169185709242534e+05   9.0203790281383600e+05   7.4433708336891874e+05   7.6276331840873789e+05   5.6105484584707348e+05   5.7761777220454765e+05   2.8986138344239519e+05   3.6504033914860501e+05   7.2872236469874119e-11   4.4865744982243433e+02   0.0000000000000000e+00   0.0000000000000000e+00   0.0000000000000000e+00   0.0000000000000000e+00   0.0000000000000000e+00   0.0000000000000000e+00   0.0000000000000000e+00   0.0000000000000000e+00   0.0000000000000000e+00   0.0000000000000000e+00   0.0000000000000000e+00   0.0000000000000000e+00   0.0000000000000000e+00   0.0000000000000000e+00   0.0000000000000000e+00   0.0000000000000000e+00   0.0000000000000000e+00   0.0000000000000000e+00   0.0000000000000000e+00   0.0000000000000000e+00   0.0000000000000000e+00   0.0000000000000000e+00   0.0000000000000000e+00   0.0000000000000000e+00   0.0000000000000000e+00   0.0000000000000000e+00   0.0000000000000000e+00   0.0000000000000000e+00   0.0000000000000000e+00   0.0000000000000000e+00   0.0000000000000000e+00   0.0000000000000000e+00   0.0000000000000000e+00   0.0000000000000000e+00   0.0000000000000000e+00   0.0000000000000000e+00   0.0000000000000000e+00   0.0000000000000000e+00   0.0000000000000000e+00   1.7212093486766093e+06   4.3534531985412235e-08   2.6907219996026505e-07   0.0000000000000000e+00   0.0000000000000000e+00   0.0000000000000000e+00   0.0000000000000000e+00   0.0000000000000000e+00   0.0000000000000000e+00   0.0000000000000000e+00   0.0000000000000000e+00   0.0000000000000000e+00   0.0000000000000000e+00   0.0000000000000000e+00   0.0000000000000000e+00   0.0000000000000000e+00   0.0000000000000000e+00   0.0000000000000000e+00   0.0000000000000000e+00   0.0000000000000000e+00   0.0000000000000000e+00   0.0000000000000000e+00   0.0000000000000000e+00   0.0000000000000000e+00   0.0000000000000000e+00   0.0000000000000000e+00   0.0000000000000000e+00   0.0000000000000000e+00   0.0000000000000000e+00   0.0000000000000000e+00   0.0000000000000000e+00   0.0000000000000000e+00   0.0000000000000000e+00   0.0000000000000000e+00   0.0000000000000000e+00   0.0000000000000000e+00   0.0000000000000000e+00   0.0000000000000000e+00   0.0000000000000000e+00   0.0000000000000000e+00   0.0000000000000000e+00   0.0000000000000000e+00   0.0000000000000000e+00   0.0000000000000000e+00   0.0000000000000000e+00   0.0000000000000000e+00   0.0000000000000000e+00   0.0000000000000000e+00   0.0000000000000000e+00   0.0000000000000000e+00   0.0000000000000000e+00   0.0000000000000000e+00   0.0000000000000000e+00   0.0000000000000000e+00   0.0000000000000000e+00   0.0000000000000000e+00   0.0000000000000000e+00   0.0000000000000000e+00   0.0000000000000000e+00   0.0000000000000000e+00   0.0000000000000000e+00   0.0000000000000000e+00   0.0000000000000000e+00   3.0225551762756148e-08   0.0000000000000000e+00   9.9639777599703486e+05   7.2574889308373233e-02   1.3512380665717984e+06   1.2779827471723403e+06   1.2168109108628898e+06   1.2049226912801971e+06   1.1578036618794394e+06   1.1448856419711469e+06   1.0876852870327637e+06   1.0804050679491973e+06   9.8364608786729118e+05   9.8552765776976594e+05   8.35482859