<?xml version="1.0"?>
<VTKFile type="UnstructuredGrid"  version="0.1"  >
<UnstructuredGrid>
<Piece  NumberOfPoints="2398" NumberOfCells="4596">
<Points>
<DataArray  type="Float64"  NumberOfComponents="3"  format="ascii">0.4047826086956521 0 0  0.4130434782608696 0 0  0.4130434782608696 0.008333333333333333 0  0.4213043478260869 0 0  0.4213043478260869 0.008333333333333333 0  0.4295652173913043 0 0  0.4295652173913043 0.008333333333333333 0  0.4378260869565217 0 0  0.4378260869565217 0.008333333333333333 0  0.4460869565217391 0 0  0.4460869565217391 0.008333333333333333 0  0.4543478260869565 0 0  0.4543478260869565 0.008333333333333333 0  0.4626086956521739 0 0  0.4626086956521739 0.008333333333333333 0  0.4708695652173913 0 0  0.4708695652173913 0.008333333333333333 0  0.4791304347826086 0 0  0.4791304347826086 0.008333333333333333 0  0.4873913043478261 0 0  0.4873913043478261 0.008333333333333333 0  0.4956521739130435 0 0  0.4956521739130435 0.008333333333333333 0  0.5039130434782608 0 0  0.5039130434782608 0.008333333333333333 0  0.5121739130434783 0 0  0.5121739130434783 0.008333333333333333 0  0.5204347826086956 0 0  0.5204347826086956 0.008333333333333333 0  0.528695652173913 0 0  0.528695652173913 0.008333333333333333 0  0.5369565217391304 0 0  0.5369565217391304 0.008333333333333333 0  0.5452173913043478 0 0  0.5452173913043478 0.008333333333333333 0  0.5534782608695652 0 0  0.5534782608695652 0.008333333333333333 0  0.5617391304347825 0 0  0.5617391304347825 0.008333333333333333 0  0.57 0 0  0.57 0.008333333333333333 0  0.5782608695652174 0 0  0.5782608695652174 0.008333333333333333 0  0.5865217391304348 0 0  0.5865217391304348 0.008333333333333333 0  0.5947826086956521 0 0  0.5947826086956521 0.008333333333333333 0  0.6030434782608696 0 0  0.6030434782608696 0.008333333333333333 0  0.6113043478260869 0 0  0.6113043478260869 0.008333333333333333 0  0.6195652173913043 0 0  0.6195652173913043 0.008333333333333333 0  0.6278260869565218 0 0  0.6278260869565218 0.008333333333333333 0  0.6360869565217391 0 0  0.6360869565217391 0.008333333333333333 0  0.6443478260869565 0 0  0.6443478260869565 0.008333333333333333 0  0.6526086956521739 0 0  0.6526086956521739 0.008333333333333333 0  0.6608695652173913 0 0  0.6608695652173913 0.008333333333333333 0  0.6691304347826087 0 0  0.6691304347826087 0.008333333333333333 0  0.677391304347826 0 0  0.677391304347826 0.008333333333333333 0  0.6856521739130435 0 0  0.6856521739130435 0.008333333333333333 0  0.6939130434782609 0 0  0.6939130434782609 0.008333333333333333 0  0.7021739130434783 0 0  0.7021739130434783 0.008333333333333333 0  0.7104347826086956 0 0  0.7104347826086956 0.008333333333333333 0  0.718695652173913 0 0  0.718695652173913 0.008333333333333333 0  0.7269565217391304 0.008333333333333333 0  0.4213043478260869 0.01666666666666667 0  0.4295652173913043 0.01666666666666667 0  0.4378260869565217 0.01666666666666667 0  0.4460869565217391 0.01666666666666667 0  0.4543478260869565 0.01666666666666667 0  0.4626086956521739 0.01666666666666667 0  0.4708695652173913 0.01666666666666667 0  0.4791304347826086 0.01666666666666667 0  0.4873913043478261 0.01666666666666667 0  0.4956521739130435 0.01666666666666667 0  0.5039130434782608 0.01666666666666667 0  0.5121739130434783 0.01666666666666667 0  0.5204347826086956 0.01666666666666667 0  0.528695652173913 0.01666666666666667 0  0.5369565217391304 0.01666666666666667 0  0.5452173913043478 0.01666666666666667 0  0.5534782608695652 0.01666666666666667 0  0.5617391304347825 0.01666666666666667 0  0.57 0.01666666666666667 0  0.5782608695652174 0.01666666666666667 0  0.5865217391304348 0.01666666666666667 0  0.5947826086956521 0.01666666666666667 0  0.6030434782608696 0.01666666666666667 0  0.6113043478260869 0.01666666666666667 0  0.6195652173913043 0.01666666666666667 0  0.6278260869565218 0.01666666666666667 0  0.6360869565217391 0.01666666666666667 0  0.6443478260869565 0.01666666666666667 0  0.6526086956521739 0.01666666666666667 0  0.6608695652173913 0.01666666666666667 0  0.6691304347826087 0.01666666666666667 0  0.677391304347826 0.01666666666666667 0  0.6856521739130435 0.01666666666666667 0  0.6939130434782609 0.01666666666666667 0  0.7021739130434783 0.01666666666666667 0  0.7104347826086956 0.01666666666666667 0  0.718695652173913 0.01666666666666667 0  0.7269565217391304 0.01666666666666667 0  0.7352173913043478 0.01666666666666667 0  0.4295652173913043 0.025 0  0.4378260869565217 0.025 0  0.4460869565217391 0.025 0  0.4543478260869565 0.025 0  0.4626086956521739 0.025 0  0.4708695652173913 0.025 0  0.4791304347826086 0.025 0  0.4873913043478261 0.025 0  0.4956521739130435 0.025 0  0.5039130434782608 0.025 0  0.5121739130434783 0.025 0  0.5204347826086956 0.025 0  0.528695652173913 0.025 0  0.5369565217391304 0.025 0  0.5452173913043478 0.025 0  0.5534782608695652 0.025 0  0.5617391304347825 0.025 0  0.57 0.025 0  0.5782608695652174 0.025 0  0.5865217391304348 0.025 0  0.5947826086956521 0.025 0  0.6030434782608696 0.025 0  0.6113043478260869 0.025 0  0.6195652173913043 0.025 0  0.6278260869565218 0.025 0  0.6360869565217391 0.025 0  0.6443478260869565 0.025 0  0.6526086956521739 0.025 0  0.6608695652173913 0.025 0  0.6691304347826087 0.025 0  0.677391304347826 0.025 0  0.6856521739130435 0.025 0  0.6939130434782609 0.025 0  0.7021739130434783 0.025 0  0.7104347826086956 0.025 0  0.718695652173913 0.025 0  0.7269565217391304 0.025 0  0.7352173913043478 0.025 0  0.7434782608695653 0.025 0  0.4378260869565217 0.03333333333333333 0  0.4460869565217391 0.03333333333333333 0  0.4543478260869565 0.03333333333333333 0  0.4626086956521739 0.03333333333333333 0  0.4708695652173913 0.03333333333333333 0  0.4791304347826086 0.03333333333333333 0  0.4873913043478261 0.03333333333333333 0  0.4956521739130435 0.03333333333333333 0  0.5039130434782608 0.03333333333333333 0  0.5121739130434783 0.03333333333333333 0  0.5204347826086956 0.03333333333333333 0  0.528695652173913 0.03333333333333333 0  0.5369565217391304 0.03333333333333333 0  0.5452173913043478 0.03333333333333333 0  0.5534782608695652 0.03333333333333333 0  0.5617391304347825 0.03333333333333333 0  0.57 0.03333333333333333 0  0.5782608695652174 0.03333333333333333 0  0.5865217391304348 0.03333333333333333 0  0.5947826086956521 0.03333333333333333 0  0.6030434782608696 0.03333333333333333 0  0.6113043478260869 0.03333333333333333 0  0.6195652173913043 0.03333333333333333 0  0.6278260869565218 0.03333333333333333 0  0.6360869565217391 0.03333333333333333 0  0.6443478260869565 0.03333333333333333 0  0.6526086956521739 0.03333333333333333 0  0.6608695652173913 0.03333333333333333 0  0.6691304347826087 0.03333333333333333 0  0.677391304347826 0.03333333333333333 0  0.6856521739130435 0.03333333333333333 0  0.6939130434782609 0.03333333333333333 0  0.7021739130434783 0.03333333333333333 0  0.7104347826086956 0.03333333333333333 0  0.718695652173913 0.03333333333333333 0  0.7269565217391304 0.03333333333333333 0  0.7352173913043478 0.03333333333333333 0  0.7434782608695653 0.03333333333333333 0  0.7517391304347827 0.03333333333333333 0  0.4460869565217391 0.04166666666666666 0  0.4543478260869565 0.04166666666666666 0  0.4626086956521739 0.04166666666666666 0  0.4708695652173913 0.04166666666666666 0  0.4791304347826086 0.04166666666666666 0  0.4873913043478261 0.04166666666666666 0  0.4956521739130435 0.04166666666666666 0  0.5039130434782608 0.04166666666666666 0  0.5121739130434783 0.04166666666666666 0  0.5204347826086956 0.04166666666666666 0  0.528695652173913 0.04166666666666666 0  0.5369565217391304 0.04166666666666666 0  0.5452173913043478 0.04166666666666666 0  0.5534782608695652 0.04166666666666666 0  0.5617391304347825 0.04166666666666666 0  0.57 0.04166666666666666 0  0.5782608695652174 0.04166666666666666 0  0.5865217391304348 0.04166666666666666 0  0.5947826086956521 0.04166666666666666 0  0.6030434782608696 0.04166666666666666 0  0.6113043478260869 0.04166666666666666 0  0.6195652173913043 0.04166666666666666 0  0.6278260869565218 0.04166666666666666 0  0.6360869565217391 0.04166666666666666 0  0.6443478260869565 0.04166666666666666 0  0.6526086956521739 0.04166666666666666 0  0.6608695652173913 0.04166666666666666 0  0.6691304347826087 0.04166666666666666 0  0.677391304347826 0.04166666666666666 0  0.6856521739130435 0.04166666666666666 0  0.6939130434782609 0.04166666666666666 0  0.7021739130434783 0.04166666666666666 0  0.7104347826086956 0.04166666666666666 0  0.718695652173913 0.04166666666666666 0  0.7269565217391304 0.04166666666666666 0  0.7352173913043478 0.04166666666666666 0  0.7434782608695653 0.04166666666666666 0  0.7517391304347827 0.04166666666666666 0  0.7599999999999999 0.04166666666666666 0  0.4543478260869565 0.05 0  0.4626086956521739 0.05 0  0.4708695652173913 0.05 0  0.4791304347826086 0.05 0  0.4873913043478261 0.05 0  0.4956521739130435 0.05 0  0.5039130434782608 0.05 0  0.5121739130434783 0.05 0  0.5204347826086956 0.05 0  0.528695652173913 0.05 0  0.5369565217391304 0.05 0  0.5452173913043478 0.05 0  0.5534782608695652 0.05 0  0.5617391304347825 0.05 0  0.57 0.05 0  0.5782608695652174 0.05 0  0.5865217391304348 0.05 0  0.5947826086956521 0.05 0  0.6030434782608696 0.05 0  0.6113043478260869 0.05 0  0.6195652173913043 0.05 0  0.6278260869565218 0.05 0  0.6360869565217391 0.05 0  0.6443478260869565 0.05 0  0.6526086956521739 0.05 0  0.6608695652173913 0.05 0  0.6691304347826087 0.05 0  0.677391304347826 0.05 0  0.6856521739130435 0.05 0  0.6939130434782609 0.05 0  0.7021739130434783 0.05 0  0.7104347826086956 0.05 0  0.718695652173913 0.05 0  0.7269565217391304 0.05 0  0.7352173913043478 0.05 0  0.7434782608695653 0.05 0  0.7517391304347827 0.05 0  0.7599999999999999 0.05 0  0.7682608695652173 0.05 0  0.4626086956521739 0.05833333333333333 0  0.4708695652173913 0.05833333333333333 0  0.4791304347826086 0.05833333333333333 0  0.4873913043478261 0.05833333333333333 0  0.4956521739130435 0.05833333333333333 0  0.503913043478260
[...]
<CellData  Scalars="rho"> 
<DataArray  type="Float64"  Name="rho"  format="ascii">5.0121885451051096e-01   4.1961980396725240e-01   4.5178631262772018e-01   3.5881276559521375e-01   3.8535945822852041e-01   2.8980915287335746e-01   3.3169286964986533e-01   2.1331643447777796e-01   2.7529909449308071e-01   2.2611798110847736e-01   2.2153470182224005e-01   2.7727676201654311e-01   2.5683808334022423e-01   3.8044741543617872e-01   3.4961753533936657e-01   5.1546966099370806e-01   4.5514940607562393e-01   6.0293234204929025e-01   5.7912856693016812e-01   6.5943342577302766e-01   6.7414166575607626e-01   9.2194162639312294e-01   7.6872392899866926e-01   9.1944934564980862e-01   9.1901770349202716e-01   9.1810636803235979e-01   9.1733074684559690e-01   9.1893637973074993e-01   9.1656817990781103e-01   9.2066437393690548e-01   9.1851196567537630e-01   9.2285594572789187e-01   9.2133296860070590e-01   9.2157612459407856e-01   9.2020368241735206e-01   9.2372046149306974e-01   9.2170102659612274e-01   9.2734357426694469e-01   9.2584632731077521e-01   9.2785494676228575e-01   9.2739362581726981e-01   9.2624437271087801e-01   9.2610764157562331e-01   9.2116481011593221e-01   9.2222829665982209e-01   9.1978170259744574e-01   9.1986004432302515e-01   9.1629549068464522e-01   9.1659858162001873e-01   9.1453777954531668e-01   9.1444093667677251e-01   9.1122682266651167e-01   9.1204254437344190e-01   9.0850620476223576e-01   9.0905786125503785e-01   9.0547820369511034e-01   9.0552102565090853e-01   9.0131972095155499e-01   9.0164785819716886e-01   8.9797264291686618e-01   8.9820957565707038e-01   8.9377569737410922e-01   8.9422288741090450e-01   8.9137105999853294e-01   8.9117156252562690e-01   8.8945172118729976e-01   8.8912790728920033e-01   9.0400203550662350e-01   9.0375776940344266e-01   9.0257695765028290e-01   9.0215098140558814e-01   9.0159184101692935e-01   9.0101188093003659e-01   9.0121615983895487e-01   9.0044456201374556e-01   9.0879140245257839e-01   4.4678053100956511e-01   3.8741775595866068e-01   4.2071911745628382e-01   3.3828826549964330e-01   3.6734611453532240e-01   2.8629011330734094e-01   3.0743964000922569e-01   2.3958382567703390e-01   2.4602853042160580e-01   2.7938920877703766e-01   2.6679604258651496e-01   3.7373675630036896e-01   3.5072004229786347e-01   4.9790784962842272e-01   4.3674899209978651e-01   5.7372534148050813e-01   5.4612572358535039e-01   6.7923052309018639e-01   6.3220816553892556e-01   7.7066336537561853e-01   7.1682051132649627e-01   9.1340091075404817e-01   9.1034183283821490e-01   9.1277478886876340e-01   9.0907416389551010e-01   9.1245334073888296e-01   9.0906386537839801e-01   9.1544845260055074e-01   9.1176566781403878e-01   9.1795774779114125e-01   9.1426466026360076e-01   9.1693382328607886e-01   9.1370826540118377e-01   9.1825878292687091e-01   9.1527453670679104e-01   9.2270750849894867e-01   9.1997637245343311e-01   9.2386767253010871e-01   9.2057216800151997e-01   9.2227923122166611e-01   9.2050240849084253e-01   9.1827974987410765e-01   9.1663983645356639e-01   9.1577625687549669e-01   9.1422951513211292e-01   9.1234424754890764e-01   9.1067811963938650e-01   9.1051119611582354e-01   9.0854724241509288e-01   9.0794507268413793e-01   9.0523596880365509e-01   9.0439542947033236e-01   9.0248625419598838e-01   9.0063190596165699e-01   8.9915971740098966e-01   8.9779277067008234e-01   8.9536914300713810e-01   8.9343855792778859e-01   8.9186263418321676e-01   8.8930843338535270e-01   8.8751237097850633e-01   8.8689816072301397e-01   8.8497093940937066e-01   8.8496276821460573e-01   8.8288470292385024e-01   8.9988444374331389e-01   8.9808663473043004e-01   8.9839011343552300e-01   8.9632569965346320e-01   8.9743509339466898e-01   8.9517051862187724e-01   8.9705598364601336e-01   8.9460401366402287e-01   9.0579884837632418e-01   9.0332883598823910e-01   9.0392856662797538e-01   4.4252362513915211e-01   3.8976304669649026e-01   4.2829480860779573e-01   3.3995550072948966e-01   3.8354377155548980e-01   3.2431019883538365e-01   3.4195337505249213e-01   3.1267724939753860e-01   3.1137224366155603e-01   3.6359928062485958e-01   3.3687109403783788e-01   4.5944648731258581e-01   3.8394745412475301e-01   5.3743316799735918e-01   4.9079220276998209e-01   6.1114644669018092e-01   5.4308051694774395e-01   6.4117803680708585e-01   6.2782395722468509e-01   7.7206814008282176e-01   6.5487002624819779e-01   8.9897344592349337e-01   7.7433483672840964e-01   9.0116050901705191e-01   8.9453311010182091e-01   9.0375060156344333e-01   8.9688379347396230e-01   9.0683618996934667e-01   9.0009017140739966e-01   9.0678130910643306e-01   9.0351213986820234e-01   9.0853114230010856e-01   9.0325096080437239e-01   9.1062918147738225e-01   9.0489342827302988e-01   9.1101837396010332e-01   9.0631986831945066e-01   9.1076507652735705e-01   9.0615246106954828e-01   9.0878466508018185e-01   9.0535583896925720e-01   9.0562240740239353e-01   9.0303944623031152e-01   9.0358307880285293e-01   9.0034097132490931e-01   9.0051805603922452e-01   8.9730428328598610e-01   8.9820341047495800e-01   8.9545932984323839e-01   8.9455641066766300e-01   8.9140804115287720e-01   8.9053316391338500e-01   8.8738972924480564e-01   8.8684611083026343e-01   8.8358695768238549e-01   8.8210055379709207e-01   8.7872520555590961e-01   8.7936167832089362e-01   8.7584370313646565e-01   8.7710346155284247e-01   8.7343829033996445e-01   8.7498752535911095e-01   8.7116611399814448e-01   8.9075005636645455e-01   8.8723290365905993e-01   8.8919120164189280e-01   8.8541919772561084e-01   8.8824531868343637e-01   8.8425887227673494e-01   8.8788053758150343e-01   8.8370499308694161e-01   8.9729969655383246e-01   8.9329748105003182e-01   8.8054088955973808e-01   8.9391057638235616e-01   8.7707306577662070e-01   4.6462897272574105e-01   4.1600920071903247e-01   4.5677148782789762e-01   3.6729126398112977e-01   4.0213428492577658e-01   3.5180851032090116e-01   3.6573471593089463e-01   3.6087858554661573e-01   3.5071628725332027e-01   3.9671027659699737e-01   3.6053902194767057e-01   4.6104492965379074e-01   4.1935548681892665e-01   4.9190613914651121e-01   4.3448042582737373e-01   5.6592178236409529e-01   4.9847903640652041e-01   6.2904507996799086e-01   5.5273050277679581e-01   6.4375008121066135e-01   6.0885575920764212e-01   7.9851919973482854e-01   6.2362662750393716e-01   8.1556459351609756e-01   7.0969610239328362e-01   8.8934105604655178e-01   7.6617863895793870e-01   8.8986101519496075e-01   8.7431894762710027e-01   8.8788255961083240e-01   8.7376137493646366e-01   8.8680447843825039e-01   8.7143740131270253e-01   8.8838200592852723e-01   8.6991260560279160e-01   8.8698404407983023e-01   8.7454873911266195e-01   8.8470390260079790e-01   8.7166481842761745e-01   8.8069665918575779e-01   8.7202618786779174e-01   8.8042132986034294e-01   8.6794543253020062e-01   8.7821642687644963e-01   8.6590662140610342e-01   8.7457764721290732e-01   8.6242546308263757e-01   8.7222088432876055e-01   8.5985981844862813e-01   8.6796255045609350e-01   8.5668001330269827e-01   8.6483154077334412e-01   8.5351702902498050e-01   8.6243575522175298e-01   8.5121132250088427e-01   8.6057635980211111e-01   8.4931579963376147e-01   8.5866439071564782e-01   8.4721232205706509e-01   8.5668692652217715e-01   8.4509568099924404e-01   8.7498336850007685e-01   8.6396780936137474e-01   8.7424970403505176e-01   8.6314781407819086e-01   8.7410578357043356e-01   8.6285205813607257e-01   8.7402731877896778e-01   8.6210637171340088e-01   8.8440087192930050e-01   8.6317525285475039e-01   8.6614968803227277e-01   8.7531263296434281e-01   8.6759869602289885e-01   8.5787718684656966e-01   8.3943576401987796e-01   4.9713816059647264e-01   4.4002195220265972e-01   4.8514785409846967e-01   3.8291083865478753e-01   4.1276211181032391e-01   3.4080889375676465e-01   3.5231547551379505e-01   3.2497071698067914e-01   3.1278612243078308e-01   3.7883609016830250e-01   2.7031194792221552e-01   3.6580375655171393e-01   3.4564907574772041e-01   4.0752396546008784e-01   3.4149481163997153e-01   4.4900767166384764e-01   3.7356224680417710e-01   5.0039821372144755e-01   4.2810192032972028e-01   5.0599121271856584e-01   4.0894505787335328e-01   5.4694758669037791e-01   4.3627176397382106e-01   5.9332294086656201e-01   4.6569378114969540e-01   6.2225080249806797e-01   4.9485690666848220e-01   6.5261094923784235e-01   5.2463995459480162e-01   8.3662646642176497e-01   5.4506483907030590e-01   8.3517459483607881e-01   5.6357914398268616e-01   8.4593913382745145e-01   7.2185835166239043e-01   8.1746194079070000e-01   7.9778936390049238e-01   8.1710075876648103e-01   7.9250364657174788e-01   8.3121140611412681e-01   7.8756677984605283e-01   8.2746705178360114e-01   8.2418594482434859e-01   8.2466773098695356e-01   8.2220669444313366e-01   8.1999531740823417e-01   7.9661545188069816e-01   8.1788074354610496e-01   7.9485360486867684e-01   8.1759458000749452e-01   8.1352273685100895e-01   8.1778757816844450e-01   8.1085375062501719e-01   8.2264053107215873e-01   8.0827207074379681e-01   8.2052841234779283e-01   8.0608164279878103e-01   8.1897742962727860e-01   8.0441329504300141e-01   8.3928262367437045e-01   8.2503730835523958e-01   8.3883423075309715e-01   8.2442865273815147e-01   8.3898865596052319e-01   8.2440973784173133e-01   8.3600175716607961e-01   8.1922568832704679e-01   8.4804046833974112e-01   8.2063511809097534e-01   8.5011471858091059e-01   8.3397218088698422e-01   8.3195204572422010e-01   8.1525330997385181e-01   8.1278948389419259e-01   7.9547002665761635e-01   7.9951503025872150e-01   5.2045622292532312e-01   4.2810027781438970e-01   4.8723943625783578e-01   3.4719126906586112e-01   3.7942545851666981e-01   2.6772807660648312e-01   2.8386656439737129e-01   1.9976133677476088e-01   1.8100687994594558e-01   2.0819012701509293e-01   1.3272849270240208e-01   1.7614809592695696e-01   1.3682958020856403e-01   2.1354413534572242e-01   9.6771699386380652e-02   2.8246978627465308e-01   2.1836423271114486e-02   2.3420240665340322e-01   1.6376432076382303e-02   2.3826682807987534e-01   3.3648058873087097e-02   2.4080461393318828e-01   1.1148036938656136e-01   2.5209705665160487e-01   1.1163200035325935e-01   2.6164012890773958e-01   1.1115701759949753e-01   2.6639549142882246e-01   6.6329172215115181e-02   2.7899722297274993e-01   7.2820179173259461e-02   4.1073946428401165e-01   7.8885012960094703e-02   5.9871824771715487e-01   2.4263796131190518e-01   4.6384356700539703e-01   2.8719984042840369e-01   4.6930354507080646e-01   3.3788454846063343e-01   4.7369967672418734e-01   3.4711456754365327e-01   4.8313545587440782e-01   3.5773104467814970e-01   4.9394954055815415e-01   4.1433705560697398e-01   5.8210357923262912e-01   2.0248964298088154e-01   5.8618421205611648e-01   3.8987510360553990e-01   6.3566990814062962e-01   3.9365817817971555e-01   6.3186422326665515e-01   4.1719062926549216e-01   6.2898581232347517e-01   4.2586238355767464e-01   6.0673285594988313e-01   4.3370062197127768e-01   6.2737551716716433e-01   4.4947782649735368e-01   5.9181911072774684e-01   5.3721182920948007e-01   6.0473916290227359e-01   4.5805703807918652e-01   7.8289427633153674e-01   4.8640046562506128e-01   7.9512242870066441e-01   5.0855790530420619e-01   8.0866165990312922e-01   5.0648726890971840e-01   7.0919869504699784e-01   5.0356184503234025e-01   6.5837255164953012e-01   4.4983002626824159e-01   7.7465599572705102e-01   4.7669134547520603e-01   5.6213445106727855e-01   7.9871709403277324e-01   5.5189783481648247e-01   7.7748127114335164e-01   3.8925293076679596e-01   4.7389551588562134e-01   1.2051954586535313e-01   1.0307866267327366e-02   9.8528566235915661e-06   1.0206513479438773e-05   9.2458634956313658e-06   2.8749840462701065e-05   9.0112338225723989e-06   1.4390019146043128e-04   7.7869019227872681e-05   8.0606275635865786e-04   6.8305139209602682e-04   1.6094811030509934e-03   1.6797627578786737e-03   1.9497283629341170e-03   1.8922068185463193e-03   2.0699306932742802e-03   2.4944292778482824e-03   2.4852580562639039e-03   3.8639829053181696e-03   3.6625495438314471e-03   3.8590917330585083e-03   3.7497985191317670e-03   3.5619565798927890e-03   3.5105085097832289e-03   1.9979221974987635e-03   2.1899487139886609e-03   1.9878417662974263e-03   1.7497481481232829e-03   1.3711868325621752e-03   1.5965495176823968e-03   9.6796238089710211e-04   9.0947634795601653e-04   5.4884783182157211e-04   5.1807630361302536e-04   6.9562240127077042e-04   8.0433924882741218e-04   2.0516401352324495e-04   5.1639655205359904e-04   5.3042616494473057e-05   1.0287105291421862e-04   2.0353625458591945e-05   4.2993073122499266e-05   3.0281293149261743e-06   2.9313124996811021e-06   2.9273775704723520e-06   2.8284507010103104e-06   2.8396110849146811e-06   2.7390438332102556e-06   2.7701490037670548e-06   2.6660180178814110e-06   2.7266923423504349e-06   2.6153680309717677e-06   2.7161065911613242e-06   2.5933332567606328e-06   2.7426091568836591e-06   2.6042745434721729e-06   2.8070588948407759e-06   2.6497867620553935e-06   2.9065642451779070e-06   2.7282173454542423e-06   3.0344609004146611e-06   2.8344797121783155e-06   3.1803776494565666e-06   2.9602011703567413e-06   3.3889121056093356e-06   3.1190943394863691e-06   3.6742464901791426e-06   3.3853952804209428e-06   3.8064567683948560e-06   3.5273135518577600e-06   3.6641499144105308e-06   4.3575661685711176e-01   1.8031097462082205e-01   3.8264351082940640e-01   1.1098642234298700e-03   5.9322015665262552e-02   2.1810400486828325e-03   4.0075893999089642e-03   3.4822883285486068e-03   4.2157024472815816e-03   3.2956980638834620e-03   3.7294905923141927e-03   3.1372700435987094e-03   3.9337748609491940e-03   3.1004967865674075e-03   3.5323028380731532e-03   2.9238853063673128e-03   3.4283387556988979e-03   2.6310618814089182e-03   2.8678111233300810e-03   2.8292529231919035e-03   2.8342233995027758e-03   3.5132715310509412e-03   3.5074017344232096e-03   3.3549307444488657e-03   3.3009189571042733e-03   3.0254536632541408e-03   2.9664158026596627e-03   1.8791892510674384e-03   1.9698810261365245e-03   1.7844552182197631e-03   1.4251643542748417e-03   1.4010797311251899e-03   1.5145506898252706e-03   8.0441482218788010e-04   9.1762906071685753e-04   5.1295156279894231e-04   5.4021071458374380e-04   6.1047150782613988e-04   3.5711679795508844e-04   4.0959799588105724e-04   4.5675169814476404e-04   6.7422223135274573e-05   9.6168930962433504e-05   2.7734954765821219e-05   4.4236929029635368e-05   2.6455120057744089e-06   2.5632407388731525e-06   2.5503120552131734e-06   2.4641902347975666e-06   2.4707739032187217e-06   2.3809690495374721e-06   2.4094055737724351e-06   2.3147287538857513e-06   2.3702059246432729e-06   2.2683744815393116e-06   2.3569144856694772e-06   2.2451114787733096e-06   2.3717479557880203e-06   2.2471612332810791e-06   2.4146934349796356e-06   2.2749892312186690e-06   2.4831220518624164e-06   2.3268702529362249e-06   2.5717175210939527e-06   2.3987067325067721e-06   2.6726577697801947e-06   2.4841552822428474e-06   2.8608399038360404e-06   2.6213619669108962e-06   3.0638357591198298e-06   2.8090979431105033e-06   3.1445354496025126e-06   2.8992761231989789e-06   3.2383430261167851e-06   2.9978718623144931e-06   3.0533946336718544e-06   3.1592371896112886e-01   2.1699186624330571e-01   2.3672244592621197e-01   7.4268242558101069e-03   1.1135428879468180e-02   7.0388530612851725e-03   7.7985242807546064e-03   4.8294987904983844e-03   7.0587368108958552e-03   4.0926792433263999e-03   4.7014623085526609e-03   3.9695626515732253e-03   3.8905808369123856e-03   3.5076459321771577e-03   3.6759226345106965e-03   3.0980046078031612e-03   3.3885939038792805e-03   2.8678370394612366e-03   2.9873888311431375e-03   3.3664525839312187e-03   3.3554309038051626e-03   3.0301573741483251e-03   3.1051969980194255e-03   1.9594780062144553e-03   2.6364842188358823e-03   1.6929956759052255e-03   1.6533451710928325e-03   1.5709440811621093e-03   1.3059443996395398e-03   1.2156259921559931e-03   1.1389873115277463e-03   7.4301929063582154e-04   8.3740090613315936e-04   3.7986920445661865e-04   4.3738693256878462e-04   5.3546800469974308e-04   3.1662847862151314e-04   2.8563545310159993e-04   3.8144945347445207e-04   5.5063207633309232e-05   8.4343404832896713e-05   2.3431877224280266e-05   5.0971858438179655e-05   2.3169753561796451e-06   2.2570980557217299e-06   2.2248769364609539e-06   2.1599334004088673e-06   2.1492179315313125e-06   2.0792477093582535e-06   2.0909027606259205e-06   2.0151968539663847e-06   2.0516902687311322e-06   1.9688954198597210e-06   2.0332564710453906e-06   1.9416667467940742e-06   2.0363945609999557e-06   1.9342928403844997e-06   2.0604783571878750e-06   1.9464704383670364e-06   2.1031674872567920e-06   1.9764798213230940e-06   2.1603485703306822e-06   2.0210611521627956e-06   2.2263010701162773e-06   2.0755051845991208e-06   2.3660453642867597e-06   2.1738626407551926e-06   2.5070534221020665e-06   2.3034787937263359e-06   2.5580961399366984e-06   2.3616997685449541e-06   2.6250636883243688e-06   2.4305474819517208e-06   2.7008713664800605e-06   2.4711283005111849e-06   2.5224321298169740e-06   2.0116149296889302e-01   1.2701222045585193e-02   8.9105185681020549e-02   1.0672470576900647e-02   1.2243083635175907e-02   7.4453373273105613e-03   9.9974695256687066e-03   6.4730709730250356e-03   7.0469738866650814e-03   4.2668738621205867e-03   6.1093392259259083e-03   3.4926029174817590e-03   3.8785120050409115e-03   3.3091777817601275e-03   3.1902390544620994e-03   3.3487961248017699e-03   3.1042477890020812e-03   3.2365583246711247e-03   3.1229260622510076e-03   2.8321499009501838e-03   2.9664256267119440e-03   1.9116221550854731e-03   2.0749773541030212e-03   1.3781246703983910e-03   1.5627642904930729e-03   1.2457627452864225e-03   1.1812763007039908e-03   1.0242951489159680e-03   1.0359608070175167e-03   6.4498912480030627e-04   7.6774801395183465e-04   3.4884118813222330e-04   4.7160495596170387e-04   4.7874051311461245e-04   3.3959774965249803e-04   1.6200916107047549e-04   2.9685376798328040e-04   5.8981759112546683e-05   8.1348394962813466e-05   2.7821328651286815e-05   2.8355781507821004e-05   2.0569982453137929e-06   2.0199795834098918e-06   1.9652937485582043e-06   1.9222359516286493e-06   1.8899243128201041e-06   1.8409139419702014e-06   1.8308786586002535e-06   1.7755763886155777e-06   1.7886185151152645e-06   1.7263077041548724e-06   1.7635671880565152e-06   1.6933138439710874e-06   1.7556246051742164e-06   1.6764887119257759e-06   1.7638089624755100e-06   1.6750648825053305e-06   1.7860518753235111e-06   1.6873889679568739e-06   1.8191628351554423e-06   1.7108412603833021e-06   1.8589619458046502e-06   1.7419070590425258e-06   1.9535499532979564e-06   1.8044062314883159e-06   2.0497437632054894e-06   1.8919976960375087e-06   2.0816655383677707e-06   1.9288942203357186e-06   2.1276903538228049e-06   1.9752049285778250e-06   2.1518732627424221e-06   2.0029517064311822e-06   2.1874878356994309e-06   2.0113126809967629e-06   2.0321056931809057e-06   1.7966691071506349e-02   1.3549524995234860e-02   1.7094501264626968e-02   1.0918686602057900e-02   1.2556173259460878e-02   8.3492564868579214e-03   1.0429350157221413e-02   6.2559802800273350e-03   7.2236131542689330e-03   5.3222972680158579e-03   5.7240870118762015e-03   3.2489314614953645e-03   4.8561227301857808e-03   3.0304679283833951e-03   3.2214402266255329e-03   2.9001465132903414e-03   2.7530450699743752e-03   2.3056624587263781e-03   2.4431495832894388e-03   1.8568949190025720e-03   2.0439032031704342e-03   1.5113654584707915e-03   1.6517109492967029e-03   1.2079263689964569e-03   1.3113514796167973e-03   9.2282295544146911e-04   1.0187192870366574e-03   6.5019118473522337e-04   7.7532447077069118e-04   3.8527891582982622e-04   5.3624471297345909e-04   3.7636575129396994e-04   2.8217326340606935e-04   1.5693462372433941e-04   3.0561316236767366e-04   6.3305251432110840e-05   8.8490123989129105