<?xml version="1.0"?>
<VTKFile type="UnstructuredGrid"  version="0.1"  >
<UnstructuredGrid>
<Piece  NumberOfPoints="2354" NumberOfCells="4514">
<Points>
<DataArray  type="Float64"  NumberOfComponents="3"  format="ascii">1.420869565217391 0 0  1.429130434782609 0 0  1.429130434782609 0.008333333333333333 0  1.437391304347826 0 0  1.437391304347826 0.008333333333333333 0  1.445652173913043 0 0  1.445652173913043 0.008333333333333333 0  1.453913043478261 0 0  1.453913043478261 0.008333333333333333 0  1.462173913043478 0 0  1.462173913043478 0.008333333333333333 0  1.470434782608696 0 0  1.470434782608696 0.008333333333333333 0  1.478695652173913 0 0  1.478695652173913 0.008333333333333333 0  1.486956521739131 0 0  1.486956521739131 0.008333333333333333 0  1.495217391304348 0 0  1.495217391304348 0.008333333333333333 0  1.503478260869565 0 0  1.503478260869565 0.008333333333333333 0  1.511739130434782 0 0  1.511739130434782 0.008333333333333333 0  1.52 0 0  1.52 0.008333333333333333 0  1.528260869565217 0 0  1.528260869565217 0.008333333333333333 0  1.536521739130435 0 0  1.536521739130435 0.008333333333333333 0  1.544782608695652 0 0  1.544782608695652 0.008333333333333333 0  1.55304347826087 0 0  1.55304347826087 0.008333333333333333 0  1.561304347826087 0 0  1.561304347826087 0.008333333333333333 0  1.569565217391304 0 0  1.569565217391304 0.008333333333333333 0  1.577826086956522 0 0  1.577826086956522 0.008333333333333333 0  1.586086956521739 0 0  1.586086956521739 0.008333333333333333 0  1.594347826086957 0 0  1.594347826086957 0.008333333333333333 0  1.602608695652174 0 0  1.602608695652174 0.008333333333333333 0  1.610869565217391 0 0  1.610869565217391 0.008333333333333333 0  1.619130434782609 0 0  1.619130434782609 0.008333333333333333 0  1.627391304347826 0 0  1.627391304347826 0.008333333333333333 0  1.635652173913043 0 0  1.635652173913043 0.008333333333333333 0  1.643913043478261 0 0  1.643913043478261 0.008333333333333333 0  1.652173913043478 0 0  1.652173913043478 0.008333333333333333 0  1.660434782608696 0 0  1.660434782608696 0.008333333333333333 0  1.668695652173913 0 0  1.668695652173913 0.008333333333333333 0  1.67695652173913 0 0  1.67695652173913 0.008333333333333333 0  1.685217391304348 0 0  1.685217391304348 0.008333333333333333 0  1.693478260869565 0 0  1.693478260869565 0.008333333333333333 0  1.701739130434782 0 0  1.701739130434782 0.008333333333333333 0  1.71 0 0  1.71 0.008333333333333333 0  1.718260869565217 0 0  1.718260869565217 0.008333333333333333 0  1.726521739130435 0 0  1.726521739130435 0.008333333333333333 0  1.734782608695652 0 0  1.734782608695652 0.008333333333333333 0  1.743043478260869 0.008333333333333333 0  1.437391304347826 0.01666666666666667 0  1.445652173913043 0.01666666666666667 0  1.453913043478261 0.01666666666666667 0  1.462173913043478 0.01666666666666667 0  1.470434782608696 0.01666666666666667 0  1.478695652173913 0.01666666666666667 0  1.486956521739131 0.01666666666666667 0  1.495217391304348 0.01666666666666667 0  1.503478260869565 0.01666666666666667 0  1.511739130434782 0.01666666666666667 0  1.52 0.01666666666666667 0  1.528260869565217 0.01666666666666667 0  1.536521739130435 0.01666666666666667 0  1.544782608695652 0.01666666666666667 0  1.55304347826087 0.01666666666666667 0  1.561304347826087 0.01666666666666667 0  1.569565217391304 0.01666666666666667 0  1.577826086956522 0.01666666666666667 0  1.586086956521739 0.01666666666666667 0  1.594347826086957 0.01666666666666667 0  1.602608695652174 0.01666666666666667 0  1.610869565217391 0.01666666666666667 0  1.619130434782609 0.01666666666666667 0  1.627391304347826 0.01666666666666667 0  1.635652173913043 0.01666666666666667 0  1.643913043478261 0.01666666666666667 0  1.652173913043478 0.01666666666666667 0  1.660434782608696 0.01666666666666667 0  1.668695652173913 0.01666666666666667 0  1.67695652173913 0.01666666666666667 0  1.685217391304348 0.01666666666666667 0  1.693478260869565 0.01666666666666667 0  1.701739130434782 0.01666666666666667 0  1.71 0.01666666666666667 0  1.718260869565217 0.01666666666666667 0  1.726521739130435 0.01666666666666667 0  1.734782608695652 0.01666666666666667 0  1.743043478260869 0.01666666666666667 0  1.445652173913043 0.025 0  1.453913043478261 0.025 0  1.462173913043478 0.025 0  1.470434782608696 0.025 0  1.478695652173913 0.025 0  1.486956521739131 0.025 0  1.495217391304348 0.025 0  1.503478260869565 0.025 0  1.511739130434782 0.025 0  1.52 0.025 0  1.528260869565217 0.025 0  1.536521739130435 0.025 0  1.544782608695652 0.025 0  1.55304347826087 0.025 0  1.561304347826087 0.025 0  1.569565217391304 0.025 0  1.577826086956522 0.025 0  1.586086956521739 0.025 0  1.594347826086957 0.025 0  1.602608695652174 0.025 0  1.610869565217391 0.025 0  1.619130434782609 0.025 0  1.627391304347826 0.025 0  1.635652173913043 0.025 0  1.643913043478261 0.025 0  1.652173913043478 0.025 0  1.660434782608696 0.025 0  1.668695652173913 0.025 0  1.67695652173913 0.025 0  1.685217391304348 0.025 0  1.693478260869565 0.025 0  1.701739130434782 0.025 0  1.71 0.025 0  1.718260869565217 0.025 0  1.726521739130435 0.025 0  1.734782608695652 0.025 0  1.743043478260869 0.025 0  1.751304347826087 0.025 0  1.453913043478261 0.03333333333333333 0  1.462173913043478 0.03333333333333333 0  1.470434782608696 0.03333333333333333 0  1.478695652173913 0.03333333333333333 0  1.486956521739131 0.03333333333333333 0  1.495217391304348 0.03333333333333333 0  1.503478260869565 0.03333333333333333 0  1.511739130434782 0.03333333333333333 0  1.52 0.03333333333333333 0  1.528260869565217 0.03333333333333333 0  1.536521739130435 0.03333333333333333 0  1.544782608695652 0.03333333333333333 0  1.55304347826087 0.03333333333333333 0  1.561304347826087 0.03333333333333333 0  1.569565217391304 0.03333333333333333 0  1.577826086956522 0.03333333333333333 0  1.586086956521739 0.03333333333333333 0  1.594347826086957 0.03333333333333333 0  1.602608695652174 0.03333333333333333 0  1.610869565217391 0.03333333333333333 0  1.619130434782609 0.03333333333333333 0  1.627391304347826 0.03333333333333333 0  1.635652173913043 0.03333333333333333 0  1.643913043478261 0.03333333333333333 0  1.652173913043478 0.03333333333333333 0  1.660434782608696 0.03333333333333333 0  1.668695652173913 0.03333333333333333 0  1.67695652173913 0.03333333333333333 0  1.685217391304348 0.03333333333333333 0  1.693478260869565 0.03333333333333333 0  1.701739130434782 0.03333333333333333 0  1.71 0.03333333333333333 0  1.718260869565217 0.03333333333333333 0  1.726521739130435 0.03333333333333333 0  1.734782608695652 0.03333333333333333 0  1.743043478260869 0.03333333333333333 0  1.751304347826087 0.03333333333333333 0  1.759565217391304 0.03333333333333333 0  1.462173913043478 0.04166666666666666 0  1.470434782608696 0.04166666666666666 0  1.478695652173913 0.04166666666666666 0  1.486956521739131 0.04166666666666666 0  1.495217391304348 0.04166666666666666 0  1.503478260869565 0.04166666666666666 0  1.511739130434782 0.04166666666666666 0  1.52 0.04166666666666666 0  1.528260869565217 0.04166666666666666 0  1.536521739130435 0.04166666666666666 0  1.544782608695652 0.04166666666666666 0  1.55304347826087 0.04166666666666666 0  1.561304347826087 0.04166666666666666 0  1.569565217391304 0.04166666666666666 0  1.577826086956522 0.04166666666666666 0  1.586086956521739 0.04166666666666666 0  1.594347826086957 0.04166666666666666 0  1.602608695652174 0.04166666666666666 0  1.610869565217391 0.04166666666666666 0  1.619130434782609 0.04166666666666666 0  1.627391304347826 0.04166666666666666 0  1.635652173913043 0.04166666666666666 0  1.643913043478261 0.04166666666666666 0  1.652173913043478 0.04166666666666666 0  1.660434782608696 0.04166666666666666 0  1.668695652173913 0.04166666666666666 0  1.67695652173913 0.04166666666666666 0  1.685217391304348 0.04166666666666666 0  1.693478260869565 0.04166666666666666 0  1.701739130434782 0.04166666666666666 0  1.71 0.04166666666666666 0  1.718260869565217 0.04166666666666666 0  1.726521739130435 0.04166666666666666 0  1.734782608695652 0.04166666666666666 0  1.743043478260869 0.04166666666666666 0  1.751304347826087 0.04166666666666666 0  1.759565217391304 0.04166666666666666 0  1.767826086956522 0.04166666666666666 0  1.470434782608696 0.05 0  1.478695652173913 0.05 0  1.486956521739131 0.05 0  1.495217391304348 0.05 0  1.503478260869565 0.05 0  1.511739130434782 0.05 0  1.52 0.05 0  1.528260869565217 0.05 0  1.536521739130435 0.05 0  1.544782608695652 0.05 0  1.55304347826087 0.05 0  1.561304347826087 0.05 0  1.569565217391304 0.05 0  1.577826086956522 0.05 0  1.586086956521739 0.05 0  1.594347826086957 0.05 0  1.602608695652174 0.05 0  1.610869565217391 0.05 0  1.619130434782609 0.05 0  1.627391304347826 0.05 0  1.635652173913043 0.05 0  1.643913043478261 0.05 0  1.652173913043478 0.05 0  1.660434782608696 0.05 0  1.668695652173913 0.05 0  1.67695652173913 0.05 0  1.685217391304348 0.05 0  1.693478260869565 0.05 0  1.701739130434782 0.05 0  1.71 0.05 0  1.718260869565217 0.05 0  1.726521739130435 0.05 0  1.734782608695652 0.05 0  1.743043478260869 0.05 0  1.751304347826087 0.05 0  1.759565217391304 0.05 0  1.767826086956522 0.05 0  1.478695652173913 0.05833333333333333 0  1.486956521739131 0.05833333333333333 0  1.495217391304348 0.05833333333333333 0  1.503478260869565 0.05833333333333333 0  1.511739130434782 0.05833333333333333 0  1.52 0.05833333333333333 0  1.528260869565217 0.05833333333333333 0  1.536521739130435 0.05833333333333333 0  1.544782608695652 0.05833333333333333 0  1.55304347826087 0.05833333333333333 0  1.561304347826087 0.05833333333333333 0  1.569565217391304 0.05833333333333333 0  1.577826086956522 0.05833333333333333 0  1.586086956521739 0.05833333333333333 0  1.594347826086957 0.05833333333333333 0  1.602608695652174 0.05833333333333333 0  1.610869565217391 0.05833333333333333 0  1.619130434782609 0.05833333333333333 0  1.627391304347826 0.05833333333333333 0  1.635652173913
[...]
<PointData  Vectors="Displacement"> 
<DataArray  type="Float64"  Name="Displacement"  NumberOfComponents="3" format="ascii">1.6958774378834931e-04 1.0464680203080765e-03 0.0000000000000000e+00  1.7055152621407721e-04 1.0501500499165478e-03 0.0000000000000000e+00  1.6674257301962833e-04 1.0498358401555771e-03 0.0000000000000000e+00  1.7156257383997930e-04 1.0539007347884430e-03 0.0000000000000000e+00  1.6767551511764688e-04 1.0535747478690371e-03 0.0000000000000000e+00  1.7261512036675225e-04 1.0577517918753522e-03 0.0000000000000000e+00  1.6862490192296549e-04 1.0574156343083141e-03 0.0000000000000000e+00  1.7370052297706855e-04 1.0617282353358086e-03 0.0000000000000000e+00  1.6958785762378374e-04 1.0613843214071742e-03 0.0000000000000000e+00  1.7480813051762797e-04 1.0658476894508393e-03 0.0000000000000000e+00  1.7055986302267278e-04 1.0654992637065778e-03 0.0000000000000000e+00  1.7592788868158975e-04 1.0701177109550472e-03 0.0000000000000000e+00  1.7153658163128775e-04 1.0697675662717132e-03 0.0000000000000000e+00  1.7705331163759424e-04 1.0745374733629428e-03 0.0000000000000000e+00  1.7251566908878718e-04 1.0741870271656526e-03 0.0000000000000000e+00  1.7818320421322253e-04 1.0791018172404115e-03 0.0000000000000000e+00  1.7349771789563538e-04 1.0787507685998475e-03 0.0000000000000000e+00  1.7932164752088207e-04 1.0838058909306558e-03 0.0000000000000000e+00  1.7448611781844696e-04 1.0834524846335914e-03 0.0000000000000000e+00  1.8047679720669773e-04 1.0886485445991325e-03 0.0000000000000000e+00  1.7548630387488744e-04 1.0882900647586089e-03 0.0000000000000000e+00  1.8165926134122552e-04 1.0936342313328656e-03 0.0000000000000000e+00  1.7650482258836224e-04 1.0932674919439602e-03 0.0000000000000000e+00  1.8288049137219883e-04 1.0987738508943798e-03 0.0000000000000000e+00  1.7754840116533731e-04 1.0983956230828519e-03 0.0000000000000000e+00  1.8415129315572484e-04 1.1040849444914050e-03 0.0000000000000000e+00  1.7862305190283963e-04 1.1036923403141530e-03 0.0000000000000000e+00  1.8548041391705712e-04 1.1095914244797836e-03 0.0000000000000000e+00  1.7973319133048570e-04 1.1091822728232529e-03 0.0000000000000000e+00  1.8687315870852597e-04 1.1153228256362930e-03 0.0000000000000000e+00  1.8088076688251760e-04 1.1148960544237526e-03 0.0000000000000000e+00  1.8833007053146195e-04 1.1213129582553286e-03 0.0000000000000000e+00  1.8206444304675950e-04 1.1208689639038373e-03 0.0000000000000000e+00  1.8984585034055357e-04 1.1275977743071114e-03 0.0000000000000000e+00  1.8327901070223562e-04 1.1271387034856408e-03 0.0000000000000000e+00  1.9140890218547250e-04 1.1342122668442805e-03 0.0000000000000000e+00  1.8451534517569109e-04 1.1337420208330405e-03 0.0000000000000000e+00  1.9300163963197794e-04 1.1411870170450903e-03 0.0000000000000000e+00  1.8576095238999175e-04 1.1407110242897176e-03 0.0000000000000000e+00  1.9460255746359676e-04 1.1485432539755027e-03 0.0000000000000000e+00  1.8700229434808621e-04 1.1480671751250881e-03 0.0000000000000000e+00  1.9618512223161627e-04 1.1562955680290369e-03 0.0000000000000000e+00  1.8822317349757590e-04 1.1558270771024591e-03 0.0000000000000000e+00  1.9772068404945201e-04 1.1644411300994386e-03 0.0000000000000000e+00  1.8940829731337004e-04 1.1639872939117851e-03 0.0000000000000000e+00  1.9917657420646308e-04 1.1729671143618379e-03 0.0000000000000000e+00  1.9053943721279823e-04 1.1725377487588286e-03 0.0000000000000000e+00  2.0052218561209418e-04 1.1818335386216388e-03 0.0000000000000000e+00  1.9160192177265049e-04 1.1814362787757517e-03 0.0000000000000000e+00  2.0173272024555182e-04 1.1909830002597461e-03 0.0000000000000000e+00  1.9258453667319046e-04 1.1906241560829774e-03 0.0000000000000000e+00  2.0279015993874077e-04 1.2003452230687239e-03 0.0000000000000000e+00  1.9347824079642731e-04 1.2000300006499451e-03 0.0000000000000000e+00  2.0368643336347874e-04 1.2098391606960223e-03 0.0000000000000000e+00  1.9427786137722448e-04 1.2095698029933187e-03 0.0000000000000000e+00  2.0442750418585564e-04 1.2193805489431374e-03 0.0000000000000000e+00  1.9498535614878809e-04 1.2191542858765703e-03 0.0000000000000000e+00  2.0503163692051464e-04 1.2288982456667306e-03 0.0000000000000000e+00  1.9560855689798378e-04 1.2287089363492486e-03 0.0000000000000000e+00  2.0552170559996508e-04 1.2383446659151960e-03 0.0000000000000000e+00  1.9615626002001855e-04 1.2381864082713118e-03 0.0000000000000000e+00  2.0592145941496234e-04 1.2476886078826898e-03 0.0000000000000000e+00  1.9663834905936660e-04 1.2475553433154802e-03 0.0000000000000000e+00  2.0625619037438196e-04 1.2569105108864171e-03 0.0000000000000000e+00  1.9706792692156393e-04 1.2567947424037718e-03 0.0000000000000000e+00  2.0654960634560024e-04 1.2660078194847511e-03 0.0000000000000000e+00  1.9745809533150936e-04 1.2659030982280016e-03 0.0000000000000000e+00  2.0682152123138934e-04 1.2749886555193614e-03 0.0000000000000000e+00  1.9782087136940892e-04 1.2748897322853363e-03 0.0000000000000000e+00  2.0708721883435478e-04 1.2838675188382223e-03 0.0000000000000000e+00  1.9816653056505652e-04 1.2837705044399037e-03 0.0000000000000000e+00  2.0735834259052611e-04 1.2926608289441832e-03 0.0000000000000000e+00  1.9850397353008182e-04 1.2925626665556450e-03 0.0000000000000000e+00  2.0764437834081529e-04 1.3013850269440995e-03 0.0000000000000000e+00  1.9884130343990127e-04 1.3012830042997026e-03 0.0000000000000000e+00  2.0795352976506757e-04 1.3100568012199768e-03 0.0000000000000000e+00  1.9918590631386906e-04 1.3099484681219425e-03 0.0000000000000000e+00  1.9954429456703506e-04 1.3185766838929871e-03 0.0000000000000000e+00  1.6375500885650970e-04 1.0532729852518550e-03 0.0000000000000000e+00  1.6460663290823166e-04 1.0571091632322631e-03 0.0000000000000000e+00  1.6545435096774647e-04 1.0610748700248781e-03 0.0000000000000000e+00  1.6629741034613509e-04 1.0651909282149421e-03 0.0000000000000000e+00  1.6713433863117967e-04 1.0694636107464071e-03 0.0000000000000000e+00  1.6796512806008623e-04 1.0738885260922813e-03 0.0000000000000000e+00  1.6879200442419237e-04 1.0784564670579797e-03 0.0000000000000000e+00  1.6961883281296555e-04 1.0831597189077985e-03 0.0000000000000000e+00  1.7045018411207443e-04 1.0879956145875898e-03 0.0000000000000000e+00  1.7129063605172937e-04 1.0929680656105161e-03 0.0000000000000000e+00  1.7214430619384989e-04 1.0980881007272843e-03 0.0000000000000000e+00  1.7301446590906405e-04 1.1033739518542932e-03 0.0000000000000000e+00  1.7390311649362705e-04 1.1088508365066558e-03 0.0000000000000000e+00  1.7481046495184809e-04 1.1145503374366502e-03 0.0000000000000000e+00  1.7573429165470197e-04 1.1205091541277570e-03 0.0000000000000000e+00  1.7666942464226545e-04 1.1267668388899828e-03 0.0000000000000000e+00  1.7760794356187293e-04 1.1333618876670298e-03 0.0000000000000000e+00  1.7853994121291172e-04 1.1403277611457818e-03 0.0000000000000000e+00  1.7945847262492489e-04 1.1476829474658065e-03 0.0000000000000000e+00  1.8035473041671184e-04 1.1554486463854930e-03 0.0000000000000000e+00  1.8122617470872241e-04 1.1636163639001337e-03 0.0000000000000000e+00  1.8206395788087940e-04 1.1721858435286743e-03 0.0000000000000000e+00  1.8286648641627567e-04 1.1811067395880483e-03 0.0000000000000000e+00  1.8363624801197943e-04 1.1903202288582658e-03 0.0000000000000000e+00  1.8437261182848702e-04 1.1997577576169705e-03 0.0000000000000000e+00  1.8507168179889810e-04 1.2093333443993584e-03 0.0000000000000000e+00  1.8573233374982173e-04 1.2189493221202048e-03 0.0000000000000000e+00  1.8635592987058700e-04 1.2285277269373763e-03 0.0000000000000000e+00  1.8693885712673869e-04 1.2380270561499467e-03 0.0000000000000000e+00  1.8747688694295702e-04 1.2474161473387574e-03 0.0000000000000000e+00  1.8797346802039235e-04 1.2566683699157706e-03 0.0000000000000000e+00  1.8843359065041516e-04 1.2657851059896833e-03 0.0000000000000000e+00  1.8886289263995122e-04 1.2747768754581713e-03 0.0000000000000000e+00  1.8926682528289777e-04 1.2836611622620753e-03 0.0000000000000000e+00  1.8965111968857230e-04 1.2924553858473218e-03 0.0000000000000000e+00  1.9002231462234551e-04 1.3011757012431739e-03 0.0000000000000000e+00  1.9038713765746738e-04 1.3098388540192108e-03 0.0000000000000000e+00  1.9075175091104972e-04 1.3184626632899957e-03 0.0000000000000000e+00  1.6060508703622436e-04 1.0568322173647182e-03 0.0000000000000000e+00  1.6133089490928657e-04 1.0607977806394359e-03 0.0000000000000000e+00  1.6203989830967122e-04 1.0649209149985704e-03 0.0000000000000000e+00  1.6273233367326893e-04 1.0692061482641549e-03 0.0000000000000000e+00  1.6340957778855945e-04 1.0736450705761630e-03 0.0000000000000000e+00  1.6407527615882545e-04 1.0782244319595046e-03 0.0000000000000000e+00  1.6473411378333677e-04 1.0829346309411587e-03 0.0000000000000000e+00  1.6539045097247289e-04 1.0877726811117361e-03 0.0000000000000000e+00  1.6604773125784386e-04 1.0927427901850145e-03 0.0000000000000000e+00  1.6670839906408029e-04 1.0978563813349978e-03 0.0000000000000000e+00  1.6737394259202633e-04 1.1031320733994763e-03 0.0000000000000000e+00  1.6804482163619420e-04 1.1085956223471816e-03 0.0000000000000000e+00  1.6872015521366031e-04 1.1142796286095591e-03 0.0000000000000000e+00  1.6939702489153277e-04 1.1202227155689658e-03 0.0000000000000000e+00  1.7006950429328800e-04 1.1264672975090156e-03 0.0000000000000000e+00  1.7072895370382507e-04 1.1330544748206820e-03 0.0000000000000000e+00  1.7136507082361104e-04 1.1400200252883611e-03 0.0000000000000000e+00  1.7197635657278820e-04 1.1473731133461434e-03 0.0000000000000000e+00  1.7255640328344977e-04 1.1551457237116084e-03 0.0000000000000000e+00  1.7311875750114332e-04 1.1633128971272782e-03 0.0000000000000000e+00  1.7366075395097418e-04 1.1719023879448987e-03 0.0000000000000000e+00  1.7419540129640128e-04 1.1808390326654037e-03 0.0000000000000000e+00  1.7474339521068391e-04 1.1900652972309065e-03 0.0000000000000000e+00  1.7531883447044358e-04 1.1995231725714921e-03 0.0000000000000000e+00  1.7592265629196068e-04 1.2091284337840255e-03 0.0000000000000000e+00  1.7654875116775739e-04 1.2187681004434156e-03 0.0000000000000000e+00  1.7718659374111063e-04 1.2283580805698916e-03 0.0000000000000000e+00  1.7781502097203997e-04 1.2378738532973488e-03 0.0000000000000000e+00  1.7841153458245218e-04 1.2472838510563398e-03 0.0000000000000000e+00  1.7897071169387820e-04 1.2565456784748177e-03 0.0000000000000000e+00  1.7949055917109019e-04 1.2656686137049158e-03 0.0000000000000000e+00  1.7997244567368714e-04 1.2746641376887389e-03 0.0000000000000000e+00  1.8041873813452630e-04 1.2835528092830246e-03 0.0000000000000000e+00  1.8083334628285250e-04 1.2923515446657322e-03 0.0000000000000000e+00  1.8122255236841721e-04 1.3010745042293570e-03 0.0000000000000000e+00  1.8159340363920571e-04 1.3097378083806656e-03 0.0000000000000000e+00  1.8195223803432132e-04 1.3183595367700482e-03 0.0000000000000000e+00  1.8230440247379493e-04 1.3269584019435544e-03 0.0000000000000000e+00  1.5724723082464665e-04 1.0605585996241475e-03 0.0000000000000000e+00  1.5780497724376147e-04 1.0646931180571275e-03 0.0000000000000000e+00  1.5834085609265722e-04 1.0689989780221733e-03 0.0000000000000000e+00  1.5885645064191143e-04 1.0734609240367044e-03 0.0000000000000000e+00  1.5935613634357736e-04 1.0780588869812014e-03 0.0000000000000000e+00  1.5984494288055916e-04 1.0827808889196343e-03 0.0000000000000000e+00  1.6032662001610182e-04 1.0876240243734851e-03 0.0000000000000000e+00  1.6080324928915686e-04 1.0925932104221144e-03 0.0000000000000000e+00  1.6127558327276947e-04 1.0977004413359373e-03 0.0000000000000000e+00  1.6174345064783258e-04 1.1029646974141823e-03 0.0000000000000000e+00  1.6220589711710482e-04 1.1084121990873547e-03 0.0000000000000000e+00  1.6266090398996816e-04 1.1140766801675957e-03 0.0000000000000000e+00  1.6310445161169519e-04 1.1199995814862764e-03 0.0000000000000000e+00  1.6352872775872099e-04 1.1262285748556357e-03 0.0000000000000000e+00  1.6392130874563797e-04 1.1328093163430484e-03 0.0000000000000000e+00  1.6426633020255610e-04 1.1397822698529796e-03 0.0000000000000000e+00  1.6457098278097900e-04 1.1471349816334494e-03 0.0000000000000000e+00  1.6481811970295117e-04 1.1549278194686772e-03 0.0000000000000000e+00  1.6504219711105066e-04 1.1630817897380539e-03 0.0000000000000000e+00  1.6524832868275387e-04 1.1717027696115366e-03 0.0000000000000000e+00  1.6547598099546587e-04 1.1806509094780225e-03 0.0000000000000000e+00  1.6576023075620767e-04 1.1898692083572825e-03 0.0000000000000000e+00  1.6614660672632114e-04 1.1993212414188889e-03 0.0000000000000000e+00  1.6666420326792849e-04 1.2089383494228174e-03 0.0000000000000000e+00  1.6730637559007078e-04 1.2185900590029276e-03 0.0000000000000000e+00  1.6801979302840016e-04 1.2281794288057347e-03 0.0000000000000000e+00  1.6873624338011861e-04 1.2377096591691796e-03 0.0000000000000000e+00  1.6942753113199336e-04 1.2471550335744238e-03 0.0000000000000000e+00  1.7006844678562328e-04 1.2564279817916882e-03 0.0000000000000000e+00  1.7065197102901963e-04 1.2655602677946335e-03 0.0000000000000000e+00  1.7117934062817631e-04 1.2745604488497073e-03 0.0000000000000000e+00  1.7165467053836483e-04 1.2834561337120840e-03 0.0000000000000000e+00  1.7208351150544427e-04 1.2922626961771840e-03 0.0000000000000000e+00  1.7247472039618348e-04 1.3009903570427978e-03 0.0000000000000000e+00  1.7283735990892987e-04 1.3096548379367817e-03 0.0000000000000000e+00  1.7317853309267264e-04 1.3182752294887432e-03 0.0000000000000000e+00  1.7350360652593569e-04 1.3268706356501481e-03 0.0000000000000000e+00  1.7381709844988777e-04 1.3354596659252314e-03 0.0000000000000000e+00  1.5359906877748810e-04 1.0645164285501064e-03 0.0000000000000000e+00  1.5395969050595361e-04 1.0688482719152799e-03 0.0000000000000000e+00  1.5430486219215444e-04 1.0733408325940246e-03 0.0000000000000000e+00  1.5463698402722864e-04 1.0779625009118348e-03 0.0000000000000000e+00  1.5495954732110687e-04 1.0826989200783022e-03 0.0000000000000000e+00  1.5527415853434299e-04 1.0875481118167972e-03 0.0000000000000000e+00  1.5558045843377461e-04 1.0925161719438433e-03 0.0000000000000000e+00  1.5587686845573099e-04 1.0976156931954552e-03 0.0000000000000000e+00  1.5616122705908124e-04 1.1028658021431414e-03 0.0000000000000000e+00  1.5643094069193094e-04 1.1082929778968064e-03 0.0000000000000000e+00  1.5668244177365236e-04 1.1139321886167034e-03 0.0000000000000000e+00  1.5690938754971744e-04 1.1198286926973808e-03 0.0000000000000000e+00  1.5710012468553579e-04 1.1260389513565873e-03 0.0000000000000000e+00  1.5723702480538760e-04 1.1326194072626185e-03 0.0000000000000000e+00  1.5728556867666130e-04 1.1396198797061531e-03 0.0000000000000000e+00  1.5727065551893993e-04 1.1469698310693909e-03 0.0000000000000000e+00  1.5715951700662629e-04 1.1548326259259564e-03 0.0000000000000000e+00  1.5698361927533302e-04 1.1629567470954705e-03 0.0000000000000000e+00  1.5673716144713940e-04 1.1716274157821964e-03 0.0000000000000000e+00  1.5659768936886163e-04 1.1805773941115998e-03 0.0000000000000000e+00  1.5657266801505235e-04 1.1897711612994218e-03 0.0000000000000000e+00  1.5667875012683873e-04 1.1991458648381275e-03 0.0000000000000000e+00  1.5710172449547545e-04 1.2087415310134688e-03 0.0000000000000000e+00  1.5789180834507275e-04 1.2183627017959306e-03 0.0000000000000000e+00  1.5891523200836793e-04 1.2280013471826835e-03 0.0000000000000000e+00  1.5961629624377177e-04 1.2374656025137837e-03 0.0000000000000000e+00  1.6054390425776456e-04 1.2470139785178724e-03 0.0000000000000000e+00  1.6130177697265606e-04 1.2563041221401599e-03 0.0000000000000000e+00  1.6196489972243941e-04 1.2654639805206890e-03 0.0000000000000000e+00  1.6252690708786779e-04 1.2744738497926251e-03 0.0000000000000000e+00  1.6301200840239949e-04 1.2833822640662641e-03 0.0000000000000000e+00  1.6343439924381079e-04 1.2922016014469545e-03 0.0000000000000000e+00  1.6380882335941056e-04 1.3009350098123001e-03 0.0000000000000000e+00  1.6414781023022483e-04 1.3095996329027069e-03 0.0000000000000000e+00  1.6445922680779690e-04 1.3182175629689009e-03 0.0000000000000000e+00  1.6474792964837122e-04 1.3268088199286118e-03 0.0000000000000000e+00  1.6501762458861260e-04 1.3353913833413996e-03 0.0000000000000000e+00  1.6527201550018431e-04 1.3439827551780285e-03 0.0000000000000000e+00  1.4956372780550021e-04 1.0687592332066279e-03 0.0000000000000000e+00  1.4973695738393155e-04 1.0732874631090693e-03 0.0000000000000000e+00  1.4990936006362498e-04 1.0779344048027540e-03 0.0000000000000000e+00  1.5007926203526885e-04 1.0826845793826809e-03 0.0000000000000000e+00  1.5024387504922366e-04 1.0875383757894543e-03 0.0000000000000000e+00  1.5039913170507199e-04 1.0925034448849699e-03 0.0000000000000000e+00  1.5054052379962363e-04 1.0975926843443382e-03 0.0000000000000000e+00  1.5066368810706822e-04 1.1028247730771920e-03 0.0000000000000000e+00  1.5076442711735554e-04 1.1082259479069042e-03 0.0000000000000000e+00  1.5083755678583526e-04 1.1138324314760438e-03 0.0000000000000000e+00  1.5087313685653342e-04 1.1196952929781218e-03 0.0000000000000000e+00  1.5084982062105913e-04 1.1258831862034520e-03 0.0000000000000000e+00  1.5074306317007321e-04 1.1324676354522369e-03 0.0000000000000000e+00  1.5050670011653141e-04 1.1395463716677859e-03 0.0000000000000000e+00  1.5016807917246302e-04 1.1468596842449568e-03 0.0000000000000000e+00  1.4969128818098301e-04 1.1548196724118422e-03 0.0000000000000000e+00  1.4936273704551354e-04 1.1628804272962945e-03 0.0000000000000000e+00  1.4858593944883840e-04 1.1716161679450510e-03 0.0000000000000000e+00  1.4786701915117130e-04 1.1805828440869749e-03 0.0000000000000000e+00  1.4730226569900523e-04 1.1897800740579831e-03 0.0000000000000000e+00  1.4885669039375971e-04 1.2000687238514188e-03 0.0000000000000000e+00  1.4967470675983404e-04 1.2096139075791974e-03 0.0000000000000000e+00  1.5033516994374815e-04 1.2190749979173923e-03 0.0000000000000000e+00  1.5093408464101859e-04 1.2285298237181082e-03 0.0000000000000000e+00  1.5141338554924575e-04 1.2378884108537594e-03 0.0000000000000000e+00  1.5162639282424782e-04 1.2467323181589490e-03 0.0000000000000000e+00  1.5277198499853261e-04 1.2561555473734212e-03 0.0000000000000000e+00  1.5354476038930331e-04 1.2654004746554569e-03 0.0000000000000000e+00  1.5408187828853302e-04 1.2744229451881598e-03 0.0000000000000000e+00  1.5452903805832530e-04 1.2833478494590116e-03 0.0000000000000000e+00  1.5491456146203141e-04 1.2921852213497607e-03 0.0000000000000000e+00  1.5524945952496682e-04 1.3009222671844566e-03 0.0000000000000000e+00  1.5554812161129046e-04 1.3095822549883042e-03 0.0000000000000000e+00  1.5581787109206202e-04 1.3181939389545277e-03 0.0000000000000000e+00  1.5606194674478143e-04 1.3267787148828322e-03 0.0000000000000000e+00  1.5628230687709767e-04 1.3353534881788045e-03 0.0000000000000000e+00  1.5648094623348978e-04 1.3439336813259055e-03 0.0000000000000000e+00  1.4511166412859081e-04 1.0732950562100478e-03 0.0000000000000000e+00  1.4515360358489249e-04 1.0779661545656850e-03 0.0000000000000000e+00  1.4519988080270209e-04 1.0827267402371457e-03 0.0000000000000000e+00  1.4524338657651511e-04 1.0875819244718290e-03 0.0000000000000000e+00  1.4527668744464985e-04 1.0925410171590130e-03 0.0000000000000000e+00  1.4529296065978004e-04 1.0976165020275715e-03 0.0000000000000000e+00  1.4528635002218794e-04 1.1028255026171645e-03 0.0000000000000000e+00  1.4525193383704922e-04 1.1081926822335976e-03 0.0000000000000000e+00  1.4518470741804092e-04 1.1137551017590202e-03 0.0000000000000000e+00  1.4507122310832853e-04 1.1195728150904139e-03 0.0000000000000000e+00  1.4487636243243598e-04 1.1257389905863090e-03 0.0000000000000000e+00  1.4454612296228413e-04 1.1323224556499015e-03 0.0000000000000000e+00  1.4403139242680200e-04 1.1394937565735771e-03 0.0000000000000000e+00  1.4367439195631224e-04 1.1467400773821454e-03 0.0000000000000000e+00  1.4225617767682275e-04 1.1548995355164372e-03 0.0000000000000000e+00  1.4123719491495644e-04 1.1629913697881317e-03 0.0000000000000000e+00  1.4204160523986395e-04 1.1730869119340398e-03 0.0000000000000000e+