<?xml version="1.0"?>
<VTKFile type="UnstructuredGrid"  version="0.1"  >
<UnstructuredGrid>
<Piece  NumberOfPoints="2477" NumberOfCells="4754">
<Points>
<DataArray  type="Float64"  NumberOfComponents="3"  format="ascii">2.940869565217391 0 0  2.949130434782608 0 0  2.949130434782608 0.008333333333333333 0  2.940869565217391 0.008333333333333333 0  2.957391304347826 0 0  2.957391304347826 0.008333333333333333 0  2.965652173913043 0 0  2.965652173913043 0.008333333333333333 0  2.973913043478261 0 0  2.973913043478261 0.008333333333333333 0  2.982173913043478 0 0  2.982173913043478 0.008333333333333333 0  2.990434782608696 0 0  2.990434782608696 0.008333333333333333 0  2.998695652173913 0 0  2.998695652173913 0.008333333333333333 0  3.006956521739131 0 0  3.006956521739131 0.008333333333333333 0  3.015217391304348 0 0  3.015217391304348 0.008333333333333333 0  3.023478260869565 0 0  3.023478260869565 0.008333333333333333 0  3.031739130434782 0 0  3.031739130434782 0.008333333333333333 0  3.04 0 0  3.04 0.008333333333333333 0  3.048260869565218 0 0  3.048260869565218 0.008333333333333333 0  3.056521739130435 0 0  3.056521739130435 0.008333333333333333 0  3.064782608695652 0 0  3.064782608695652 0.008333333333333333 0  3.073043478260869 0 0  3.073043478260869 0.008333333333333333 0  3.081304347826087 0 0  3.081304347826087 0.008333333333333333 0  3.089565217391304 0 0  3.089565217391304 0.008333333333333333 0  3.097826086956522 0 0  3.097826086956522 0.008333333333333333 0  3.106086956521739 0 0  3.106086956521739 0.008333333333333333 0  3.114347826086956 0 0  3.114347826086956 0.008333333333333333 0  3.122608695652174 0 0  3.122608695652174 0.008333333333333333 0  3.130869565217391 0 0  3.130869565217391 0.008333333333333333 0  3.139130434782609 0 0  3.139130434782609 0.008333333333333333 0  3.147391304347826 0 0  3.147391304347826 0.008333333333333333 0  3.155652173913043 0 0  3.155652173913043 0.008333333333333333 0  3.163913043478261 0 0  3.163913043478261 0.008333333333333333 0  3.172173913043478 0 0  3.172173913043478 0.008333333333333333 0  3.180434782608696 0 0  3.180434782608696 0.008333333333333333 0  3.188695652173913 0 0  3.188695652173913 0.008333333333333333 0  3.19695652173913 0 0  3.19695652173913 0.008333333333333333 0  3.205217391304347 0 0  3.205217391304347 0.008333333333333333 0  3.213478260869565 0 0  3.213478260869565 0.008333333333333333 0  3.221739130434782 0 0  3.221739130434782 0.008333333333333333 0  3.23 0 0  3.23 0.008333333333333333 0  3.238260869565217 0 0  3.238260869565217 0.008333333333333333 0  3.246521739130435 0 0  3.246521739130435 0.008333333333333333 0  3.254782608695652 0.008333333333333333 0  2.949130434782608 0.01666666666666667 0  2.957391304347826 0.01666666666666667 0  2.965652173913043 0.01666666666666667 0  2.973913043478261 0.01666666666666667 0  2.982173913043478 0.01666666666666667 0  2.990434782608696 0.01666666666666667 0  2.998695652173913 0.01666666666666667 0  3.006956521739131 0.01666666666666667 0  3.015217391304348 0.01666666666666667 0  3.023478260869565 0.01666666666666667 0  3.031739130434782 0.01666666666666667 0  3.04 0.01666666666666667 0  3.048260869565218 0.01666666666666667 0  3.056521739130435 0.01666666666666667 0  3.064782608695652 0.01666666666666667 0  3.073043478260869 0.01666666666666667 0  3.081304347826087 0.01666666666666667 0  3.089565217391304 0.01666666666666667 0  3.097826086956522 0.01666666666666667 0  3.106086956521739 0.01666666666666667 0  3.114347826086956 0.01666666666666667 0  3.122608695652174 0.01666666666666667 0  3.130869565217391 0.01666666666666667 0  3.139130434782609 0.01666666666666667 0  3.147391304347826 0.01666666666666667 0  3.155652173913043 0.01666666666666667 0  3.163913043478261 0.01666666666666667 0  3.172173913043478 0.01666666666666667 0  3.180434782608696 0.01666666666666667 0  3.188695652173913 0.01666666666666667 0  3.19695652173913 0.01666666666666667 0  3.205217391304347 0.01666666666666667 0  3.213478260869565 0.01666666666666667 0  3.221739130434782 0.01666666666666667 0  3.23 0.01666666666666667 0  3.238260869565217 0.01666666666666667 0  3.246521739130435 0.01666666666666667 0  3.254782608695652 0.01666666666666667 0  3.26304347826087 0.01666666666666667 0  2.957391304347826 0.025 0  2.965652173913043 0.025 0  2.973913043478261 0.025 0  2.982173913043478 0.025 0  2.990434782608696 0.025 0  2.998695652173913 0.025 0  3.006956521739131 0.025 0  3.015217391304348 0.025 0  3.023478260869565 0.025 0  3.031739130434782 0.025 0  3.04 0.025 0  3.048260869565218 0.025 0  3.056521739130435 0.025 0  3.064782608695652 0.025 0  3.073043478260869 0.025 0  3.081304347826087 0.025 0  3.089565217391304 0.025 0  3.097826086956522 0.025 0  3.106086956521739 0.025 0  3.114347826086956 0.025 0  3.122608695652174 0.025 0  3.130869565217391 0.025 0  3.139130434782609 0.025 0  3.147391304347826 0.025 0  3.155652173913043 0.025 0  3.163913043478261 0.025 0  3.172173913043478 0.025 0  3.180434782608696 0.025 0  3.188695652173913 0.025 0  3.19695652173913 0.025 0  3.205217391304347 0.025 0  3.213478260869565 0.025 0  3.221739130434782 0.025 0  3.23 0.025 0  3.238260869565217 0.025 0  3.246521739130435 0.025 0  3.254782608695652 0.025 0  3.26304347826087 0.025 0  3.271304347826087 0.025 0  2.965652173913043 0.03333333333333333 0  2.973913043478261 0.03333333333333333 0  2.982173913043478 0.03333333333333333 0  2.990434782608696 0.03333333333333333 0  2.998695652173913 0.03333333333333333 0  3.006956521739131 0.03333333333333333 0  3.015217391304348 0.03333333333333333 0  3.023478260869565 0.03333333333333333 0  3.031739130434782 0.03333333333333333 0  3.04 0.03333333333333333 0  3.048260869565218 0.03333333333333333 0  3.056521739130435 0.03333333333333333 0  3.064782608695652 0.03333333333333333 0  3.073043478260869 0.03333333333333333 0  3.081304347826087 0.03333333333333333 0  3.089565217391304 0.03333333333333333 0  3.097826086956522 0.03333333333333333 0  3.106086956521739 0.03333333333333333 0  3.114347826086956 0.03333333333333333 0  3.122608695652174 0.03333333333333333 0  3.130869565217391 0.03333333333333333 0  3.139130434782609 0.03333333333333333 0  3.147391304347826 0.03333333333333333 0  3.155652173913043 0.03333333333333333 0  3.163913043478261 0.03333333333333333 0  3.172173913043478 0.03333333333333333 0  3.180434782608696 0.03333333333333333 0  3.188695652173913 0.03333333333333333 0  3.19695652173913 0.03333333333333333 0  3.205217391304347 0.03333333333333333 0  3.213478260869565 0.03333333333333333 0  3.221739130434782 0.03333333333333333 0  3.23 0.03333333333333333 0  3.238260869565217 0.03333333333333333 0  3.246521739130435 0.03333333333333333 0  3.254782608695652 0.03333333333333333 0  3.26304347826087 0.03333333333333333 0  3.271304347826087 0.03333333333333333 0  3.279565217391304 0.03333333333333333 0  2.973913043478261 0.04166666666666666 0  2.982173913043478 0.04166666666666666 0  2.990434782608696 0.04166666666666666 0  2.998695652173913 0.04166666666666666 0  3.006956521739131 0.04166666666666666 0  3.015217391304348 0.04166666666666666 0  3.023478260869565 0.04166666666666666 0  3.031739130434782 0.04166666666666666 0  3.04 0.04166666666666666 0  3.048260869565218 0.04166666666666666 0  3.056521739130435 0.04166666666666666 0  3.064782608695652 0.04166666666666666 0  3.073043478260869 0.04166666666666666 0  3.081304347826087 0.04166666666666666 0  3.089565217391304 0.04166666666666666 0  3.097826086956522 0.04166666666666666 0  3.106086956521739 0.04166666666666666 0  3.114347826086956 0.04166666666666666 0  3.122608695652174 0.04166666666666666 0  3.130869565217391 0.04166666666666666 0  3.139130434782609 0.04166666666666666 0  3.147391304347826 0.04166666666666666 0  3.155652173913043 0.04166666666666666 0  3.163913043478261 0.04166666666666666 0  3.172173913043478 0.04166666666666666 0  3.180434782608696 0.04166666666666666 0  3.188695652173913 0.04166666666666666 0  3.19695652173913 0.04166666666666666 0  3.205217391304347 0.04166666666666666 0  3.213478260869565 0.04166666666666666 0  3.221739130434782 0.04166666666666666 0  3.23 0.04166666666666666 0  3.238260869565217 0.04166666666666666 0  3.246521739130435 0.04166666666666666 0  3.254782608695652 0.04166666666666666 0  3.26304347826087 0.04166666666666666 0  3.271304347826087 0.04166666666666666 0  3.279565217391304 0.04166666666666666 0  3.287826086956521 0.04166666666666666 0  2.982173913043478 0.05 0  2.990434782608696 0.05 0  2.998695652173913 0.05 0  3.006956521739131 0.05 0  3.015217391304348 0.05 0  3.023478260869565 0.05 0  3.031739130434782 0.05 0  3.04 0.05 0  3.048260869565218 0.05 0  3.056521739130435 0.05 0  3.064782608695652 0.05 0  3.073043478260869 0.05 0  3.081304347826087 0.05 0  3.089565217391304 0.05 0  3.097826086956522 0.05 0  3.106086956521739 0.05 0  3.114347826086956 0.05 0  3.122608695652174 0.05 0  3.130869565217391 0.05 0  3.139130434782609 0.05 0  3.147391304347826 0.05 0  3.155652173913043 0.05 0  3.163913043478261 0.05 0  3.172173913043478 0.05 0  3.180434782608696 0.05 0  3.188695652173913 0.05 0  3.19695652173913 0.05 0  3.205217391304347 0.05 0  3.213478260869565 0.05 0  3.221739130434782 0.05 0  3.23 0.05 0  3.238260869565217 0.05 0  3.246521739130435 0.05 0  3.254782608695652 0.05 0  3.26304347826087 0.05 0  3.271304347826087 0.05 0  3.279565217391304 0.05 0  3.287826086956521 0.05 0  3.296086956521739 0.05 0  2.990434782608696 0.05833333333333333 0  2.998695652173913 0.05833333333333333 0  3.006956521739131 0.05833333333333333 0  3.015217391304348 0.05833333333333333 0  3.023478260869565 0.05833333333333333 0  3.031739130434782 0.05833333333333333 0  3.04 0.05833333333333333 0  3.048260869565218 0.05833333333333333 0  3.056521739130435 0.05833333333333333 0  3.064782608695652 0.05833333333333333 0  3.073043478260869 0.05833333333333333 0  3.081304347826087 0.05833333333333333 0  3.089565217391304 0.05833333333333333 0  3.097826086956522 0.05833333333333333 0  3.106086956521739 0.05833333333333333
[...]
<CellData  Scalars="sigma_m"> 
<DataArray  type="Float64"  Name="sigma_m"  format="ascii">2.7576408644523206e+06   3.0045624854728803e+06   2.8828910128120808e+06   3.0130443927872623e+06   2.9570433470602399e+06   3.0087875870908354e+06   2.9833893462273837e+06   2.9927293314706832e+06   2.9848710948593360e+06   2.9723562668289985e+06   2.9811538089326266e+06   2.9542753049585135e+06   2.9784393638597121e+06   2.9346583864905392e+06   2.9871813687256300e+06   2.9140529628932164e+06   3.0252403924494875e+06   2.9041347359899944e+06   3.0955094776879675e+06   2.9088202430223636e+06   3.1893120546831591e+06   2.9262692337047686e+06   3.2935074675522051e+06   2.9524988414801052e+06   3.3901573258923055e+06   2.9790592420478840e+06   3.4624336575623355e+06   2.9970199726531091e+06   3.4913364591627070e+06   2.9935334335085112e+06   3.4589518425288834e+06   2.9545434273096193e+06   3.3597263780554868e+06   2.8735383783328920e+06   3.1998958424328272e+06   2.7520500118839890e+06   2.9903741653940706e+06   2.5958119773944896e+06   2.7406620824720454e+06   2.4113306200004467e+06   2.4557164761761702e+06   2.2038421603029156e+06   2.1354065696505434e+06   1.9765320781039912e+06   1.7762871401161009e+06   1.7302736381003666e+06   1.3762960843874093e+06   1.4619460515810507e+06   9.4272371006826451e+05   1.1555032327597083e+06   5.1574710002384643e+05   7.4368041605622356e+05   2.2573984742412731e+05   3.1710136806126620e+05   1.7830331044178392e-05   1.1730813030174558e+00   0.0000000000000000e+00   0.0000000000000000e+00   0.0000000000000000e+00   0.0000000000000000e+00   0.0000000000000000e+00   0.0000000000000000e+00   0.0000000000000000e+00   0.0000000000000000e+00   0.0000000000000000e+00   0.0000000000000000e+00   0.0000000000000000e+00   0.0000000000000000e+00   0.0000000000000000e+00   0.0000000000000000e+00   0.0000000000000000e+00   0.0000000000000000e+00   0.0000000000000000e+00   0.0000000000000000e+00   0.0000000000000000e+00   3.0176015354952789e+06   3.0273281911199070e+06   3.1619168784499206e+06   3.0167915105592608e+06   3.0808936092735319e+06   2.9936557434839997e+06   3.0140355423627193e+06   2.9694161397992931e+06   2.9596882403193424e+06   2.9500522336235219e+06   2.9192642147032553e+06   2.9269486367174299e+06   2.8814097662271596e+06   2.9027489603711586e+06   2.8246533786561298e+06   2.8934513888151515e+06   2.7580934711162434e+06   2.9001151374709266e+06   2.6972465464435997e+06   2.9196131526761125e+06   2.6469947535549370e+06   2.9466926638201103e+06   2.6101437004631916e+06   2.9703541266336688e+06   2.5839525327996933e+06   2.9823237073686593e+06   2.5674126604382992e+06   2.9691896231214935e+06   2.5502638485247786e+06   2.9186146639179899e+06   2.5153586385340616e+06   2.8299524254262117e+06   2.4555732682727175e+06   2.7082878764728191e+06   2.3736012672396321e+06   2.5601681077432581e+06   2.2750686089538755e+06   2.3923319676004224e+06   2.1661627109161709e+06   2.2115548393287589e+06   2.0531085042812966e+06   2.0249789663998047e+06   1.9417417758425786e+06   1.8400010068599761e+06   1.8363929633820523e+06   1.6607993480630768e+06   1.7370179193069125e+06   1.4776854419723125e+06   1.6336966574539843e+06   1.2706736020489708e+06   1.5033410209152717e+06   1.2703112602156678e+06   1.3825549715860607e+06   6.3183383873817445e-01   1.5548056395987882e+06   0.0000000000000000e+00   1.7536536924409596e-06   0.0000000000000000e+00   0.0000000000000000e+00   0.0000000000000000e+00   0.0000000000000000e+00   0.0000000000000000e+00   0.0000000000000000e+00   0.0000000000000000e+00   0.0000000000000000e+00   0.0000000000000000e+00   0.0000000000000000e+00   0.0000000000000000e+00   0.0000000000000000e+00   0.0000000000000000e+00   0.0000000000000000e+00   0.0000000000000000e+00   0.0000000000000000e+00   0.0000000000000000e+00   0.0000000000000000e+00   0.0000000000000000e+00   3.1697012226140187e+06   3.0824279798351503e+06   3.0600889795014192e+06   3.0100415817563920e+06   2.9933498157257829e+06   2.9533466718862266e+06   2.9471131255196515e+06   2.9144280017982861e+06   2.8837924663201156e+06   2.8740106483772863e+06   2.8276858938875804e+06   2.8100147229833105e+06   2.7896835536122327e+06   2.7417011522685285e+06   2.6517153786784089e+06   2.6802242068191078e+06   2.4833070986948996e+06   2.6309599287882559e+06   2.3548996655021706e+06   2.5971565575178741e+06   2.2527245255642701e+06   2.5715277884359150e+06   2.1803122563047074e+06   2.5543921028403160e+06   2.1478029583921367e+06   2.5298217949632406e+06   2.1442911408490064e+06   2.4794943203201662e+06   2.1370758582506152e+06   2.4073163786454359e+06   2.1113177403497039e+06   2.3225007980437083e+06   2.0718204758422524e+06   2.2320918971840697e+06   2.0264664784589778e+06   2.1416503318347065e+06   1.9819651874967464e+06   2.0565654400630004e+06   1.9438585222730841e+06   1.9817299759987057e+06   1.9163554411779817e+06   1.9189588715661021e+06   1.9011507515435468e+06   1.8619251911304852e+06   1.8955380218285332e+06   1.7915008110575101e+06   1.8915738750763466e+06   1.6908777815226428e+06   1.8839633321867522e+06   1.6877559509383899e+06   1.9257477550783576e+06   2.0813776703936432e+06   2.3432600234450968e+06   1.9522979359444192e-03   2.4499665281067523e+06   0.0000000000000000e+00   1.5792907431770975e-06   0.0000000000000000e+00   0.0000000000000000e+00   0.0000000000000000e+00   0.0000000000000000e+00   0.0000000000000000e+00   0.0000000000000000e+00   0.0000000000000000e+00   0.0000000000000000e+00   0.0000000000000000e+00   0.0000000000000000e+00   0.0000000000000000e+00   0.0000000000000000e+00   0.0000000000000000e+00   0.0000000000000000e+00   0.0000000000000000e+00   0.0000000000000000e+00   0.0000000000000000e+00   0.0000000000000000e+00   0.0000000000000000e+00   3.0476023185191574e+06   2.9818825621036659e+06   2.8760045660284669e+06   2.9424624621521956e+06   2.9580376470881253e+06   2.8782704888594872e+06   2.9667600148900151e+06   2.8239176172333816e+06   2.6916013693012982e+06   2.7928981686265590e+06   2.7674671831547655e+06   2.6476498700604136e+06   2.9288464110441562e+06   2.4678876162760695e+06   2.1949822370214253e+06   2.3324248094311669e+06   2.0716945725925500e+06   2.2296023362925602e+06   1.8648495324039340e+06   2.1562203683295320e+06   1.7355092677535375e+06   2.1317374494525595e+06   1.6816350466731742e+06   2.1254523403003411e+06   1.7273500885755916e+06   2.0925674813648793e+06   1.7861156504723728e+06   2.0431703321268223e+06   1.8113108944169343e+06   1.9932533992670036e+06   1.8137454852737277e+06   1.9509545366957120e+06   1.8089689538995556e+06   1.9196878512520350e+06   1.8068625817382385e+06   1.9009849996515526e+06   1.8130714472948373e+06   1.8944951666088353e+06   1.8302937598966076e+06   1.8959734769175702e+06   1.8580588160931382e+06   1.8950804502700309e+06   1.8921373374803604e+06   1.8768655604735212e+06   1.9261944301060503e+06   1.8385676291007800e+06   1.9612575157592811e+06   1.8543804005564586e+06   2.0411276055980609e+06   2.1805118550417558e+06   2.3358152474985975e+06   2.8328471265665647e+06   3.1187167919958876e+06   2.2440624017561600e+01   3.1328153844444519e+06   0.0000000000000000e+00   4.5415694546157875e-02   0.0000000000000000e+00   0.0000000000000000e+00   0.0000000000000000e+00   0.0000000000000000e+00   0.0000000000000000e+00   0.0000000000000000e+00   0.0000000000000000e+00   0.0000000000000000e+00   0.0000000000000000e+00   0.0000000000000000e+00   0.0000000000000000e+00   0.0000000000000000e+00   0.0000000000000000e+00   0.0000000000000000e+00   0.0000000000000000e+00   0.0000000000000000e+00   0.0000000000000000e+00   0.0000000000000000e+00   0.0000000000000000e+00   3.6070480055099970e+05   1.8893039906801675e+06   1.3413437764539748e+00   2.3238879633622128e+06   1.1932367045938443e+02   2.4259087288889945e+06   2.0787696367922395e+04   2.5192103083130354e+06   1.6224828858915048e+06   2.6566070707870373e+06   1.7071201496428088e+06   2.1792675250415066e+06   2.0106357034184136e+06   2.0972722665597121e+06   1.9538993167281239e+06   1.8410266931830172e+06   1.2913344254629212e+06   1.6916669468090136e+06   1.3661167942582446e+06   1.6529154856649865e+06   1.0661241123785980e+06   1.7090375450987404e+06   1.2310257532258136e+06   1.7146148357865459e+06   1.4420584058520522e+06   1.6952372871350250e+06   1.5408005971099501e+06   1.6785599040014048e+06   1.5787914023682603e+06   1.6736733252626695e+06   1.5968430308878357e+06   1.6818173834103555e+06   1.6135350021727686e+06   1.7017029026096330e+06   1.6368840141893046e+06   1.7301479041418685e+06   1.6698003672293932e+06   1.7608185405649333e+06   1.7111965057929256e+06   1.7838351477408239e+06   1.7559678779070526e+06   1.7892259327187759e+06   1.7975478469649153e+06   1.7797657553034702e+06   1.8352071197326079e+06   1.8014365204127207e+06   1.8926905949013073e+06   1.9678942743605026e+06   2.0455705073170057e+06   2.3780747832549582e+06   2.3655204301688187e+06   2.7261524917664486e+06   2.6370098801897531e+06   1.3784854006208703e+06   2.5121459307939583e+06   3.7036386344266614e-08   9.4738353844651999e+05   0.0000000000000000e+00   1.8525261038556483e-10   0.0000000000000000e+00   0.0000000000000000e+00   0.0000000000000000e+00   0.0000000000000000e+00   0.0000000000000000e+00   0.0000000000000000e+00   0.0000000000000000e+00   0.0000000000000000e+00   0.0000000000000000e+00   0.0000000000000000e+00   0.0000000000000000e+00   0.0000000000000000e+00   0.0000000000000000e+00   0.0000000000000000e+00   0.0000000000000000e+00   0.0000000000000000e+00   0.0000000000000000e+00   0.0000000000000000e+00   0.0000000000000000e+00   0.0000000000000000e+00   0.0000000000000000e+00   0.0000000000000000e+00   0.0000000000000000e+00   0.0000000000000000e+00   5.5409995780827450e-09   0.0000000000000000e+00   1.1709468593840937e-04   0.0000000000000000e+00   1.0597058066829579e+01   2.0862093255682696e-07   4.6221074707113259e+05   8.8313393256025732e-02   1.1262762450951845e+06   9.4417690895933803e+04   9.7658835616583889e+05   4.5075296378586529e+05   1.2332559812064683e+06   5.4781119098676415e+05   1.3076767156820507e+06   1.1197181532105084e+06   1.3305278288394290e+06   1.3023068150106787e+06   1.3505032979055878e+06   1.3579704550500007e+06   1.3769516227889527e+06   1.3796566468740075e+06   1.4106526646763405e+06   1.3959757397519273e+06   1.4508259268215485e+06   1.4176201559416433e+06   1.4952812936191615e+06   1.4490087412383566e+06   1.5390145004558959e+06   1.4900451716851282e+06   1.5747041130448373e+06   1.5359175005734197e+06   1.5967258459284678e+06   1.5814608751496933e+06   1.6101146753676881e+06   1.6277231324219808e+06   1.6467742880198078e+06   1.6930876370772440e+06   1.7738178823678212e+06   1.8264292815457394e+06   2.0479391717409412e+06   2.0740443072032291e+06   2.3861737239167131e+06   2.3813809199555940e+06   2.5574648232995099e+06   2.6444414983400959e+06   2.9085729196645096e+06   3.2287204366692398e+06   1.0814214445259631e+00   3.0485606780504319e+06   0.0000000000000000e+00   5.6169890765750061e-03   0.0000000000000000e+00   0.0000000000000000e+00   0.0000000000000000e+00   0.0000000000000000e+00   0.0000000000000000e+00   0.0000000000000000e+00   0.0000000000000000e+00   0.0000000000000000e+00   0.0000000000000000e+00   0.0000000000000000e+00   0.0000000000000000e+00   0.0000000000000000e+00   0.0000000000000000e+00   0.0000000000000000e+00   0.0000000000000000e+00   0.0000000000000000e+00   0.0000000000000000e+00   0.0000000000000000e+00   0.0000000000000000e+00   0.0000000000000000e+00   0.0000000000000000e+00   0.0000000000000000e+00   0.0000000000000000e+00   0.0000000000000000e+00   0.0000000000000000e+00   0.0000000000000000e+00   0.0000000000000000e+00   0.0000000000000000e+00   0.0000000000000000e+00   0.0000000000000000e+00   2.0246654302959129e-05   0.0000000000000000e+00   9.3738941189559438e+04   1.3200283196935050e-03   1.0417173852903279e+06   8.6981553936043358e+05   9.2298276969877444e+05   9.4163160780363914e+05   9.5563036803693685e+05   1.1119208289682432e+06   1.0113993316040857e+06   1.1515721702382439e+06   1.0645993341221120e+06   1.1621736255555705e+06   1.1138432537504793e+06   1.1660550002280218e+06   1.1622476386018828e+06   1.1740417127294077e+06   1.2119458036975572e+06   1.1933241099875087e+06   1.2611679874837142e+06   1.2264667254565028e+06   1.3054890907327237e+06   1.2689810125345434e+06   1.3424950279000448e+06   1.3175281566574152e+06   1.3774867683884590e+06   1.3750305474130015e+06   1.4330309951204038e+06   1.4533491809606450e+06   1.5506949440654386e+06   1.5809169093249098e+06   1.7588070718835257e+06   1.7790997334554885e+06   2.0109747040435667e+06   2.0167421226272029e+06   2.2149377906554700e+06   2.2336532479528901e+06   2.5196188441944229e+06   2.4893240474676853e+06   2.7621324266955899e+06   2.6606592887753118e+06   9.6151191089363815e+05   2.4320931650514463e+06   1.8166513438840627e-09   6.9822949851421668e+04   0.0000000000000000e+00   0.0000000000000000e+00   0.0000000000000000e+00   0.0000000000000000e+00   0.0000000000000000e+00   0.0000000000000000e+00   0.0000000000000000e+00   0.0000000000000000e+00   0.0000000000000000e+00   0.0000000000000000e+00   0.0000000000000000e+00   0.0000000000000000e+00   0.0000000000000000e+00   0.0000000000000000e+00   0.0000000000000000e+00   0.0000000000000000e+00   0.0000000000000000e+00   0.0000000000000000e+00   0.0000000000000000e+00   0.0000000000000000e+00   0.0000000000000000e+00   0.0000000000000000e+00   0.0000000000000000e+00   0.0000000000000000e+00   0.0000000000000000e+00   0.0000000000000000e+00   0.0000000000000000e+00   0.0000000000000000e+00   0.0000000000000000e+00   0.0000000000000000e+00   1.5822684082562280e-05   0.0000000000000000e+00   1.7464696061013413e+06   1.2939496583411388e+04   9.5204697210189991e+05   1.6081543750598461e+06   7.1193397464916250e+05   1.0859237949608203e+06   7.2667791183676745e+05   1.0036241627315765e+06   7.7729694858380000e+05   9.7724783036960557e+05   8.2315189460719656e+05   9.5619926630515151e+05   8.6485764815927576e+05   9.3975592813446524e+05   9.0860960717115388e+05   9.3711348123428377e+05   9.5550060177377809e+05   9.5496231614928995e+05   1.0029585218046969e+06   9.8700917991608870e+05   1.0509681604363660e+06   1.0324955613871710e+06   1.1034779530749063e+06   1.0984217588413742e+06   1.1747958190574145e+06   1.1879318916858146e+06   1.2902137961679252e+06   1.3144138440406052e+06   1.4639252688986256e+06   1.4867417790173308e+06   1.6727027447212366e+06   1.6915785525043204e+06   1.8821408688319901e+06   1.9077331562731359e+06   2.1447020810953244e+06   2.1598059361736802e+06   2.4273095533709205e+06   2.4184307412181473e+06   2.5222055765387937e+06   2.5960024983458342e+06   2.6596871334686205e+06   3.0151384225630453e+06   7.6268032058249514e-03   2.5655608120951168e+06   0.0000000000000000e+00   2.5733778125572784e-05   0.0000000000000000e+00   0.0000000000000000e+00   0.0000000000000000e+00   0.0000000000000000e+00   0.0000000000000000e+00   0.0000000000000000e+00   0.0000000000000000e+00   0.0000000000000000e+00   0.0000000000000000e+00   0.0000000000000000e+00   0.0000000000000000e+00   0.0000000000000000e+00   0.0000000000000000e+00   0.0000000000000000e+00   0.0000000000000000e+00   0.0000000000000000e+00   0.0000000000000000e+00   0.0000000000000000e+00   0.0000000000000000e+00   0.0000000000000000e+00   0.0000000000000000e+00   0.0000000000000000e+00   0.0000000000000000e+00   0.0000000000000000e+00   0.0000000000000000e+00   0.0000000000000000e+00   1.4189951597138035e-10   0.0000000000000000e+00   1.1527106687184970e+06   1.9290897728261116e+03   1.1370173427399241e+06   1.8923876332958711e+06   6.9559825043971208e+05   1.2484841569698893e+06   5.7851699148483446e+05   9.7776755893520219e+05   5.7529587570316764e+05   8.7363012573905161e+05   5.8796822101769981e+05   8.1135608043027169e+05   6.0080761324277846e+05   7.6116448171979422e+05   6.2121293545472191e+05   7.2832170533967484e+05   6.5162046078249940e+05   7.2457365079115529e+05   6.8943890112981584e+05   7.3357604925274197e+05   7.3842507542092435e+05   7.5902532300252793e+05   8.0059167461260583e+05   8.2320608393610513e+05   8.8181290892312408e+05   9.1619895013367059e+05   9.9688715322030953e+05   1.0387293315374736e+06   1.1535767287090332e+06   1.1916931169751498e+06   1.3426400437494181e+06   1.3749575222276598e+06   1.5527399940605552e+06   1.5840947065820261e+06   1.7994195520830704e+06   1.8231593544762498e+06   2.0505851542724406e+06   2.0634307006760268e+06   2.2273850551614263e+06   2.2612378822176126e+06   2.4752086359385434e+06   2.4932950206937017e+06   2.6851821756983604e+06   2.7104269704092019e+06   1.3575997217671638e+03   2.8305101290864642e+06   0.0000000000000000e+00   4.0287387463812845e+00   0.0000000000000000e+00   0.0000000000000000e+00   0.0000000000000000e+00   0.0000000000000000e+00   0.0000000000000000e+00   0.0000000000000000e+00   0.0000000000000000e+00   0.0000000000000000e+00   0.0000000000000000e+00   0.0000000000000000e+00   0.0000000000000000e+00   0.0000000000000000e+00   0.0000000000000000e+00   0.0000000000000000e+00   0.0000000000000000e+00   0.0000000000000000e+00   0.0000000000000000e+00   0.0000000000000000e+00   0.0000000000000000e+00   0.0000000000000000e+00   0.0000000000000000e+00   0.0000000000000000e+00   0.0000000000000000e+00   0.0000000000000000e+00   2.3849626217325766e-09   0.0000000000000000e+00   1.6469577683755863e+06   1.7292173998324967e+06   1.2158458030999287e+06   1.9931268987544731e+06   7.4596297607195517e+05   1.3947627123526321e+06   5.5369498818996234e+05   1.0314663943761786e+06   4.9830244218419289e+05   8.5444955964412098e+05   4.6997325294311054e+05   7.5580539928549691e+05   4.3897162032646540e+05   6.8147728315250319e+05   4.1515122646604048e+05   6.2804654615534004e+05   4.0508939743479196e+05   6.1717067337900039e+05   4.0296196928655414e+05   6.0020152638817509e+05   4.2586102679211891e+05   5.7738396658983768e+05   4.8030443779673357e+05   6.1568868747756549e+05   5.6024954127450811e+05   6.8737749510966300e+05   6.7180507475030306e+05   7.8504575612930278e+05   8.1725582371840230e+05   9.0114682718952827e+05   9.9522483327017212e+05   1.0531616896179630e+06   1.2029164020434727e+06   1.2472919149281401e+06   1.4389529163760459e+06   1.4756153916420408e+06   1.6751518395718986e+06   1.7052146420548086e+06   1.8815961403428065e+06   1.9178516458279439e+06   2.1090630313381813e+06   2.1413554706282578e+06   2.3409898394310861e+06   2.3654683707541637e+06   2.5981631104268278e+06   2.5756792544155177e+06   1.4698574133772061e+06   2.5238609749468234e+06   1.5238555851560352e-07   3.1373669925700664e+05   0.0000000000000000e+00   4.8767807434060028e-10   0.0000000000000000e+00   0.0000000000000000e+00   0.0000000000000000e+00   0.0000000000000000e+00   0.0000000000000000e+00   0.0000000000000000e+00   0.0000000000000000e+00   0.0000000000000000e+00   0.0000000000000000e+00   0.0000000000000000e+00   0.0000000000000000e+00   0.0000000000000000e+00   0.0000000000000000e+00   0.0000000000000000e+00   0.0000000000000000e+00   0.0000000000000000e+00   0.0000000000000000e+00   0.0000000000000000e+00   0.0000000000000000e+00   0.0000000000000000e+00   5.1674846134927175e-03   1.5080716821124010e-05   1.9917378762231756e+06   3.1916109008825896e+06   1.2269476977811176e+06   2.3402687019048571e+06   7.8567616626901540e+05   1.4903436043447836e+06   5.9396538515259395e+05   1.0761012621224073e+06   5.3488736327117705e+05   8.6962680715284310e+05   5.0157496316802292e+05   7.6677043735994131e+05   4.5511680335132848e+05   7.0176506846570107e+05   4.0516441100869200e+05   6.6184837484775053e+05   3.6916017238961597e+05   6.9507724124441715e+05   3.1276590799244167e+05   6.9963131371839170e+05   2.4501992228080163e+05   6.4716740736996895e+05   2.2118948907231775e+05   6.5214142872154305e+05   2.4636534620380570e+05   6.5414847833207424e+05   3.2906040974253393e+05   6.6172635291854979e+05   4.51790285