<?xml version="1.0"?>
<VTKFile type="UnstructuredGrid"  version="0.1"  >
<UnstructuredGrid>
<Piece  NumberOfPoints="2354" NumberOfCells="4514">
<Points>
<DataArray  type="Float64"  NumberOfComponents="3"  format="ascii">1.420869565217391 0 0  1.429130434782609 0 0  1.429130434782609 0.008333333333333333 0  1.437391304347826 0 0  1.437391304347826 0.008333333333333333 0  1.445652173913043 0 0  1.445652173913043 0.008333333333333333 0  1.453913043478261 0 0  1.453913043478261 0.008333333333333333 0  1.462173913043478 0 0  1.462173913043478 0.008333333333333333 0  1.470434782608696 0 0  1.470434782608696 0.008333333333333333 0  1.478695652173913 0 0  1.478695652173913 0.008333333333333333 0  1.486956521739131 0 0  1.486956521739131 0.008333333333333333 0  1.495217391304348 0 0  1.495217391304348 0.008333333333333333 0  1.503478260869565 0 0  1.503478260869565 0.008333333333333333 0  1.511739130434782 0 0  1.511739130434782 0.008333333333333333 0  1.52 0 0  1.52 0.008333333333333333 0  1.528260869565217 0 0  1.528260869565217 0.008333333333333333 0  1.536521739130435 0 0  1.536521739130435 0.008333333333333333 0  1.544782608695652 0 0  1.544782608695652 0.008333333333333333 0  1.55304347826087 0 0  1.55304347826087 0.008333333333333333 0  1.561304347826087 0 0  1.561304347826087 0.008333333333333333 0  1.569565217391304 0 0  1.569565217391304 0.008333333333333333 0  1.577826086956522 0 0  1.577826086956522 0.008333333333333333 0  1.586086956521739 0 0  1.586086956521739 0.008333333333333333 0  1.594347826086957 0 0  1.594347826086957 0.008333333333333333 0  1.602608695652174 0 0  1.602608695652174 0.008333333333333333 0  1.610869565217391 0 0  1.610869565217391 0.008333333333333333 0  1.619130434782609 0 0  1.619130434782609 0.008333333333333333 0  1.627391304347826 0 0  1.627391304347826 0.008333333333333333 0  1.635652173913043 0 0  1.635652173913043 0.008333333333333333 0  1.643913043478261 0 0  1.643913043478261 0.008333333333333333 0  1.652173913043478 0 0  1.652173913043478 0.008333333333333333 0  1.660434782608696 0 0  1.660434782608696 0.008333333333333333 0  1.668695652173913 0 0  1.668695652173913 0.008333333333333333 0  1.67695652173913 0 0  1.67695652173913 0.008333333333333333 0  1.685217391304348 0 0  1.685217391304348 0.008333333333333333 0  1.693478260869565 0 0  1.693478260869565 0.008333333333333333 0  1.701739130434782 0 0  1.701739130434782 0.008333333333333333 0  1.71 0 0  1.71 0.008333333333333333 0  1.718260869565217 0 0  1.718260869565217 0.008333333333333333 0  1.726521739130435 0 0  1.726521739130435 0.008333333333333333 0  1.734782608695652 0 0  1.734782608695652 0.008333333333333333 0  1.743043478260869 0.008333333333333333 0  1.437391304347826 0.01666666666666667 0  1.445652173913043 0.01666666666666667 0  1.453913043478261 0.01666666666666667 0  1.462173913043478 0.01666666666666667 0  1.470434782608696 0.01666666666666667 0  1.478695652173913 0.01666666666666667 0  1.486956521739131 0.01666666666666667 0  1.495217391304348 0.01666666666666667 0  1.503478260869565 0.01666666666666667 0  1.511739130434782 0.01666666666666667 0  1.52 0.01666666666666667 0  1.528260869565217 0.01666666666666667 0  1.536521739130435 0.01666666666666667 0  1.544782608695652 0.01666666666666667 0  1.55304347826087 0.01666666666666667 0  1.561304347826087 0.01666666666666667 0  1.569565217391304 0.01666666666666667 0  1.577826086956522 0.01666666666666667 0  1.586086956521739 0.01666666666666667 0  1.594347826086957 0.01666666666666667 0  1.602608695652174 0.01666666666666667 0  1.610869565217391 0.01666666666666667 0  1.619130434782609 0.01666666666666667 0  1.627391304347826 0.01666666666666667 0  1.635652173913043 0.01666666666666667 0  1.643913043478261 0.01666666666666667 0  1.652173913043478 0.01666666666666667 0  1.660434782608696 0.01666666666666667 0  1.668695652173913 0.01666666666666667 0  1.67695652173913 0.01666666666666667 0  1.685217391304348 0.01666666666666667 0  1.693478260869565 0.01666666666666667 0  1.701739130434782 0.01666666666666667 0  1.71 0.01666666666666667 0  1.718260869565217 0.01666666666666667 0  1.726521739130435 0.01666666666666667 0  1.734782608695652 0.01666666666666667 0  1.743043478260869 0.01666666666666667 0  1.445652173913043 0.025 0  1.453913043478261 0.025 0  1.462173913043478 0.025 0  1.470434782608696 0.025 0  1.478695652173913 0.025 0  1.486956521739131 0.025 0  1.495217391304348 0.025 0  1.503478260869565 0.025 0  1.511739130434782 0.025 0  1.52 0.025 0  1.528260869565217 0.025 0  1.536521739130435 0.025 0  1.544782608695652 0.025 0  1.55304347826087 0.025 0  1.561304347826087 0.025 0  1.569565217391304 0.025 0  1.577826086956522 0.025 0  1.586086956521739 0.025 0  1.594347826086957 0.025 0  1.602608695652174 0.025 0  1.610869565217391 0.025 0  1.619130434782609 0.025 0  1.627391304347826 0.025 0  1.635652173913043 0.025 0  1.643913043478261 0.025 0  1.652173913043478 0.025 0  1.660434782608696 0.025 0  1.668695652173913 0.025 0  1.67695652173913 0.025 0  1.685217391304348 0.025 0  1.693478260869565 0.025 0  1.701739130434782 0.025 0  1.71 0.025 0  1.718260869565217 0.025 0  1.726521739130435 0.025 0  1.734782608695652 0.025 0  1.743043478260869 0.025 0  1.751304347826087 0.025 0  1.453913043478261 0.03333333333333333 0  1.462173913043478 0.03333333333333333 0  1.470434782608696 0.03333333333333333 0  1.478695652173913 0.03333333333333333 0  1.486956521739131 0.03333333333333333 0  1.495217391304348 0.03333333333333333 0  1.503478260869565 0.03333333333333333 0  1.511739130434782 0.03333333333333333 0  1.52 0.03333333333333333 0  1.528260869565217 0.03333333333333333 0  1.536521739130435 0.03333333333333333 0  1.544782608695652 0.03333333333333333 0  1.55304347826087 0.03333333333333333 0  1.561304347826087 0.03333333333333333 0  1.569565217391304 0.03333333333333333 0  1.577826086956522 0.03333333333333333 0  1.586086956521739 0.03333333333333333 0  1.594347826086957 0.03333333333333333 0  1.602608695652174 0.03333333333333333 0  1.610869565217391 0.03333333333333333 0  1.619130434782609 0.03333333333333333 0  1.627391304347826 0.03333333333333333 0  1.635652173913043 0.03333333333333333 0  1.643913043478261 0.03333333333333333 0  1.652173913043478 0.03333333333333333 0  1.660434782608696 0.03333333333333333 0  1.668695652173913 0.03333333333333333 0  1.67695652173913 0.03333333333333333 0  1.685217391304348 0.03333333333333333 0  1.693478260869565 0.03333333333333333 0  1.701739130434782 0.03333333333333333 0  1.71 0.03333333333333333 0  1.718260869565217 0.03333333333333333 0  1.726521739130435 0.03333333333333333 0  1.734782608695652 0.03333333333333333 0  1.743043478260869 0.03333333333333333 0  1.751304347826087 0.03333333333333333 0  1.759565217391304 0.03333333333333333 0  1.462173913043478 0.04166666666666666 0  1.470434782608696 0.04166666666666666 0  1.478695652173913 0.04166666666666666 0  1.486956521739131 0.04166666666666666 0  1.495217391304348 0.04166666666666666 0  1.503478260869565 0.04166666666666666 0  1.511739130434782 0.04166666666666666 0  1.52 0.04166666666666666 0  1.528260869565217 0.04166666666666666 0  1.536521739130435 0.04166666666666666 0  1.544782608695652 0.04166666666666666 0  1.55304347826087 0.04166666666666666 0  1.561304347826087 0.04166666666666666 0  1.569565217391304 0.04166666666666666 0  1.577826086956522 0.04166666666666666 0  1.586086956521739 0.04166666666666666 0  1.594347826086957 0.04166666666666666 0  1.602608695652174 0.04166666666666666 0  1.610869565217391 0.04166666666666666 0  1.619130434782609 0.04166666666666666 0  1.627391304347826 0.04166666666666666 0  1.635652173913043 0.04166666666666666 0  1.643913043478261 0.04166666666666666 0  1.652173913043478 0.04166666666666666 0  1.660434782608696 0.04166666666666666 0  1.668695652173913 0.04166666666666666 0  1.67695652173913 0.04166666666666666 0  1.685217391304348 0.04166666666666666 0  1.693478260869565 0.04166666666666666 0  1.701739130434782 0.04166666666666666 0  1.71 0.04166666666666666 0  1.718260869565217 0.04166666666666666 0  1.726521739130435 0.04166666666666666 0  1.734782608695652 0.04166666666666666 0  1.743043478260869 0.04166666666666666 0  1.751304347826087 0.04166666666666666 0  1.759565217391304 0.04166666666666666 0  1.767826086956522 0.04166666666666666 0  1.470434782608696 0.05 0  1.478695652173913 0.05 0  1.486956521739131 0.05 0  1.495217391304348 0.05 0  1.503478260869565 0.05 0  1.511739130434782 0.05 0  1.52 0.05 0  1.528260869565217 0.05 0  1.536521739130435 0.05 0  1.544782608695652 0.05 0  1.55304347826087 0.05 0  1.561304347826087 0.05 0  1.569565217391304 0.05 0  1.577826086956522 0.05 0  1.586086956521739 0.05 0  1.594347826086957 0.05 0  1.602608695652174 0.05 0  1.610869565217391 0.05 0  1.619130434782609 0.05 0  1.627391304347826 0.05 0  1.635652173913043 0.05 0  1.643913043478261 0.05 0  1.652173913043478 0.05 0  1.660434782608696 0.05 0  1.668695652173913 0.05 0  1.67695652173913 0.05 0  1.685217391304348 0.05 0  1.693478260869565 0.05 0  1.701739130434782 0.05 0  1.71 0.05 0  1.718260869565217 0.05 0  1.726521739130435 0.05 0  1.734782608695652 0.05 0  1.743043478260869 0.05 0  1.751304347826087 0.05 0  1.759565217391304 0.05 0  1.767826086956522 0.05 0  1.478695652173913 0.05833333333333333 0  1.486956521739131 0.05833333333333333 0  1.495217391304348 0.05833333333333333 0  1.503478260869565 0.05833333333333333 0  1.511739130434782 0.05833333333333333 0  1.52 0.05833333333333333 0  1.528260869565217 0.05833333333333333 0  1.536521739130435 0.05833333333333333 0  1.544782608695652 0.05833333333333333 0  1.55304347826087 0.05833333333333333 0  1.561304347826087 0.05833333333333333 0  1.569565217391304 0.05833333333333333 0  1.577826086956522 0.05833333333333333 0  1.586086956521739 0.05833333333333333 0  1.594347826086957 0.05833333333333333 0  1.602608695652174 0.05833333333333333 0  1.610869565217391 0.05833333333333333 0  1.619130434782609 0.05833333333333333 0  1.627391304347826 0.05833333333333333 0  1.635652173913
[...]
<CellData  Scalars="rho"> 
<DataArray  type="Float64"  Name="rho"  format="ascii">9.2921792908472212e-01   9.1388076087694703e-01   9.3519968169156187e-01   9.4266091466219493e-01   9.3974704727079683e-01   8.8862512771715407e-01   8.8226628999407186e-01   9.0881338892737207e-01   9.0214445368268070e-01   9.2667273122581706e-01   9.1980203950544348e-01   9.4363852760103351e-01   9.3678074211600815e-01   9.6310255668637978e-01   9.5690498687076109e-01   9.7811945800569311e-01   9.7315528398325901e-01   9.9185429293148819e-01   9.8714380964085846e-01   9.9997446315438743e-01   9.9997217479554412e-01   9.9998043949230253e-01   9.9997830075751437e-01   9.9998849251481714e-01   9.9998680611997370e-01   9.9999454175882896e-01   9.9999152307783468e-01   9.9999817574449112e-01   9.9999681319752332e-01   1.0000000000000000e+00   9.9999999850054511e-01   9.9532492689830587e-01   9.9661008084983083e-01   9.8846175562087257e-01   9.9049519495964145e-01   9.8227248812860557e-01   9.8442988441388091e-01   9.7329102832670333e-01   9.7531132314527447e-01   9.6643897452302563e-01   9.6831704634403781e-01   9.6004776274784065e-01   9.6162576807820110e-01   9.4542603915691137e-01   9.5275464815276278e-01   9.3209885376098989e-01   8.8015049656643485e-01   8.6536685610941755e-01   8.6694000698149065e-01   8.5468232850964454e-01   8.5552604082364259e-01   8.4620803167972303e-01   8.4616587514764074e-01   8.5948221235541444e-01   8.5835207840283489e-01   8.4445584828660525e-01   8.4164434042926328e-01   8.5508441395491674e-01   8.5083722795211236e-01   8.5203995006361866e-01   8.5031116771925019e-01   8.2569852519856068e-01   8.1968890283519280e-01   8.2315615498721517e-01   8.2158644876128351e-01   8.2719217696651970e-01   8.2300129800158939e-01   8.5994113644588799e-01   8.3480458288303372e-01   8.5715170975859056e-01   8.5872454682343013e-01   8.5364492950698978e-01   8.5531783337423850e-01   8.2580270130509847e-01   8.4744320210601720e-01   8.0550506684545664e-01   9.3121152593278467e-01   8.7348119740482311e-01   8.6101990443628185e-01   8.8541551312713151e-01   8.7397306924077522e-01   9.0102865278107414e-01   8.9027250169445360e-01   9.2098053663988755e-01   8.9268205968413139e-01   9.0242484453801908e-01   8.8789358170260269e-01   9.3596151123608595e-01   9.2288331595100070e-01   9.7036733786762897e-01   9.5234718614285152e-01   9.9989857382197256e-01   9.9101297672328537e-01   9.9997347272024806e-01   9.9997052764858851e-01   9.9997975808750372e-01   9.9997721840452536e-01   9.9998798325833849e-01   9.9998609115579529e-01   9.9999258323848650e-01   9.9999072981533987e-01   9.9999751536474135e-01   9.9999596998547213e-01   1.0000000000000000e+00   9.9999963006575776e-01   9.9513555239187779e-01   9.9723411463404088e-01   9.8823113868470436e-01   9.9047588606547998e-01   9.8129356769051856e-01   9.8369253738912854e-01   9.6703144118691697e-01   9.5439329635041659e-01   9.2875992684072917e-01   9.3142526985090535e-01   9.0424786774486798e-01   9.0636213126878296e-01   8.8874664167556916e-01   8.8813967746668543e-01   8.6630582899570141e-01   8.7286554607041200e-01   8.5311532925133804e-01   8.6750410754184604e-01   8.5999576039109149e-01   8.4176822675751017e-01   8.3742771069033384e-01   8.3872473229599731e-01   8.3875910598668590e-01   8.3139298108727389e-01   8.3822097885161806e-01   8.2958059181923804e-01   8.3776644179686532e-01   8.1857194033895675e-01   8.0135915065436270e-01   7.8764494720261757e-01   7.9678056153960164e-01   7.8318033576083479e-01   8.1019861605281496e-01   8.0010242357148997e-01   8.2056251913323019e-01   8.1114148614174009e-01   8.6013046507998769e-01   8.3134247941183270e-01   8.7251060948314285e-01   8.6216447630135218e-01   8.6089510988545448e-01   8.6515783988296524e-01   8.3578119225923275e-01   8.6248776213136613e-01   8.0821363387777934e-01   8.2070597366205866e-01   7.9968619645942829e-01   7.8978576909664344e-01   7.2720018285344745e-01   7.9325667895989171e-01   7.4688429251511934e-01   8.3275593965549766e-01   7.8675466503669111e-01   8.6965675210457805e-01   8.2170638970777909e-01   9.1762265400069820e-01   8.7402254767839194e-01   9.5729280798442995e-01   9.3436548911713602e-01   9.8761079947910768e-01   9.7218806258515023e-01   9.9997131725882737e-01   9.9561101782039074e-01   9.9997834954449250e-01   9.9997539345825992e-01   9.9998695192195197e-01   9.9998493511869957e-01   9.9999126970269314e-01   9.9998938391522163e-01   9.9999605973013428e-01   9.9999441749012896e-01   9.9999956161448578e-01   9.9999753667475644e-01   9.9587598500686736e-01   9.9999987238904353e-01   9.7855819054075566e-01   9.7639589592130049e-01   9.5456106682345165e-01   9.5899276150606871e-01   9.3160293312204379e-01   9.3100130158125627e-01   9.1297833829231734e-01   9.2370115925334373e-01   9.0683726238258910e-01   8.9940463777580582e-01   8.7701591887162411e-01   8.7336516470067216e-01   8.5095619952552159e-01   8.5409112967472811e-01   8.3560850839028677e-01   8.2752220907190999e-01   8.2266538398082256e-01   8.1277276637647500e-01   8.1276931267264574e-01   8.0179040036730920e-01   8.0840547328829060e-01   7.4783430037730836e-01   7.6838421046554761e-01   7.4043780243086765e-01   7.5121896038938096e-01   7.3025735401999592e-01   7.5543109491535132e-01   7.3111193628341509e-01   7.7135997517153410e-01   7.3981291088849543e-01   7.8428324163860752e-01   7.6382707761537227e-01   8.0679206225331923e-01   7.9078001861847258e-01   8.5949252227006634e-01   8.4582802091041620e-01   8.6992309833972103e-01   8.6538594587443674e-01   8.7771505929931193e-01   8.8187096504533291e-01   8.6920472025777751e-01   8.7842310607937668e-01   8.6045105337207495e-01   9.0552596927011031e-01   8.5874448582014784e-01   6.2921784794997127e-01   6.4984353815733620e-01   5.9140977839145226e-01   7.0989899767145848e-01   6.2470597756698165e-01   7.6792023244050589e-01   6.6248947864272811e-01   8.2963452636883483e-01   7.8258256140547755e-01   9.2521873566935886e-01   9.0614239821722797e-01   9.7028998954030599e-01   9.5137036152286847e-01   9.9741634659646594e-01   9.8957068000217285e-01   9.9997660129614008e-01   9.9997327786129198e-01   9.9998567700529761e-01   9.9998370635788159e-01   9.9998941073287095e-01   9.9998772062843022e-01   9.9999376507164828e-01   9.9999041646275943e-01   9.9999640990601779e-01   9.9999428057286399e-01   9.9042204770812181e-01   9.9496426284322137e-01   9.6418892299766223e-01   9.7158342878181547e-01   9.5048329135578469e-01   9.5101495208116427e-01   9.2266296060473818e-01   9.2499893918845377e-01   8.9868473755935041e-01   8.9941714418107721e-01   8.7362164443064427e-01   8.6978807058065577e-01   8.4325497910753022e-01   7.8813557512211696e-01   7.7284558075804710e-01   7.4012964366075296e-01   7.3002448493611394e-01   6.7281963710648918e-01   6.8781426538106716e-01   6.3917234721633742e-01   6.7575575553071943e-01   6.0969195484971395e-01   6.4468090705312298e-01   5.9601983113533785e-01   6.3739653841500188e-01   5.9662353864313478e-01   6.4931570067040034e-01   6.0784296626913381e-01   6.7923273991235267e-01   6.3179312999738779e-01   7.1032484484134539e-01   6.7773690433733846e-01   7.4819627386235132e-01   7.1935311943797997e-01   7.8846482212727109e-01   7.6517299952809636e-01   8.5763834628031754e-01   8.2665555390019385e-01   8.8505553138004189e-01   8.7206377059308204e-01   8.9586155245546117e-01   9.0143494846087147e-01   9.2603954313105286e-01   9.3345877062773652e-01   9.2487965277129536e-01   9.5064402900517964e-01   8.7792632942987281e-01   9.4794139508430875e-01   8.5855423422481658e-01   4.2952330839238140e-01   4.7011622728427604e-01   2.7126663577651058e-02   5.5487693328972210e-01   4.4807162985039151e-01   6.7927335806699196e-01   5.6582151850774021e-01   9.0028716608335724e-01   8.5469887054918015e-01   9.4881907689131084e-01   9.2581430438115053e-01   9.8733464183351693e-01   9.7499081992861891e-01   9.9997929805691976e-01   9.9997157169456141e-01   9.9998461402829764e-01   9.9998297522119173e-01   9.9998719802146252e-01   9.9998606206638219e-01   9.9998811186731273e-01   9.9998658356933590e-01   9.9998883142457451e-01   9.9998612945802312e-01   9.8525847508750308e-01   9.9998634489298455e-01   9.5368080424369950e-01   9.6276538997080541e-01   9.0973652901364432e-01   8.9793132782370322e-01   8.3488381405225598e-01   8.3165143355846693e-01   7.8527471291545337e-01   7.4206215569348988e-01   7.2115068969270146e-01   6.8894125728597688e-01   6.5093222749030033e-01   6.0990862751483010e-01   5.9785755961366049e-01   5.4109800951186149e-01   5.4188113313851349e-01   4.8059921622568064e-01   5.0612598110723628e-01   4.3498746440431396e-01   4.8935531358242140e-01   4.0619516738997752e-01   4.8071090346631307e-01   4.0330779718297871e-01   5.0037469175736460e-01   4.2750520489086796e-01   5.4199832262833458e-01   4.8325354024394945e-01   5.8088449400010367e-01   5.4547962355865121e-01   6.4092643591122511e-01   6.0954021025603267e-01   6.9530727970654871e-01   6.6197290598100889e-01   7.5804909919680497e-01   7.2762006829163051e-01   8.5055378808805260e-01   8.2711745996338781e-01   8.9677908160392261e-01   8.9794919807318863e-01   9.5463564978434612e-01   9.5689804699740277e-01   9.6226384864390002e-01   8.6772932937331093e-01   9.7429208357275310e-01   8.8327133038361672e-01   9.7557621652479287e-01   8.8591570650783324e-01   9.7073305497557683e-01   8.7302095529798363e-01   8.2666686501005771e-01   5.6468998191342085e-05   7.2181712988510888e-05   6.4495586084417053e-05   6.2145035280805483e-01   1.4566636782937162e-01   7.6346926591708841e-01   4.7682415279105667e-01   8.5224517225926266e-01   6.2048314846895747e-01   9.3883314986034694e-01   7.1419413287622857e-01   9.7839049031538050e-01   7.8391863542183904e-01   9.8679768499466081e-01   8.0493749258968472e-01   9.7890018182617500e-01   7.9484565144352259e-01   9.5863885734101495e-01   7.7982043904675413e-01   9.2900583288633243e-01   7.5070109169587607e-01   8.9755388199972064e-01   7.1233643167065885e-01   7.9507571042484548e-01   6.4307090195942296e-01   7.1130360880949473e-01   5.3816614270688523e-01   5.5383233984289781e-01   4.2759870490623042e-01   4.5860867876948586e-01   2.5903711441564103e-01   3.4639093141723504e-01   1.1807360975607910e-01   7.1898153282212801e-02   2.6665128627600511e-03   2.4774536931074301e-03   3.2161593119489746e-03   3.0171543123817574e-03   2.8878904536870915e-03   3.2337517147299068e-03   3.9967353596704969e-03   3.0368834330806579e-03   3.1546911292024012e-03   3.4946165925085798e-03   3.5891203022953466e-03   2.3032514301549278e-03   3.0982063924588827e-03   3.9376287603233660e-02   1.9954252087679945e-03   1.5193704790424992e-01   3.4329106068283119e-03   2.6444361740276756e-01   8.2577211102164344e-02   3.2934310303687903e-01   1.9595044102173056e-01   3.9104286958070322e-01   2.7479852335364607e-01   4.6156507165823280e-01   3.7986034879253888e-01   5.5213015368351914e-01   4.9574799305306089e-01   5.8599643670337742e-01   5.8975481564664234e-01   6.0422590219705152e-01   6.1123348469335337e-01   6.0409135886970278e-01   6.2636238536203892e-01   6.3843843768439690e-01   5.8637909376775987e-01   6.3337126207440086e-01   5.8760591094591108e-01   6.2031116681483078e-01   5.7890339463194607e-01   2.0555375206847701e-03   1.3978696829886586e-01   2.0157084907362885e-02   2.5354009247773146e-01   1.3142345194981664e-01   4.1229189475723205e-01   3.0307577126976226e-01   5.2254357522563544e-01   4.0347111310974043e-01   5.8468809220624773e-01   5.0098324641420677e-01   5.9712868509202821e-01   5.1015073669281841e-01   5.7453461018378493e-01   4.7828960783552188e-01   5.4976422561401084e-01   4.3881230540295696e-01   5.2260555162013544e-01   3.9529800394967757e-01   4.7865131159837637e-01   3.4446366787100940e-01   3.7179320970163665e-01   2.7538155059728503e-01   2.5857133797730331e-01   1.2133747163948842e-01   1.3903476213311264e-01   5.6915176481467031e-04   1.1460974637211971e-03   1.2779314190806779e-03   2.4713890399809700e-03   3.1292712544381206e-03   2.7797092357106016e-03   2.6180846449285725e-03   2.4806649950995505e-03   3.0141028293118326e-03   3.6026543862685109e-03   3.3805429008962259e-03   3.7009572860920797e-03   3.5170176249104987e-03   3.5422096140948381e-03   3.5275464911414122e-03   3.2531471529238841e-03   3.3286880975469248e-03   2.8624577910676629e-03   3.0341132981548087e-03   2.7051821804675445e-03   2.7917598284398163e-03   3.1700360673971883e-03   3.1843120572000354e-03   2.5964428168248313e-03   2.9657821894363712e-03   4.9182206413707172e-02   2.7486769050069906e-03   1.6392693011006473e-01   2.1441443675523182e-03   2.7225286902512319e-01   8.4521268834961694e-02   3.6403656049937988e-01   1.8091800630742180e-01   3.9357894636106744e-01   2.2509355887147783e-01   4.2354641257913034e-01   3.0184711683256615e-01   4.9413428275562593e-01   3.3439662996874220e-01   5.0927564957588700e-01   3.5349455938439955e-01   5.1269909356930610e-01   4.2560195459914246e-01   5.0520820421236212e-01   4.2295108650169022e-01   4.0585399663019256e-01   3.3790190220206281e-02   4.6185061502467081e-02   4.6285683204864612e-02   6.4313252504404311e-02   6.5933655196258545e-02   1.5554254989063815e-01   1.6347236173229698e-01   1.8441852395702044e-01   1.8227108298778477e-01   1.9708287946983008e-01   2.2056054062217442e-01   1.7792057188243648e-01   2.0436180857932021e-01   1.3945133726951761e-01   1.6905719289422830e-01   1.0314456886826445e-01   1.2802311346724718e-01   5.8888989180462155e-02   8.9104749123500318e-02   9.5035657929628693e-03   2.4482298079259106e-02   1.1255238057696646e-03   1.8254138033090060e-03   1.3723844062309765e-03   1.6304008478322668e-03   2.9988761471839249e-03   2.9616312129601913e-03   3.1347996375765334e-03   2.9751218367981549e-03   3.2412319672078804e-03   3.1191553757020487e-03   3.4012165347232937e-03   3.2031007860755666e-03   3.5201594379884035e-03   3.2936874002566009e-03   3.4463252556722460e-03   3.3475944674564340e-03   3.3676739283999176e-03   3.2121200277250845e-03   3.1794960481110264e-03   3.1649448830006906e-03   2.9857649620706867e-03   2.9092934339915700e-03   2.9586216299690052e-03   2.8081221404742196e-03   2.9188692454109001e-03   2.8327744907520559e-03   2.7454767920209208e-03   2.7592971018274978e-03   2.6722202991184855e-03   2.6660112927570936e-03   2.5551025998295715e-03   2.5909620360914298e-03   4.2536907982206829e-02   3.2293743641146434e-02   8.3953765328124805e-02   8.2968835548074396e-02   1.1646372110651719e-01   1.1888493940129410e-01   1.5674126952125769e-01   1.6174745736773291e-01   1.8557185675901613e-01   2.1060122988116683e-01   2.3633730627183427e-01   2.4965373670320792e-01   2.4197045722238317e-01   2.6145972413840868e-01   2.0264380460742440e-01   2.5631357530991528e-01   1.8237183225113104e-01   2.1549212467642728e-01   1.9205158652279516e-01   6.6924850866981106e-02   1.7660017760886693e-01   1.8102074268318891e-01   2.1055369050546568e-01   2.6431095562759455e-01   2.9562901544634318e-01   3.6785526906468463e-01   2.9014630109273210e-01   4.1049631342595116e-01   2.6341237679028207e-01   3.6002663930047879e-01   1.8976787210000767e-01   2.7111463310590239e-01   1.4036975439246840e-01   1.7255664087632325e-01   9.6027651861721935e-02   1.2239497603612287e-01   2.3556034037499833e-02   6.6453276458679711e-02   4.8602609999444882e-03   1.5026238227382796e-02   3.0082417650084134e-03   3.4014868277072079e-03   2.9033217067120707e-03   2.9367866891497371e-03   2.9294093740723798e-03   2.8213990561254190e-03   2.9140499713026305e-03   2.7865311729407044e-03   2.9346199992132385e-03   2.7984945302130348e-03   2.9641226849639849e-03   2.7205198687743864e-03   2.8561765936172038e-03   2.7092358162839783e-03   2.8695563556260556e-03   2.7189297755847797e-03   2.7789676854800432e-03   2.6886553944808654e-03   2.6366936644296448e-03   2.5387609852156445e-03   2.6343495510061997e-03   2.5217431398501136e-03   2.5708452115945925e-03   2.4810109505575390e-03   2.5462379217467425e-03   2.4696011474034654e-03   2.5629560901059409e-03   2.4806538403483922e-03   1.2814785236862041e-02   6.1201972491352263e-03   7.7776982363419775e-02   7.3858488306437736e-02   1.2047957073541340e-01   1.1909293301902554e-01   1.6436564584958224e-01   1.5932933457429257e-01   2.2960929345896683e-01   2.3510218355597462e-01   2.9011710395680246e-01   3.2267360695538400e-01   3.8691177848952879e-01   4.1331031125659040e-01   3.7328063612205226e-01   4.7129960874287374e-01   3.0391377205617987e-01   3.9768099831191006e-01   2.6042491812844010e-01   3.1905867344857985e-01   2.2392526690892980e-01   2.5966732498274353e-01   2.1876520303751124e-01   3.2789251053617524e-01   4.4823316122262619e-01   4.8890593864413651e-01   5.4762625111862206e-01   5.8628243547042613e-01   5.6379987536839393e-01   6.3080781604656744e-01   4.8928046951338661e-01   6.0556644168408968e-01   3.4188402512925442e-01   4.8593420479350741e-01   2.0400178882895004e-01   3.1084645937367178e-01   1.3321459393675877e-01   1.7719842273994685e-01   6.2842445217773019e-02   1.1120752442617947e-01   1.7218448486279285e-02   2.1940042037120050e-02   4.1491836694534222e-03   1.1353983843841725e-02   2.8394048254434751e-03   2.8924070753609441e-03   2.6157908528048270e-03   2.5567753675188260e-03   2.5445422415154291e-03   2.4576802513488526e-03   2.5464527901868854e-03   2.3634223259830734e-03   2.4842954592455319e-03   2.3889447146151067e-03   2.4484487536519783e-03   2.3422772299482816e-03   2.4081156597483152e-03   2.2923330940535793e-03   2.3609344018324075e-03   2.2462897173176964e-03   2.2973486953016139e-03   2.1586832128028658e-03   2.2698490822042902e-03   2.1648903668082943e-03   2.2733066010846921e-03   2.1669210926453949e-03   2.2941759963662797e-03   2.1928453420448266e-03   3.6155827598529210e-03   2.8832738295653157e-03   6.2008987236776648e-02   4.8639471548453626e-02   1.0918144056472250e-01   1.0359926843749834e-01   1.5623070578788839e-01   1.5354777965402425e-01   2.3260434853122763e-01   2.2740903456066638e-01   3.6618498852701703e-01   3.6142025036690878e-01   5.1901667371835569e-01   6.4215298060847648e-01   6.9033393692902656e-01   7.1558231995634147e-01   6.8583303148642616e-01   7.3797616663602694e-01   5.3146649237838683e-01   7.0082171215051325e-01   3.6071022740373487e-01   4.6569075730540782e-01   3.0079588136318403e-01   3.5219440867112289e-01   2.4546118135792244e-01   2.8975017341907183e-01   2.3858863558501481e-01   6.5076158314940014e-01   7.6581991985875419e-01   8.0341475900026960e-01   8.0487295494590461e-01   8.6331039729754189e-01   7.1181189839886072e-01   8.2628874279084008e-01   5.3410128171328197e-01   6.8612733053088426e-01   3.2840304233753104e-01   4.5977497881530682e-01   1.9501622676143882e-01   2.5883047315876562e-01   1.2946198559312341e-01   1.6870466364465136e-01   2.1989364579894422e-02   8.1048267554456668e-02   1.2837671208988835e-02   1.8330443623962581e-02   3.2584263882108147e-03   5.8527044745453295e-03   2.4705572592516054e-03   2.4769796237166025e-03   2.2375342262854333e-03   2.1860617210027159e-03   2.1383150599739824e-03   2.0748141660546985e-03   2.0746269462256464e-03   1.9887983945773486e-03   2.0753486569120645e-03   1.9323558907823240e-03   1.9814763414173517e-03   1.8953420048466985e-03   1.9535129969037858e-03   1.8630998594632937e-03   1.9587523192937822e-03   1.8634270187070114e-03   1.9561118392588412e-03   1.8596279350802391e-03   1.9929834438627398e-03   1.8980516002114368e-03   2.0714200694036439e-03   1.9617475143137220e-03   2.8875420449826134e-02   8.8906388098398594e-03   8.8833998424824784e-02   8.0327279479209868e-02   1.4337093904618098e-01   1.3865387325584577e-01   2.0964991222948057e-01   1.9519536189317446e-01   3.0954989131834754e-01   2.9526952970185288e-01   5.8929973060246732e-01   5.7366390263047595e-01   8.7025792011304515e-01   8.5381013093917091e-01   9.9997198480312421e-01   9.9998037439658183e-01   9.9998855506028173e-01   9.9998632251753861e-01   7.6331929965446443e-01   9.9998419756254198