<?xml version="1.0"?>
<VTKFile type="UnstructuredGrid"  version="0.1"  >
<UnstructuredGrid>
<Piece  NumberOfPoints="169" NumberOfCells="454">
<Points>
<DataArray  type="Float64"  NumberOfComponents="3"  format="ascii">2.775652173913044 0 0  2.808695652173913 0 0  2.808695652173913 0.03333333333333333 0  2.841739130434783 0 0  2.841739130434783 0.03333333333333333 0  2.874782608695652 0 0  2.874782608695652 0.03333333333333333 0  2.907826086956522 0 0  2.907826086956522 0.03333333333333333 0  2.940869565217391 0 0  2.940869565217391 0.03333333333333333 0  2.973913043478261 0 0  2.973913043478261 0.03333333333333333 0  2.841739130434783 0.06666666666666667 0  2.874782608695652 0.06666666666666667 0  2.907826086956522 0.06666666666666667 0  2.940869565217391 0.06666666666666667 0  2.973913043478261 0.06666666666666667 0  3.006956521739131 0.06666666666666667 0  2.874782608695652 0.1 0  2.841739130434783 0.1 0  2.907826086956522 0.1 0  2.940869565217391 0.1 0  2.973913043478261 0.1 0  3.006956521739131 0.1 0  3.04 0.1 0  2.874782608695652 0.1333333333333333 0  2.841739130434783 0.1333333333333333 0  2.907826086956522 0.1333333333333333 0  2.940869565217391 0.1333333333333333 0  2.973913043478261 0.1333333333333333 0  3.006956521739131 0.1333333333333333 0  3.04 0.1333333333333333 0  3.073043478260869 0.1333333333333333 0  2.874782608695652 0.1666666666666667 0  2.841739130434783 0.1666666666666667 0  2.907826086956522 0.1666666666666667 0  2.940869565217391 0.1666666666666667 0  2.973913043478261 0.1666666666666667 0  3.006956521739131 0.1666666666666667 0  3.04 0.1666666666666667 0  3.073043478260869 0.1666666666666667 0  3.106086956521739 0.1666666666666667 0  2.874782608695652 0.2 0  2.841739130434783 0.2 0  2.907826086956522 0.2 0  2.940869565217391 0.2 0  2.973913043478261 0.2 0  3.006956521739131 0.2 0  3.04 0.2 0  3.073043478260869 0.2 0  3.106086956521739 0.2 0  3.139130434782609 0.2 0  2.874782608695652 0.2333333333333333 0  2.907826086956522 0.2333333333333333 0  2.940869565217391 0.2333333333333333 0  2.973913043478261 0.2333333333333333 0  3.006956521739131 0.2333333333333333 0  3.04 0.2333333333333333 0  3.073043478260869 0.2333333333333333 0  3.106086956521739 0.2333333333333333 0  3.139130434782609 0.2333333333333333 0  3.172173913043478 0.2333333333333333 0  2.907826086956522 0.2666666666666667 0  2.874782608695652 0.2666666666666667 0  2.940869565217391 0.2666666666666667 0  2.973913043478261 0.2666666666666667 0  3.006956521739131 0.2666666666666667 0  3.04 0.2666666666666667 0  3.073043478260869 0.2666666666666667 0  3.106086956521739 0.2666666666666667 0  3.139130434782609 0.2666666666666667 0  3.172173913043478 0.2666666666666667 0  3.205217391304347 0.2666666666666667 0  2.907826086956522 0.3 0  2.874782608695652 0.3 0  2.940869565217391 0.3 0  2.973913043478261 0.3 0  3.006956521739131 0.3 0  3.04 0.3 0  3.073043478260869 0.3 0  3.106086956521739 0.3 0  3.139130434782609 0.3 0  3.172173913043478 0.3 0  3.205217391304347 0.3 0  3.238260869565217 0.3 0  2.907826086956522 0.3333333333333333 0  2.874782608695652 0.3333333333333333 0  2.940869565217391 0.3333333333333333 0  2.973913043478261 0.3333333333333333 0  3.006956521739131 0.3333333333333333 0  3.04 0.3333333333333333 0  3.073043478260869 0.3333333333333333 0  3.106086956521739 0.3333333333333333 0  3.139130434782609 0.3333333333333333 0  3.172173913043478 0.3333333333333333 0  3.205217391304347 0.3333333333333333 0  3.238260869565217 0.3333333333333333 0  3.271304347826087 0.3333333333333333 0  2.907826086956522 0.3666666666666666 0  2.874782608695652 0.3666666666666666 0  2.940869565217391 0.3666666666666666 0  2.973913043478261 0.3666666666666666 0  3.006956521739131 0.3666666666666666 0  3.04 0.3666666666666666 0  3.073043478260869 0.3666666666666666 0  3.106086956521739 0.3666666666666666 0  3.139130434782609 0.3666666666666666 0  3.172173913043478 0.3666666666666666 0  3.205217391304347 0.3666666666666666 0  3.238260869565217 0.3666666666666666 0  3.271304347826087 0.3666666666666666 0  2.907826086956522 0.4 0  2.874782608695652 0.4 0  2.940869565217391 0.4 0  2.973913043478261 0.4 0  3.006956521739131 0.4 0  3.04 0.4 0  3.073043478260869 0.4 0  3.106086956521739 0.4 0  3.139130434782609 0.4 0  3.172173913043478 0.4 0  3.205217391304347 0.4 0  3.238260869565217 0.4 0  3.271304347826087 0.4 0  3.304347826086957 0.4 0  2.907826086956522 0.4333333333333333 0  2.874782608695652 0.4333333333333333 0  2.940869565217391 0.4333333333333333 0  2.973913043478261 0.4333333333333333 0  3.006956521739131 0.4333333333333333 0  3.04 0.4333333333333333 0  3.073043478260869 0.4333333333333333 0  3.106086956521739 0.4333333333333333 0  3.139130434782609 0.4333333333333333 0  3.172173913043478 0.4333333333333333 0  3.205217391304347 0.4333333333333333 0  3.238260869565217 0.4333333333333333 0  3.271304347826087 0.4333333333333333 0  3.304347826086957 0.4333333333333333 0  2.907826086956522 0.4666666666666667 0  2.874782608695652 0.4666666666666667 0  2.940869565217391 0.4666666666666667 0  2.973913043478261 0.4666666666666667 0  3.006956521739131 0.4666666666666667 0  3.04 0.4666666666666667 0  3.073043478260869 0.4666666666666667 0  3.106086956521739 0.4666666666666667 0  3.139130434782609 0.4666666666666667 0  3.172173913043478 0.4666666666666667 0  3.205217391304347 0.4666666666666667 0  3.238260869565217 0.4666666666666667 0  3.271304347826087 0.4666666666666667 0  3.304347826086957 0.4666666666666667 0  2.907826086956522 0.5 0  2.874782608695652 0.5 0  2.940869565217391 0.5 0  2.973913043478261 0.5 0  3.006956521739131 0.5 0  3.04 0.5 0  3.073043478260869 0.5 0  3.106086956521739 0.5 0  3.139130434782609 0.5 0  3.172173913043478 0.5 0  3.205217391304347 0.5 0  3.238260869565217 0.5 0  3.271304347826087 0.5 0  3.304347826086957 0.5 0  3.337391304347826 0.5 0  </DataArray>
</Points>
<Cells>
<DataArray  type="UInt32"  Name="connectivity"  format="ascii">0 1  0 2  1 2  1 3  1 4  2 4  2 13  3 4  3 5  3 6  4 6  4 13  4 14  5 6  5 7  5 8  6 8  6 14  6 15  7 8  7 9  7 10  8 10  8 15  8 16  9 10  9 11  9 12  10 12  10 16  10 17  11 12  12 17  12 18  13 14  13 19  13 20  14 15  14 19  14 21  15 16  15 21  15 22  16 17  16 22  16 23  17 18  17 23  17 24  18 24  18 25  20 19  19 21  19 26  19 28  20 26  20 27  21 22  21 28  21 29  22 23  22 29  22 30  23 24  23 30  23 31  24 25  24 31  24 32  25 32  25 33  27 26  26 28  26 34  26 36  27 34  27 35  28 29  28 36  28 37  29 30  29 37  29 38  30 31  30 38  30 39  31 32  31 39  31 40  32 33  32 40  32 41  33 41  33 42  35 34  34 36  34 43  34 45  35 43  35 44  36 37  36 45  36 46  37 38  37 46  37 47  38 39  38 47  38 48  39 40  39 48  39 49  40 41  40 49  40 50  41 42  41 50  41 51  42 51  42 52  44 43  43 45  43 53  43 54  44 53  45 46  45 54  45 55  46 47  46 55  46 56  47 48  47 56  47 57  48 49  48 57  48 58  49 50  49 58  49 59  50 51  50 59  50 60  51 52  51 60  51 61  52 61  52 62  53 54  53 63  53 64  54 55  54 63  54 65  55 56  55 65  55 66  56 57  56 66  56 67  57 58  57 67  57 68  58 59  58 68  58 69  59 60  59 69  59 70  60 61  60 70  60 71  61 62  61 71  61 72  62 72  62 73  64 63  63 65  63 74  63 76  64 74  64 75  65 66  65 76  65 77  66 67  66 77  66 78  67 68  67 78  67 79  68 69  68 79  68 80  69 70  69 80  69 81  70 71  70 81  70 82  71 72  71 82  71 83  72 73  72 83  72 84  73 84  73 85  75 74  74 76  74 86  74 88  75 86  75 87  76 77  76 88  76 89  77 78  77 89  77 90  78 79  78 90  78 91  79 80  79 91  79 92  80 81  80 92  80 93  81 82  81 93  81 94  82 83  82 94  82 95  83 84  83 95  83 96  84 85  84 96  84 97  85 97  85 98  87 86  86 88  86 99  86 101  87 99  87 100  88 89  88 101  88 102  89 90  89 102  89 103  90 91  90 103  90 104  91 92  91 104  91 105  92 93  92 105  92 106  93 94  93 106  93 107  94 95  94 107  94 108  95 96  95 108  95 109  96 97  96 109  96 110  97 98  97 110  97 111  98 111  100 99  99 101  99 112  99 114  100 112  100 113  101 102  101 114  101 115  102 103  102 115  102 116  103 104  103 116  103 117  104 105  104 117  104 118  105 106  105 118  105 119  106 107  106 119  106 120  107 108  107 120  107 121  108 109  108 121  108 122  109 110  109 122  109 123  110 111  110 123  110 124  111 124  111 125  113 112  112 114  112 126  112 128  113 126  113 127  114 115  114 128  114 129  115 116  115 129  115 130  116 117  116 130  116 131  117 118  117 131  117 132  118 119  118 132  118 133  119 120  119 133  119 134  120 121  120 134  120 135  121 122  121 135  121 136  122 123  122 136  122 137  123 124  123 137  123 138  124 125  124 138  124 139  125 139  127 126  126 128  126 140  126 142  127 140  127 141  128 129  128 142  128 143  129 130  129 143  129 144  130 131  130 144  130 145  131 132  131 145  131 146  132 133  132 146  132 147  133 134  133 147  133 148  134 135  134 148  134 149  135 136  135 149  135 150  136 137  136 150  136 151  137 138  137 151  137 152  138 139  138 152  138 153  139 153  141 140  140 142  140 154  140 156  141 154  141 155  142 143  142 156  142 157  143 144  143 157  143 158  144 145  144 158  144 159  145 146  145 159  145 160  146 147  146 160  146 161  147 148  147 161  147 162  148 149  148 162  148 163  149 150  149 163  149 164  150 151  150 164  150 165  151 152  151 165  151 166  152 153  152 166  152 167  153 167  153 168  155 154  154 156  156 157  157 158  158 159  159 160  160 161  161 162  162 163  163 164  164 165  165 166  166 167  167 168  </DataArray>
<DataArray  type="UInt32"  Name="offsets"  format="ascii">2 4 6 8 10 12 14 16 18 20 22 24 26 28 30 32 34 36 38 40 42 44 46 48 50 52 54 56 58 60 62 64 66 68 70 72 74 76 78 80 82 84 86 88 90 92 94 96 98 100 102 104 106 108 110 112 114 116 118 120 122 124 126 128 130 132 134 136 138 140 142 144 146 148 150 152 154 156 158 160 162 164 166 168 170 172 174 176 178 180 182 184 186 188 190 192 194 196 198 200 202 204 206 208 210 212 214 216 218 220 222 224 226 228 230 232 234 236 238 240 242 244 246 248 250 252 254 256 258 260 262 264 266 268 270 272 274 276 278 280 282 284 286 288 290 292 294 296 298 300 302 304 306 308 310 312 314 316 318 320 322 324 326 328 330 332 334 336 338 340 342 344 346 348 350 352 354 356 358 360 362 364 366 368 370 372 374 376 378 380 382 384 386 388 390 392 394 396 398 400 402 404 406 408 410 412 414 416 418 420 422 424 426 428 430 432 434 436 438 440 442 444 446 448 450 452 454 456 458 460 462 464 466 468 470 472 474 476 478 480 482 484 486 488 490 492 494 496 498 500 502 504 506 508 510 512 514 516 518 520 522 524 526 528 530 532 534 536 538 540 542 544 546 548 550 552 554 556 558 560 562 564 566 568 570 572 574 576 578 580 582 584 586 588 590 592 594 596 598 600 602 604 606 608 610 612 614 616 618 620 622 624 626 628 630 632 634 636 638 640 642 644 646 648 650 652 654 656 658 660 662 664 666 668 670 672 674 676 678 680 682 684 686 688 690 692 694 696 698 700 702 704 706 708 710 712 714 716 718 720 722 724 726 728 730 732 734 736 738 740 742 744 746 748 750 752 754 756 758 760 762 764 766 768 770 772 774 776 778 780 782 784 786 788 790 792 794 796 798 800 802 804 806 808 810 812 814 816 818 820 822 824 826 828 830 832 834 836 838 840 842 844 846 848 850 852 854 856 858 860 862 864 866 868 870 872 874 876 878 880 882 884 886 888 890 892 894 896 898 900 902 904 906 908 </DataArray>
<DataArray  type="UInt8"  Name="types"  format="ascii">3 3 3 3 3 3 3 3 3 3 3 3 3 3 3 3 3 3 3 3 3 3 3 3 3 3 3 3 3 3 3 3 3 3 3 3 3 3 3 3 3 3 3 3 3 3 3 3 3 3 3 3 3 3 3 3 3 3 3 3 3 3 3 3 3 3 3 3 3 3 3 3 3 3 3 3 3 3 3 3 3 3 3 3 3 3 3 3 3 3 3 3 3 3 3 3 3 3 3 3 3 3 3 3 3 3 3 3 3 3 3 3 3 3 3 3 3 3 3 3 3 3 3 3 3 3 3 3 3 3 3 3 3 3 3 3 3 3 3 3 3 3 3 3 3 3 3 3 3 3 3 3 3 3 3 3 3 3 3 3 3 3 3 3 3 3 3 3 3 3 3 3 3 3 3 3 3 3 3 3 3 3 3 3 3 3 3 3 3 3 3 3 3 3 3 3 3 3 3 3 3 3 3 3 3 3 3 3 3 3 3 3 3 3 3 3 3 3 3 3 3 3 3 3 3 3 3 3 3 3 3 3 3 3 3 3 3 3 3 3 3 3 3 3 3 3 3 3 3 3 3 3 3 3 3 3 3 3 3 3 3 3 3 3 3 3 3 3 3 3 3 3 3 3 3 3 3 3 3 3 3 3 3 3 3 3 3 3 3 3 3 3 3 3 3 3 3 3 3 3 3 3 3 3 3 3 3 3 3 3 3 3 3 3 3 3 3 3 3 3 3 3 3 3 3 3 3 3 3 3 3 3 3 3 3 3 3 3 3 3 3 3 3 3 3 3 3 3 3 3 3 3 3 3 3 3 3 3 3 3 3 3 3 3 3 3 3 3 3 3 3 3 3 3 3 3 3 3 3 3 3 3 3 3 3 3 3 3 3 3 3 3 3 3 3 3 3 3 3 3 3 3 3 3 3 3 3 3 3 3 3 3 3 3 3 3 3 3 3 3 3 3 3 3 3 3 3 3 3 3 3 3 3 3 3 3 3 3 3 3 3 3 3 3 3 3 3 3 3 3 3 3 3 3 </DataArray>
</Cells>
<CellData  Scalars="f">
<DataArray  type="Float64"  Name="f"  format="ascii">0 0 0 0 0 0 0 0 0 0 0 0 0 0 0 0 0 0 0 0 0 0 0 0 0 0 0 0 0 0 0 0 0 0 0 0 0 0 0 0 0 0 0 0 0 0 0 0 0 0 0 0 0 0 0 0 0 0 0 0 0 0 0 0 0 0 0 0 0 0 0 0 0 0 0 0 0 0 0 0 0 0 0 0 0 0 0 0 0 0 0 0 0 0 0 0 0 0 0 0 0 0 0 0 0 0 0 0 0 0 0 0 0 0 0 0 0 0 0 0 0 0 0 0 0 0 0 0 0 0 0 0 0 0 0 0 0 0 0 0 0 0 0 0 0 0 0 0 0 0 0 0 0 0 0 0 0 0 0 0 0 0 0 0 0 0 0 0 0 0 0 0 0 0 0 0 0 0 0 0 0 0 0 0 0 0 0 0 0 0 0 0 0 0 0 0 0 0 0 0 0 0 0 0 0 0 0 0 0 0 0 0 0 0 0 0 0 0 0 0 0 0 0 0 0 0 0 0 0 0 0 0 0 0 0 0 0 0 0 0 0 0 0 0 0 0 0 0 0 0 0 0 0 0 0 0 0 0 0 0 0 0 0 0 0 0 0 0 0 0 0 0 0 0 0 0 0 0 0 0 0 0 0 0 0 0 0 0 0 0 0 0 0 0 0 0 0 0 0 0 0 0 0 0 0 0 0 0 0 0 0 0 0 0 0 0 0 0 0 0 0 0 0 0 0 0 0 0 0 0 0 0 0 0 0 0 0 0 0 0 0 0 0 0 0 0 0 0 0 0 0 0 0 0 0 0 0 0 0 0 0 0 0 0 0 0 0 0 0 0 0 0 0 0 0 0 0 0 0 0 0 0 0 0 0 0 0 0 0 0 0 0 0 0 0 0 0 0 0 0 0 0 0 0 0 0 0 0 0 0 0 0 0 0 0 0 0 0 0 0 0 0 0 0 0 0 0 0 0 0 0 0 0 0 0 0 0 0 0 0 0 0 0 0 0 0 0 0 0 0 0 0 0 0 </DataArray>
</CellData>
</Piece>
</UnstructuredGrid>
</VTKFile>