<?xml version="1.0"?>
<VTKFile type="UnstructuredGrid"  version="0.1"  >
<UnstructuredGrid>
<Piece  NumberOfPoints="169" NumberOfCells="286">
<Points>
<DataArray  type="Float64"  NumberOfComponents="3"  format="ascii">0 0 0  0.03304347826086956 0 0  0.03304347826086956 0.03333333333333333 0  0 0.03333333333333333 0  0.06608695652173913 0 0  0.06608695652173913 0.03333333333333333 0  0.09913043478260869 0 0  0.09913043478260869 0.03333333333333333 0  0.1321739130434783 0 0  0.1321739130434783 0.03333333333333333 0  0.1652173913043478 0 0  0.1652173913043478 0.03333333333333333 0  0.1982608695652174 0 0  0.1982608695652174 0.03333333333333333 0  0.2313043478260869 0 0  0.2313043478260869 0.03333333333333333 0  0.2643478260869565 0 0  0.2643478260869565 0.03333333333333333 0  0.2973913043478261 0 0  0.2973913043478261 0.03333333333333333 0  0.3304347826086956 0 0  0.3304347826086956 0.03333333333333333 0  0.3634782608695652 0 0  0.3634782608695652 0.03333333333333333 0  0.3965217391304348 0 0  0.3965217391304348 0.03333333333333333 0  0.4295652173913043 0 0  0.4295652173913043 0.03333333333333333 0  0.4626086956521739 0.03333333333333333 0  0.03304347826086956 0.06666666666666667 0  0 0.06666666666666667 0  0.06608695652173913 0.06666666666666667 0  0.09913043478260869 0.06666666666666667 0  0.1321739130434783 0.06666666666666667 0  0.1652173913043478 0.06666666666666667 0  0.1982608695652174 0.06666666666666667 0  0.2313043478260869 0.06666666666666667 0  0.2643478260869565 0.06666666666666667 0  0.2973913043478261 0.06666666666666667 0  0.3304347826086956 0.06666666666666667 0  0.3634782608695652 0.06666666666666667 0  0.3965217391304348 0.06666666666666667 0  0.4295652173913043 0.06666666666666667 0  0.4626086956521739 0.06666666666666667 0  0.4956521739130435 0.06666666666666667 0  0.03304347826086956 0.1 0  0 0.1 0  0.06608695652173913 0.1 0  0.09913043478260869 0.1 0  0.1321739130434783 0.1 0  0.1652173913043478 0.1 0  0.1982608695652174 0.1 0  0.2313043478260869 0.1 0  0.2643478260869565 0.1 0  0.2973913043478261 0.1 0  0.3304347826086956 0.1 0  0.3634782608695652 0.1 0  0.3965217391304348 0.1 0  0.4295652173913043 0.1 0  0.4626086956521739 0.1 0  0.4956521739130435 0.1 0  0.528695652173913 0.1 0  0.03304347826086956 0.1333333333333333 0  0 0.1333333333333333 0  0.06608695652173913 0.1333333333333333 0  0.09913043478260869 0.1333333333333333 0  0.1321739130434783 0.1333333333333333 0  0.1652173913043478 0.1333333333333333 0  0.1982608695652174 0.1333333333333333 0  0.2313043478260869 0.1333333333333333 0  0.2643478260869565 0.1333333333333333 0  0.2973913043478261 0.1333333333333333 0  0.3304347826086956 0.1333333333333333 0  0.3634782608695652 0.1333333333333333 0  0.3965217391304348 0.1333333333333333 0  0.4295652173913043 0.1333333333333333 0  0.4626086956521739 0.1333333333333333 0  0.4956521739130435 0.1333333333333333 0  0.528695652173913 0.1333333333333333 0  0.5617391304347825 0.1333333333333333 0  0.03304347826086956 0.1666666666666667 0  0 0.1666666666666667 0  0.06608695652173913 0.1666666666666667 0  0.09913043478260869 0.1666666666666667 0  0.1321739130434783 0.1666666666666667 0  0.1652173913043478 0.1666666666666667 0  0.1982608695652174 0.1666666666666667 0  0.2313043478260869 0.1666666666666667 0  0.2643478260869565 0.1666666666666667 0  0.2973913043478261 0.1666666666666667 0  0.3304347826086956 0.1666666666666667 0  0.3634782608695652 0.1666666666666667 0  0.3965217391304348 0.1666666666666667 0  0.4295652173913043 0.1666666666666667 0  0.4626086956521739 0.1666666666666667 0  0.4956521739130435 0.1666666666666667 0  0.528695652173913 0.1666666666666667 0  0.5617391304347825 0.1666666666666667 0  0.5947826086956521 0.1666666666666667 0  0.03304347826086956 0.2 0  0 0.2 0  0.06608695652173913 0.2 0  0.09913043478260869 0.2 0  0.1321739130434783 0.2 0  0.1652173913043478 0.2 0  0.1982608695652174 0.2 0  0.2313043478260869 0.2 0  0.2643478260869565 0.2 0  0.2973913043478261 0.2 0  0.3304347826086956 0.2 0  0.3634782608695652 0.2 0  0.3965217391304348 0.2 0  0.4295652173913043 0.2 0  0.4626086956521739 0.2 0  0.4956521739130435 0.2 0  0.528695652173913 0.2 0  0.5617391304347825 0.2 0  0.5947826086956521 0.2 0  0.03304347826086956 0.2333333333333333 0  0 0.2333333333333333 0  0.06608695652173913 0.2333333333333333 0  0.09913043478260869 0.2333333333333333 0  0.1321739130434783 0.2333333333333333 0  0.1652173913043478 0.2333333333333333 0  0.1982608695652174 0.2333333333333333 0  0.2313043478260869 0.2333333333333333 0  0.2643478260869565 0.2333333333333333 0  0.2973913043478261 0.2333333333333333 0  0.3304347826086956 0.2333333333333333 0  0.3634782608695652 0.2333333333333333 0  0.3965217391304348 0.2333333333333333 0  0.4295652173913043 0.2333333333333333 0  0.4626086956521739 0.2333333333333333 0  0.4956521739130435 0.2333333333333333 0  0.528695652173913 0.2333333333333333 0  0.5617391304347825 0.2333333333333333 0  0.5947826086956521 0.2333333333333333 0  0.03304347826086956 0.2666666666666667 0  0 0.2666666666666667 0  0.06608695652173913 0.2666666666666667 0  0.09913043478260869 0.2666666666666667 0  0.1321739130434783 0.2666666666666667 0  0.1652173913043478 0.2666666666666667 0  0.1982608695652174 0.2666666666666667 0  0.2313043478260869 0.2666666666666667 0  0.2643478260869565 0.2666666666666667 0  0.2973913043478261 0.2666666666666667 0  0.3304347826086956 0.2666666666666667 0  0.3634782608695652 0.2666666666666667 0  0.3965217391304348 0.2666666666666667 0  0.4295652173913043 0.2666666666666667 0  0.4626086956521739 0.2666666666666667 0  0.4956521739130435 0.2666666666666667 0  0.528695652173913 0.2666666666666667 0  0.5617391304347825 0.2666666666666667 0  0.5947826086956521 0.2666666666666667 0  0.6278260869565218 0.2666666666666667 0  0.2973913043478261 0.3 0  0.3304347826086956 0.3 0  0.3634782608695652 0.3 0  0.3965217391304348 0.3 0  0.4295652173913043 0.3 0  0.4626086956521739 0.3 0  0.4956521739130435 0.3 0  0.528695652173913 0.3 0  0.5617391304347825 0.3 0  0.5947826086956521 0.3 0  0.6278260869565218 0.3 0  0.6608695652173913 0.3 0  </DataArray>
</Points>
<Cells>
<DataArray  type="UInt32"  Name="connectivity"  format="ascii">0 1 2  0 3 2  1 4 5  1 2 5  4 6 7  4 5 7  6 8 9  6 7 9  8 10 11  8 9 11  10 12 13  10 11 13  12 14 15  12 13 15  14 16 17  14 15 17  16 18 19  16 17 19  18 20 21  18 19 21  20 22 23  20 21 23  22 24 25  22 23 25  24 26 27  24 25 27  26 27 28  3 2 29  3 30 29  2 5 31  2 29 31  5 7 32  5 31 32  7 9 33  7 32 33  9 11 34  9 33 34  11 13 35  11 34 35  13 15 36  13 35 36  15 17 37  15 36 37  17 19 38  17 37 38  19 21 39  19 38 39  21 23 40  21 39 40  23 25 41  23 40 41  25 27 42  25 41 42  27 28 43  27 42 43  28 43 44  30 29 45  30 46 45  29 31 47  29 45 47  31 32 48  31 47 48  32 33 49  32 48 49  33 34 50  33 49 50  34 35 51  34 50 51  35 36 52  35 51 52  36 37 53  36 52 53  37 38 54  37 53 54  38 39 55  38 54 55  39 40 56  39 55 56  40 41 57  40 56 57  41 42 58  41 57 58  42 43 59  42 58 59  43 44 60  43 59 60  44 60 61  46 45 62  46 63 62  45 47 64  45 62 64  47 48 65  47 64 65  48 49 66  48 65 66  49 50 67  49 66 67  50 51 68  50 67 68  51 52 69  51 68 69  52 53 70  52 69 70  53 54 71  53 70 71  54 55 72  54 71 72  55 56 73  55 72 73  56 57 74  56 73 74  57 58 75  57 74 75  58 59 76  58 75 76  59 60 77  59 76 77  60 61 78  60 77 78  61 78 79  63 62 80  63 81 80  62 64 82  62 80 82  64 65 83  64 82 83  65 66 84  65 83 84  66 67 85  66 84 85  67 68 86  67 85 86  68 69 87  68 86 87  69 70 88  69 87 88  70 71 89  70 88 89  71 72 90  71 89 90  72 73 91  72 90 91  73 74 92  73 91 92  74 75 93  74 92 93  75 76 94  75 93 94  76 77 95  76 94 95  77 78 96  77 95 96  78 79 97  78 96 97  79 97 98  81 80 99  81 100 99  80 82 101  80 99 101  82 83 102  82 101 102  83 84 103  83 102 103  84 85 104  84 103 104  85 86 105  85 104 105  86 87 106  86 105 106  87 88 107  87 106 107  88 89 108  88 107 108  89 90 109  89 108 109  90 91 110  90 109 110  91 92 111  91 110 111  92 93 112  92 111 112  93 94 113  93 112 113  94 95 114  94 113 114  95 96 115  95 114 115  96 97 116  96 115 116  97 98 117  97 116 117  100 99 118  100 119 118  99 101 120  99 118 120  101 102 121  101 120 121  102 103 122  102 121 122  103 104 123  103 122 123  104 105 124  104 123 124  105 106 125  105 124 125  106 107 126  106 125 126  107 108 127  107 126 127  108 109 128  108 127 128  109 110 129  109 128 129  110 111 130  110 129 130  111 112 131  111 130 131  112 113 132  112 131 132  113 114 133  113 132 133  114 115 134  114 133 134  115 116 135  115 134 135  116 117 136  116 135 136  119 118 137  119 138 137  118 120 139  118 137 139  120 121 140  120 139 140  121 122 141  121 140 141  122 123 142  122 141 142  123 124 143  123 142 143  124 125 144  124 143 144  125 126 145  125 144 145  126 127 146  126 145 146  127 128 147  127 146 147  128 129 148  128 147 148  129 130 149  129 148 149  130 131 150  130 149 150  131 132 151  131 150 151  132 133 152  132 151 152  133 134 153  133 152 153  134 135 154  134 153 154  135 136 155  135 154 155  136 155 156  145 146 157  146 147 158  146 157 158  147 148 159  147 158 159  148 149 160  148 159 160  149 150 161  149 160 161  150 151 162  150 161 162  151 152 163  151 162 163  152 153 164  152 163 164  153 154 165  153 164 165  154 155 166  154 165 166  155 156 167  155 166 167  156 167 168  </DataArray>
<DataArray  type="UInt32"  Name="offsets"  format="ascii">3 6 9 12 15 18 21 24 27 30 33 36 39 42 45 48 51 54 57 60 63 66 69 72 75 78 81 84 87 90 93 96 99 102 105 108 111 114 117 120 123 126 129 132 135 138 141 144 147 150 153 156 159 162 165 168 171 174 177 180 183 186 189 192 195 198 201 204 207 210 213 216 219 222 225 228 231 234 237 240 243 246 249 252 255 258 261 264 267 270 273 276 279 282 285 288 291 294 297 300 303 306 309 312 315 318 321 324 327 330 333 336 339 342 345 348 351 354 357 360 363 366 369 372 375 378 381 384 387 390 393 396 399 402 405 408 411 414 417 420 423 426 429 432 435 438 441 444 447 450 453 456 459 462 465 468 471 474 477 480 483 486 489 492 495 498 501 504 507 510 513 516 519 522 525 528 531 534 537 540 543 546 549 552 555 558 561 564 567 570 573 576 579 582 585 588 591 594 597 600 603 606 609 612 615 618 621 624 627 630 633 636 639 642 645 648 651 654 657 660 663 666 669 672 675 678 681 684 687 690 693 696 699 702 705 708 711 714 717 720 723 726 729 732 735 738 741 744 747 750 753 756 759 762 765 768 771 774 777 780 783 786 789 792 795 798 801 804 807 810 813 816 819 822 825 828 831 834 837 840 843 846 849 852 855 858 </DataArray>
<DataArray  type="UInt8"  Name="types"  format="ascii">5 5 5 5 5 5 5 5 5 5 5 5 5 5 5 5 5 5 5 5 5 5 5 5 5 5 5 5 5 5 5 5 5 5 5 5 5 5 5 5 5 5 5 5 5 5 5 5 5 5 5 5 5 5 5 5 5 5 5 5 5 5 5 5 5 5 5 5 5 5 5 5 5 5 5 5 5 5 5 5 5 5 5 5 5 5 5 5 5 5 5 5 5 5 5 5 5 5 5 5 5 5 5 5 5 5 5 5 5 5 5 5 5 5 5 5 5 5 5 5 5 5 5 5 5 5 5 5 5 5 5 5 5 5 5 5 5 5 5 5 5 5 5 5 5 5 5 5 5 5 5 5 5 5 5 5 5 5 5 5 5 5 5 5 5 5 5 5 5 5 5 5 5 5 5 5 5 5 5 5 5 5 5 5 5 5 5 5 5 5 5 5 5 5 5 5 5 5 5 5 5 5 5 5 5 5 5 5 5 5 5 5 5 5 5 5 5 5 5 5 5 5 5 5 5 5 5 5 5 5 5 5 5 5 5 5 5 5 5 5 5 5 5 5 5 5 5 5 5 5 5 5 5 5 5 5 5 5 5 5 5 5 5 5 5 5 5 5 5 5 5 5 5 5 5 5 5 5 5 5 5 5 5 5 5 5 </DataArray>
</Cells>
<PointData  Vectors="Displacement"> 
<DataArray  type="Float64"  Name="Displacement"  NumberOfComponents="3" format="ascii">0.0000000000000000e+00 0.0000000000000000e+00 0.0000000000000000e+00  9.4856417205511703e-06 5.4335707463789239e-06 0.0000000000000000e+00  1.6876496330751999e-06 3.9116956194974426e-06 0.0000000000000000e+00  0.0000000000000000e+00 0.0000000000000000e+00 0.0000000000000000e+00  1.8737940514337374e-05 1.6376307925943963e-05 0.0000000000000000e+00  3.3790499580691453e-06 1.4746988525338226e-05 0.0000000000000000e+00  2.8471111406154578e-05 3.5472253513445122e-05 0.0000000000000000e+00  4.4051742470415038e-06 3.3321017480458163e-05 0.0000000000000000e+00  3.7748254608849959e-05 6.5073684785290340e-05 0.0000000000000000e+00  5.3235904220454013e-06 6.3118500388625786e-05 0.0000000000000000e+00  4.6070634086179130e-05 1.0250396153233665e-04 0.0000000000000000e+00  6.7630436587525482e-06 1.0061363841613257e-04 0.0000000000000000e+00  5.3382490724803252e-05 1.4596172052807899e-04 0.0000000000000000e+00  8.8892675725854610e-06 1.4411496319652507e-04 0.0000000000000000e+00  5.9681045745790531e-05 1.9374103440419698e-04 0.0000000000000000e+00  1.1743523504388528e-05 1.9190782435259772e-04 0.0000000000000000e+00  6.4900318231490115e-05 2.4414516896372043e-04 0.0000000000000000e+00  1.5378776282208193e-05 2.4236631444398430e-04 0.0000000000000000e+00  6.8995120027303715e-05 2.9512010124416584e-04 0.0000000000000000e+00  1.9864906417180745e-05 2.9343637961597743e-04 0.0000000000000000e+00  7.2027933941368395e-05 3.4457663951384761e-04 0.0000000000000000e+00  2.5152114162466870e-05 3.4297978578449664e-04 0.0000000000000000e+00  7.4091671004919250e-05 3.9083761725761216e-04 0.0000000000000000e+00  3.1071456498219035e-05 3.8930979557308913e-04 0.0000000000000000e+00  7.4929928355780095e-05 4.3208112505712206e-04 0.0000000000000000e+00  3.7574392272063427e-05 4.3129786139759011e-04 0.0000000000000000e+00  7.4926815715415618e-05 4.6637868733877128e-04 0.0000000000000000e+00  4.3021821988876210e-05 4.6612634778016488e-04 0.0000000000000000e+00  4.6368422307651868e-05 4.9536601667423742e-04 0.0000000000000000e+00  -3.8191119857676848e-06 4.1833701490020834e-06 0.0000000000000000e+00  0.0000000000000000e+00 0.0000000000000000e+00 0.0000000000000000e+00  -6.7137930139996784e-06 1.4240775391052272e-05 0.0000000000000000e+00  -1.1382233084071990e-05 3.2417899878032223e-05 0.0000000000000000e+00  -2.3702564771983728e-05 6.2869101303918688e-05 0.0000000000000000e+00  -3.0666274001312898e-05 1.0023597336530111e-04 0.0000000000000000e+00  -3.4523212089924881e-05 1.4344071193678987e-04 0.0000000000000000e+00  -3.5916750395405162e-05 1.9079211932997235e-04 0.0000000000000000e+00  -3.5521957893248473e-05 2.4115609000767185e-04 0.0000000000000000e+00  -3.1652746621211878e-05 2.9194287351064978e-04 0.0000000000000000e+00  -2.3387325892580996e-05 3.4111463603199834e-04 0.0000000000000000e+00  -1.2931342511639900e-05 3.8711130838564128e-04 0.0000000000000000e+00  -2.1535585222666211e-06 4.2869887755619929e-04 0.0000000000000000e+00  1.4481722751245568e-05 4.6448370386399846e-04 0.0000000000000000e+00  2.1774468662203709e-05 4.9546800926916540e-04 0.0000000000000000e+00  2.3492546475439365e-05 5.2106728629474209e-04 0.0000000000000000e+00  -3.6582339776813998e-06 8.4677938026469975e-06 0.0000000000000000e+00  0.0000000000000000e+00 0.0000000000000000e+00 0.0000000000000000e+00  -9.1678657181817854e-06 2.1132811577831598e-05 0.0000000000000000e+00  -1.6104040830816227e-05 4.1047590767113643e-05 0.0000000000000000e+00  -2.4019521323561483e-05 7.0123987134048133e-05 0.0000000000000000e+00  -3.0659838213802871e-05 1.0385707519916369e-04 0.0000000000000000e+00  -3.5077959904448052e-05 1.4289702149246857e-04 0.0000000000000000e+00  -3.7136563554298440e-05 1.8591747377808850e-04 0.0000000000000000e+00  -3.6780183756860629e-05 2.3158650450900170e-04 0.0000000000000000e+00  -3.3785481299858186e-05 2.7776115080656121e-04 0.0000000000000000e+00  -2.8273960918490732e-05 3.2302267264031444e-04 0.0000000000000000e+00  -2.0976651593957891e-05 3.6666731608840051e-04 0.0000000000000000e+00  -1.2957824608987113e-05 4.0803280390610381e-04 0.0000000000000000e+00  -5.3443972071127652e-06 4.4748333826596188e-04 0.0000000000000000e+00  5.2683023206518719e-07 4.9651917653024860e-04 0.0000000000000000e+00  1.6892256268900807e-06 5.2196183787108429e-04 0.0000000000000000e+00  2.2556372885501676e-06 5.4495787317109282e-04 0.0000000000000000e+00  -4.5183696693149114e-06 1.1440524606294050e-05 0.0000000000000000e+00  0.0000000000000000e+00 0.0000000000000000e+00 0.0000000000000000e+00  -1.0544118976468251e-05 2.6457820761453980e-05 0.0000000000000000e+00  -1.7561805078446265e-05 4.7016497586078798e-05 0.0000000000000000e+00  -2.4588248974563767e-05 7.4066365586370020e-05 0.0000000000000000e+00  -3.0490478386134059e-05 1.0555699750745457e-04 0.0000000000000000e+00  -3.4897913031681884e-05 1.4132608692910416e-04 0.0000000000000000e+00  -3.7378355776887443e-05 1.8061890653399461e-04 0.0000000000000000e+00  -3.7784945118909949e-05 2.2231526678219329e-04 0.0000000000000000e+00  -3.6155199756789074e-05 2.6492729484398514e-04 0.0000000000000000e+00  -3.2859595106044933e-05 3.0740186800976368e-04 0.0000000000000000e+00  -2.8532490131182538e-05 3.4923821918070433e-04 0.0000000000000000e+00  -2.4027062031096536e-05 3.9027786057659687e-04 0.0000000000000000e+00  -2.0387548181202484e-05 4.3144506048216721e-04 0.0000000000000000e+00  -1.8104890875357766e-05 4.7732382469555559e-04 0.0000000000000000e+00  -1.6016255497526179e-05 5.2446221765845458e-04 0.0000000000000000e+00  -1.5801968674788297e-05 5.4611371190117720e-04 0.0000000000000000e+00  -1.5474727945444220e-05 5.6381346032814347e-04 0.0000000000000000e+00  -5.1841206921727974e-06 1.3531330492480984e-05 0.0000000000000000e+00  0.0000000000000000e+00 0.0000000000000000e+00 0.0000000000000000e+00  -1.1355668599599685e-05 2.9954992545324184e-05 0.0000000000000000e+00  -1.8039803284004897e-05 5.0606826428301148e-05 0.0000000000000000e+00  -2.4490689109492919e-05 7.6060818128227762e-05 0.0000000000000000e+00  -2.9987874222820406e-05 1.0550176365356595e-04 0.0000000000000000e+00  -3.4249071499538952e-05 1.3864542020266152e-04 0.0000000000000000e+00  -3.7013049754071563e-05 1.7489458260482924e-04 0.0000000000000000e+00  -3.8171317891210416e-05 2.1342036648615322e-04 0.0000000000000000e+00  -3.7831248283307844e-05 2.5320940766529145e-04 0.0000000000000000e+00  -3.6358095238016414e-05 2.9349973944150858e-04 0.0000000000000000e+00  -3.4290416511096397e-05 3.3390778631072458e-04 0.0000000000000000e+00  -3.2261929330584718e-05 3.7441902663164542e-04 0.0000000000000000e+00  -3.0891658462257395e-05 4.1570832150504496e-04 0.0000000000000000e+00  -3.0322715151965589e-05 4.5945358584236759e-04 0.0000000000000000e+00  -2.9876389134442629e-05 5.0393176683138344e-04 0.0000000000000000e+00  -2.9409070089016895e-05 5.4784359826499614e-04 0.0000000000000000e+00  -2.9171080766879966e-05 5.6356070761314641e-04 0.0000000000000000e+00  -2.8804675286198102e-05 5.7714470114065511e-04 0.0000000000000000e+00  -5.5960547815776407e-06 1.4841046427712200e-05 0.0000000000000000e+00  0.0000000000000000e+00 0.0000000000000000e+00 0.0000000000000000e+00  -1.1712776789967497e-05 3.1916156923839351e-05 0.0000000000000000e+00  -1.7969042602753729e-05 5.2262885299783042e-05 0.0000000000000000e+00  -2.3867417412506066e-05 7.6367988903390052e-05 0.0000000000000000e+00  -2.8961922487296365e-05 1.0398631884894341e-04 0.0000000000000000e+00  -3.3038015197221585e-05 1.3490710017684078e-04 0.0000000000000000e+00  -3.5951280370106534e-05 1.6867776548368487e-04 0.0000000000000000e+00  -3.7671569764607855e-05 2.0468004358488949e-04 0.0000000000000000e+00  -3.8324593216470149e-05 2.4220883330828140e-04 0.0000000000000000e+00  -3.8209826852141693e-05 2.8070325511731143e-04 0.0000000000000000e+00  -3.7735667706528763e-05 3.1984708874639224e-04 0.0000000000000000e+00  -3.7338181885030719e-05 3.5959573432682823e-04 0.0000000000000000e+00  -3.7369080153303978e-05 4.0025570210069884e-04 0.0000000000000000e+00  -3.7874099399668120e-05 4.4228833308951381e-04 0.0000000000000000e+00  -3.8560786036326946e-05 4.8461137941644783e-04 0.0000000000000000e+00  -3.9483186947040159e-05 5.2595042481683087e-04 0.0000000000000000e+00  -4.1253420846183043e-05 5.6367397877138110e-04 0.0000000000000000e+00  -3.9721232992536439e-05 5.7723920561609024e-04 0.0000000000000000e+00  -5.7805588034525400e-06 1.5451715822676004e-05 0.0000000000000000e+00  0.0000000000000000e+00 0.0000000000000000e+00 0.0000000000000000e+00  -1.1671838755675920e-05 3.2569615418880813e-05 0.0000000000000000e+00  -1.7409310697861748e-05 5.2290705617867991e-05 0.0000000000000000e+00  -2.2701028340867490e-05 7.5126745214875457e-05 0.0000000000000000e+00  -2.7302344548908095e-05 1.0111265973841040e-04 0.0000000000000000e+00  -3.1088251247449404e-05 1.3013345573197600e-04 0.0000000000000000e+00  -3.3996438111937121e-05 1.6186130316830151e-04 0.0000000000000000e+00  -3.6047793091652473e-05 1.9583074503869250e-04 0.0000000000000000e+00  -3.7365379239535397e-05 2.3152242958402673e-04 0.0000000000000000e+00  -3.8175604224335285e-05 2.6849695042113064e-04 0.0000000000000000e+00  -3.8762634188026251e-05 3.0646272062225926e-04 0.0000000000000000e+00  -3.9402719361505192e-05 3.4529291804878448e-04 0.0000000000000000e+00  -4.0280574440028416e-05 3.8500718146777297e-04 0.0000000000000000e+00  -4.1388033210868738e-05 4.2554607776712478e-04 0.0000000000000000e+00  -4.2557033211780615e-05 4.6610048326611094e-04 0.0000000000000000e+00  -4.3759715657962889e-05 5.0562747105415936e-04 0.0000000000000000e+00  -4.5147001018834831e-05 5.4270566582981889e-04 0.0000000000000000e+00  -4.6925817926636315e-05 5.7742800131456299e-04 0.0000000000000000e+00  -5.7433059359846544e-06 1.5417321890622093e-05 0.0000000000000000e+00  0.0000000000000000e+00 0.0000000000000000e+00 0.0000000000000000e+00  -1.1220348709120987e-05 3.2038987630053715e-05 0.0000000000000000e+00  -1.6298837736956877e-05 5.0840608514363316e-05 0.0000000000000000e+00  -2.0869035451941922e-05 7.2399855173336654e-05 0.0000000000000000e+00  -2.4849149045402135e-05 9.6895447436296686e-05 0.0000000000000000e+00  -2.8207142247233899e-05 1.2428215579522796e-04 0.0000000000000000e+00  -3.0943959004709410e-05 1.5431688578658640e-04 0.0000000000000000e+00  -3.3108350953495291e-05 1.8663332948386618e-04 0.0000000000000000e+00  -3.4807419991896927e-05 2.2081763750611211e-04 0.0000000000000000e+00  -3.6202079095822723e-05 2.5649322096246821e-04 0.0000000000000000e+00  -3.7475531642911582e-05 2.9336484721099424e-04 0.0000000000000000e+00  -3.8787139820814255e-05 3.3122287788843750e-04 0.0000000000000000e+00  -4.0219941192305335e-05 3.6990017202558691e-04 0.0000000000000000e+00  -4.1740461008103630e-05 4.0911293199556302e-04 0.0000000000000000e+00  -4.3244353210393952e-05 4.4819020347790700e-04 0.0000000000000000e+00  -4.4711156914619013e-05 4.8628320457452757e-04 0.0000000000000000e+00  -4.6247139041181312e-05 5.2241256693439200e-04 0.0000000000000000e+00  -4.8027571667236883e-05 5.5617815733417417e-04 0.0000000000000000e+00  -4.9618551430266343e-05 5.8780674496569521e-04 0.0000000000000000e+00  -3.0567698211452753e-05 2.0985011767475805e-04 0.0000000000000000e+00  -3.2313254463674342e-05 2.4442985480256131e-04 0.0000000000000000e+00  -3.4040080113579107e-05 2.8031976954390203e-04 0.0000000000000000e+00  -3.5825207900643136e-05 3.1724202433519350e-04 0.0000000000000000e+00  -3.7685048117691258e-05 3.5491573566096951e-04 0.0000000000000000e+00  -3.9560281179573583e-05 3.9296040773620985e-04 0.0000000000000000e+00  -4.1350043271625861e-05 4.3078390749297948e-04 0.0000000000000000e+00  -4.2984145399143152e-05 4.6766309684823348e-04 0.0000000000000000e+00  -4.4419231536791126e-05 5.0276120085086026e-04 0.0000000000000000e+00  -4.5561772654174968e-05 5.3529285396595387e-04 0.0000000000000000e+00  -4.6066008812026374e-05 5.6374028452772968e-04 0.0000000000000000e+00  -4.6472604621472916e-05 5.8029433923486435e-04 0.0000000000000000e+00  </DataArray> 
</PointData> 
</Piece>
</UnstructuredGrid>
</VTKFile>