<?xml version="1.0"?>
<VTKFile type="UnstructuredGrid"  version="0.1"  >
<UnstructuredGrid>
<Piece  NumberOfPoints="174" NumberOfCells="289">
<Points>
<DataArray  type="Float64"  NumberOfComponents="3"  format="ascii">0 0.2666666666666667 0  0.03304347826086956 0.2666666666666667 0  0.03304347826086956 0.3 0  0 0.3 0  0.06608695652173913 0.2666666666666667 0  0.06608695652173913 0.3 0  0.09913043478260869 0.2666666666666667 0  0.09913043478260869 0.3 0  0.1321739130434783 0.2666666666666667 0  0.1321739130434783 0.3 0  0.1652173913043478 0.2666666666666667 0  0.1652173913043478 0.3 0  0.1982608695652174 0.2666666666666667 0  0.1982608695652174 0.3 0  0.2313043478260869 0.2666666666666667 0  0.2313043478260869 0.3 0  0.2643478260869565 0.2666666666666667 0  0.2643478260869565 0.3 0  0.2973913043478261 0.3 0  0.03304347826086956 0.3333333333333333 0  0 0.3333333333333333 0  0.06608695652173913 0.3333333333333333 0  0.09913043478260869 0.3333333333333333 0  0.1321739130434783 0.3333333333333333 0  0.1652173913043478 0.3333333333333333 0  0.1982608695652174 0.3333333333333333 0  0.2313043478260869 0.3333333333333333 0  0.2643478260869565 0.3333333333333333 0  0.2973913043478261 0.3333333333333333 0  0.3304347826086956 0.3 0  0.3304347826086956 0.3333333333333333 0  0.3634782608695652 0.3 0  0.3634782608695652 0.3333333333333333 0  0.3965217391304348 0.3 0  0.3965217391304348 0.3333333333333333 0  0.4295652173913043 0.3 0  0.4295652173913043 0.3333333333333333 0  0.4626086956521739 0.3 0  0.4626086956521739 0.3333333333333333 0  0.4956521739130435 0.3 0  0.4956521739130435 0.3333333333333333 0  0.528695652173913 0.3 0  0.528695652173913 0.3333333333333333 0  0.5617391304347825 0.3 0  0.5617391304347825 0.3333333333333333 0  0.5947826086956521 0.3 0  0.5947826086956521 0.3333333333333333 0  0.6278260869565218 0.3 0  0.6278260869565218 0.3333333333333333 0  0.6608695652173913 0.3 0  0.6608695652173913 0.3333333333333333 0  0.6939130434782609 0.3333333333333333 0  0.03304347826086956 0.3666666666666666 0  0 0.3666666666666666 0  0.06608695652173913 0.3666666666666666 0  0.09913043478260869 0.3666666666666666 0  0.1321739130434783 0.3666666666666666 0  0.1652173913043478 0.3666666666666666 0  0.1982608695652174 0.3666666666666666 0  0.2313043478260869 0.3666666666666666 0  0.2643478260869565 0.3666666666666666 0  0.2973913043478261 0.3666666666666666 0  0.3304347826086956 0.3666666666666666 0  0.3634782608695652 0.3666666666666666 0  0.3965217391304348 0.3666666666666666 0  0.4295652173913043 0.3666666666666666 0  0.4626086956521739 0.3666666666666666 0  0.4956521739130435 0.3666666666666666 0  0.528695652173913 0.3666666666666666 0  0.5617391304347825 0.3666666666666666 0  0.5947826086956521 0.3666666666666666 0  0.6278260869565218 0.3666666666666666 0  0.6608695652173913 0.3666666666666666 0  0.6939130434782609 0.3666666666666666 0  0.7269565217391304 0.3666666666666666 0  0.03304347826086956 0.4 0  0 0.4 0  0.06608695652173913 0.4 0  0.09913043478260869 0.4 0  0.1321739130434783 0.4 0  0.1652173913043478 0.4 0  0.1982608695652174 0.4 0  0.2313043478260869 0.4 0  0.2643478260869565 0.4 0  0.2973913043478261 0.4 0  0.3304347826086956 0.4 0  0.3634782608695652 0.4 0  0.3965217391304348 0.4 0  0.4295652173913043 0.4 0  0.4626086956521739 0.4 0  0.4956521739130435 0.4 0  0.528695652173913 0.4 0  0.5617391304347825 0.4 0  0.5947826086956521 0.4 0  0.6278260869565218 0.4 0  0.6608695652173913 0.4 0  0.6939130434782609 0.4 0  0.7269565217391304 0.4 0  0.7599999999999999 0.4 0  0.03304347826086956 0.4333333333333333 0  0 0.4333333333333333 0  0.06608695652173913 0.4333333333333333 0  0.09913043478260869 0.4333333333333333 0  0.1321739130434783 0.4333333333333333 0  0.1652173913043478 0.4333333333333333 0  0.1982608695652174 0.4333333333333333 0  0.2313043478260869 0.4333333333333333 0  0.2643478260869565 0.4333333333333333 0  0.2973913043478261 0.4333333333333333 0  0.3304347826086956 0.4333333333333333 0  0.3634782608695652 0.4333333333333333 0  0.3965217391304348 0.4333333333333333 0  0.4295652173913043 0.4333333333333333 0  0.4626086956521739 0.4333333333333333 0  0.4956521739130435 0.4333333333333333 0  0.528695652173913 0.4333333333333333 0  0.5617391304347825 0.4333333333333333 0  0.5947826086956521 0.4333333333333333 0  0.6278260869565218 0.4333333333333333 0  0.6608695652173913 0.4333333333333333 0  0.6939130434782609 0.4333333333333333 0  0.7269565217391304 0.4333333333333333 0  0.7599999999999999 0.4333333333333333 0  0.7930434782608695 0.4333333333333333 0  0.03304347826086956 0.4666666666666667 0  0 0.4666666666666667 0  0.06608695652173913 0.4666666666666667 0  0.09913043478260869 0.4666666666666667 0  0.1321739130434783 0.4666666666666667 0  0.1652173913043478 0.4666666666666667 0  0.1982608695652174 0.4666666666666667 0  0.2313043478260869 0.4666666666666667 0  0.2643478260869565 0.4666666666666667 0  0.2973913043478261 0.4666666666666667 0  0.3304347826086956 0.4666666666666667 0  0.3634782608695652 0.4666666666666667 0  0.3965217391304348 0.4666666666666667 0  0.4295652173913043 0.4666666666666667 0  0.4626086956521739 0.4666666666666667 0  0.4956521739130435 0.4666666666666667 0  0.528695652173913 0.4666666666666667 0  0.5617391304347825 0.4666666666666667 0  0.5947826086956521 0.4666666666666667 0  0.6278260869565218 0.4666666666666667 0  0.6608695652173913 0.4666666666666667 0  0.6939130434782609 0.4666666666666667 0  0.7269565217391304 0.4666666666666667 0  0.7599999999999999 0.4666666666666667 0  0.7930434782608695 0.4666666666666667 0  0.03304347826086956 0.5 0  0 0.5 0  0.06608695652173913 0.5 0  0.09913043478260869 0.5 0  0.1321739130434783 0.5 0  0.1652173913043478 0.5 0  0.1982608695652174 0.5 0  0.2313043478260869 0.5 0  0.2643478260869565 0.5 0  0.2973913043478261 0.5 0  0.3304347826086956 0.5 0  0.3634782608695652 0.5 0  0.3965217391304348 0.5 0  0.4295652173913043 0.5 0  0.4626086956521739 0.5 0  0.4956521739130435 0.5 0  0.528695652173913 0.5 0  0.5617391304347825 0.5 0  0.5947826086956521 0.5 0  0.6278260869565218 0.5 0  0.6608695652173913 0.5 0  0.6939130434782609 0.5 0  0.7269565217391304 0.5 0  0.7599999999999999 0.5 0  0.7930434782608695 0.5 0  </DataArray>
</Points>
<Cells>
<DataArray  type="UInt32"  Name="connectivity"  format="ascii">0 1 2  0 3 2  1 4 5  1 2 5  4 6 7  4 5 7  6 8 9  6 7 9  8 10 11  8 9 11  10 12 13  10 11 13  12 14 15  12 13 15  14 16 17  14 15 17  16 17 18  3 2 19  3 20 19  2 5 21  2 19 21  5 7 22  5 21 22  7 9 23  7 22 23  9 11 24  9 23 24  11 13 25  11 24 25  13 15 26  13 25 26  15 17 27  15 26 27  17 18 28  17 27 28  18 29 30  18 28 30  29 31 32  29 30 32  31 33 34  31 32 34  33 35 36  33 34 36  35 37 38  35 36 38  37 39 40  37 38 40  39 41 42  39 40 42  41 43 44  41 42 44  43 45 46  43 44 46  45 47 48  45 46 48  47 49 50  47 48 50  49 50 51  20 19 52  20 53 52  19 21 54  19 52 54  21 22 55  21 54 55  22 23 56  22 55 56  23 24 57  23 56 57  24 25 58  24 57 58  25 26 59  25 58 59  26 27 60  26 59 60  27 28 61  27 60 61  28 30 62  28 61 62  30 32 63  30 62 63  32 34 64  32 63 64  34 36 65  34 64 65  36 38 66  36 65 66  38 40 67  38 66 67  40 42 68  40 67 68  42 44 69  42 68 69  44 46 70  44 69 70  46 48 71  46 70 71  48 50 72  48 71 72  50 51 73  50 72 73  51 73 74  53 52 75  53 76 75  52 54 77  52 75 77  54 55 78  54 77 78  55 56 79  55 78 79  56 57 80  56 79 80  57 58 81  57 80 81  58 59 82  58 81 82  59 60 83  59 82 83  60 61 84  60 83 84  61 62 85  61 84 85  62 63 86  62 85 86  63 64 87  63 86 87  64 65 88  64 87 88  65 66 89  65 88 89  66 67 90  66 89 90  67 68 91  67 90 91  68 69 92  68 91 92  69 70 93  69 92 93  70 71 94  70 93 94  71 72 95  71 94 95  72 73 96  72 95 96  73 74 97  73 96 97  74 97 98  76 75 99  76 100 99  75 77 101  75 99 101  77 78 102  77 101 102  78 79 103  78 102 103  79 80 104  79 103 104  80 81 105  80 104 105  81 82 106  81 105 106  82 83 107  82 106 107  83 84 108  83 107 108  84 85 109  84 108 109  85 86 110  85 109 110  86 87 111  86 110 111  87 88 112  87 111 112  88 89 113  88 112 113  89 90 114  89 113 114  90 91 115  90 114 115  91 92 116  91 115 116  92 93 117  92 116 117  93 94 118  93 117 118  94 95 119  94 118 119  95 96 120  95 119 120  96 97 121  96 120 121  97 98 122  97 121 122  98 122 123  100 99 124  100 125 124  99 101 126  99 124 126  101 102 127  101 126 127  102 103 128  102 127 128  103 104 129  103 128 129  104 105 130  104 129 130  105 106 131  105 130 131  106 107 132  106 131 132  107 108 133  107 132 133  108 109 134  108 133 134  109 110 135  109 134 135  110 111 136  110 135 136  111 112 137  111 136 137  112 113 138  112 137 138  113 114 139  113 138 139  114 115 140  114 139 140  115 116 141  115 140 141  116 117 142  116 141 142  117 118 143  117 142 143  118 119 144  118 143 144  119 120 145  119 144 145  120 121 146  120 145 146  121 122 147  121 146 147  122 123 148  122 147 148  125 124 149  125 150 149  124 126 151  124 149 151  126 127 152  126 151 152  127 128 153  127 152 153  128 129 154  128 153 154  129 130 155  129 154 155  130 131 156  130 155 156  131 132 157  131 156 157  132 133 158  132 157 158  133 134 159  133 158 159  134 135 160  134 159 160  135 136 161  135 160 161  136 137 162  136 161 162  137 138 163  137 162 163  138 139 164  138 163 164  139 140 165  139 164 165  140 141 166  140 165 166  141 142 167  141 166 167  142 143 168  142 167 168  143 144 169  143 168 169  144 145 170  144 169 170  145 146 171  145 170 171  146 147 172  146 171 172  147 148 173  147 172 173  </DataArray>
<DataArray  type="UInt32"  Name="offsets"  format="ascii">3 6 9 12 15 18 21 24 27 30 33 36 39 42 45 48 51 54 57 60 63 66 69 72 75 78 81 84 87 90 93 96 99 102 105 108 111 114 117 120 123 126 129 132 135 138 141 144 147 150 153 156 159 162 165 168 171 174 177 180 183 186 189 192 195 198 201 204 207 210 213 216 219 222 225 228 231 234 237 240 243 246 249 252 255 258 261 264 267 270 273 276 279 282 285 288 291 294 297 300 303 306 309 312 315 318 321 324 327 330 333 336 339 342 345 348 351 354 357 360 363 366 369 372 375 378 381 384 387 390 393 396 399 402 405 408 411 414 417 420 423 426 429 432 435 438 441 444 447 450 453 456 459 462 465 468 471 474 477 480 483 486 489 492 495 498 501 504 507 510 513 516 519 522 525 528 531 534 537 540 543 546 549 552 555 558 561 564 567 570 573 576 579 582 585 588 591 594 597 600 603 606 609 612 615 618 621 624 627 630 633 636 639 642 645 648 651 654 657 660 663 666 669 672 675 678 681 684 687 690 693 696 699 702 705 708 711 714 717 720 723 726 729 732 735 738 741 744 747 750 753 756 759 762 765 768 771 774 777 780 783 786 789 792 795 798 801 804 807 810 813 816 819 822 825 828 831 834 837 840 843 846 849 852 855 858 861 864 867 </DataArray>
<DataArray  type="UInt8"  Name="types"  format="ascii">5 5 5 5 5 5 5 5 5 5 5 5 5 5 5 5 5 5 5 5 5 5 5 5 5 5 5 5 5 5 5 5 5 5 5 5 5 5 5 5 5 5 5 5 5 5 5 5 5 5 5 5 5 5 5 5 5 5 5 5 5 5 5 5 5 5 5 5 5 5 5 5 5 5 5 5 5 5 5 5 5 5 5 5 5 5 5 5 5 5 5 5 5 5 5 5 5 5 5 5 5 5 5 5 5 5 5 5 5 5 5 5 5 5 5 5 5 5 5 5 5 5 5 5 5 5 5 5 5 5 5 5 5 5 5 5 5 5 5 5 5 5 5 5 5 5 5 5 5 5 5 5 5 5 5 5 5 5 5 5 5 5 5 5 5 5 5 5 5 5 5 5 5 5 5 5 5 5 5 5 5 5 5 5 5 5 5 5 5 5 5 5 5 5 5 5 5 5 5 5 5 5 5 5 5 5 5 5 5 5 5 5 5 5 5 5 5 5 5 5 5 5 5 5 5 5 5 5 5 5 5 5 5 5 5 5 5 5 5 5 5 5 5 5 5 5 5 5 5 5 5 5 5 5 5 5 5 5 5 5 5 5 5 5 5 5 5 5 5 5 5 5 5 5 5 5 5 5 5 5 5 5 5 5 5 5 5 5 5 </DataArray>
</Cells>
<PointData  Vectors="Displacement"> 
<DataArray  type="Float64"  Name="Displacement"  NumberOfComponents="3" format="ascii">0.0000000000000000e+00 0.0000000000000000e+00 0.0000000000000000e+00  -4.2359909555811104e-06 1.2675306970916361e-05 0.0000000000000000e+00  -4.0814449264709335e-06 1.2098039174515479e-05 0.0000000000000000e+00  0.0000000000000000e+00 0.0000000000000000e+00 0.0000000000000000e+00  -8.2588772712006240e-06 2.6390534357458546e-05 0.0000000000000000e+00  -7.6649206372238432e-06 2.5091082942736586e-05 0.0000000000000000e+00  -1.2026065676038101e-05 4.2009195538303875e-05 0.0000000000000000e+00  -1.0829154527144179e-05 3.9912454490384462e-05 0.0000000000000000e+00  -1.5463629372065400e-05 6.0125332411470241e-05 0.0000000000000000e+00  -1.3646996744304397e-05 5.7129119493108965e-05 0.0000000000000000e+00  -1.8466741168320537e-05 8.0924871930635061e-05 0.0000000000000000e+00  -1.6149424780121265e-05 7.6938947962388397e-05 0.0000000000000000e+00  -2.0973331116661569e-05 1.0426975853762148e-04 0.0000000000000000e+00  -1.8358713944400567e-05 9.9268752514519474e-05 0.0000000000000000e+00  -2.3002137234743298e-05 1.2989052481400900e-04 0.0000000000000000e+00  -2.0318391047067548e-05 1.2389998847767887e-04 0.0000000000000000e+00  -2.4626904880462269e-05 1.5743140446484058e-04 0.0000000000000000e+00  -2.2095491213848729e-05 1.5052773207265826e-04 0.0000000000000000e+00  -2.3781394899502928e-05 1.7882232997192105e-04 0.0000000000000000e+00  -3.6878603856004499e-06 1.0934882886162781e-05 0.0000000000000000e+00  0.0000000000000000e+00 0.0000000000000000e+00 0.0000000000000000e+00  -6.5887777249732370e-06 2.2755663808393624e-05 0.0000000000000000e+00  -8.9620559612267380e-06 3.6545693698293568e-05 0.0000000000000000e+00  -1.1030930931412564e-05 5.2839375564820386e-05 0.0000000000000000e+00  -1.2932169493227695e-05 7.1793300548751178e-05 0.0000000000000000e+00  -1.4745776363625987e-05 9.3324641007698462e-05 0.0000000000000000e+00  -1.6530086384172550e-05 1.1721658059805321e-04 0.0000000000000000e+00  -1.8339775456976933e-05 1.4317674788884473e-04 0.0000000000000000e+00  -2.0233864757710160e-05 1.7088501957245072e-04 0.0000000000000000e+00  -2.5482675528453641e-05 2.0847694976475521e-04 0.0000000000000000e+00  -2.2271239882843174e-05 2.0002721247555324e-04 0.0000000000000000e+00  -2.7300093085332861e-05 2.3923679906393187e-04 0.0000000000000000e+00  -2.4495670100441754e-05 2.3031170965734179e-04 0.0000000000000000e+00  -2.9294302159781545e-05 2.7089591221876618e-04 0.0000000000000000e+00  -2.6914056768504065e-05 2.6146037387024963e-04 0.0000000000000000e+00  -3.1445002790852647e-05 3.0323485226198358e-04 0.0000000000000000e+00  -2.9476964560873268e-05 2.9316131505650119e-04 0.0000000000000000e+00  -3.3627810231779633e-05 3.3587331839130972e-04 0.0000000000000000e+00  -3.2079421345049043e-05 3.2497882225934359e-04 0.0000000000000000e+00  -3.5655839080097338e-05 3.6805579823005616e-04 0.0000000000000000e+00  -3.4606570009684080e-05 3.5625041580626541e-04 0.0000000000000000e+00  -3.7444891901708877e-05 3.9849156372487852e-04 0.0000000000000000e+00  -3.7037041105285514e-05 3.8607188594015016e-04 0.0000000000000000e+00  -3.9220134656972835e-05 4.2607287775212738e-04 0.0000000000000000e+00  -3.9542101710293117e-05 4.1362306789463388e-04 0.0000000000000000e+00  -4.1646061203730066e-05 4.4890643396538701e-04 0.0000000000000000e+00  -4.2478549550283964e-05 4.3816055714322212e-04 0.0000000000000000e+00  -4.5795468859315058e-05 4.7169727745449252e-04 0.0000000000000000e+00  -4.6111812370244343e-05 4.6127310062863493e-04 0.0000000000000000e+00  -5.0355065406790479e-05 4.9301015741644609e-04 0.0000000000000000e+00  -4.9550108160503318e-05 4.8169766418904703e-04 0.0000000000000000e+00  -5.2591032708855256e-05 4.9551953103834452e-04 0.0000000000000000e+00  -2.8877719918749010e-06 8.9867931605024107e-06 0.0000000000000000e+00  0.0000000000000000e+00 0.0000000000000000e+00 0.0000000000000000e+00  -4.7424880368880972e-06 1.9177224558411979e-05 0.0000000000000000e+00  -6.0938855083051205e-06 3.1769522662222591e-05 0.0000000000000000e+00  -7.2963511166861512e-06 4.7171188633502820e-05 0.0000000000000000e+00  -8.5406690556647992e-06 6.5422380020166117e-05 0.0000000000000000e+00  -9.9220506694773581e-06 8.6370971667437864e-05 0.0000000000000000e+00  -1.1491391819019833e-05 1.0976320759360553e-04 0.0000000000000000e+00  -1.3282956817251287e-05 1.3529083215469632e-04 0.0000000000000000e+00  -1.5326327808627735e-05 1.6262325543366852e-04 0.0000000000000000e+00  -1.7645577234313067e-05 1.9142817213472726e-04 0.0000000000000000e+00  -2.0249774430876966e-05 2.2138013255325361e-04 0.0000000000000000e+00  -2.3120108170230262e-05 2.5215291142813219e-04 0.0000000000000000e+00  -2.6201989972328460e-05 2.8339081721956140e-04 0.0000000000000000e+00  -2.9414183654285193e-05 3.1466099815186192e-04 0.0000000000000000e+00  -3.2686110616134611e-05 3.4540961186644968e-04 0.0000000000000000e+00  -3.6019381215849031e-05 3.7497855006405001e-04 0.0000000000000000e+00  -3.9529912267918332e-05 4.0276127296620890e-04 0.0000000000000000e+00  -4.3408009988428082e-05 4.2830393885862501e-04 0.0000000000000000e+00  -4.7733703946279515e-05 4.5192346828265854e-04 0.0000000000000000e+00  -5.2159809088214944e-05 4.7273874753617597e-04 0.0000000000000000e+00  -5.6628213737120519e-05 4.8965376232388733e-04 0.0000000000000000e+00  -6.1630582461474293e-05 5.0633540217264166e-04 0.0000000000000000e+00  -1.2655841508440000e-06 5.8407957141022135e-06 0.0000000000000000e+00  0.0000000000000000e+00 0.0000000000000000e+00 0.0000000000000000e+00  -1.5723124535488663e-06 1.4024049636029245e-05 0.0000000000000000e+00  -1.7162003766884850e-06 2.5397437455017849e-05 0.0000000000000000e+00  -2.0378615696294525e-06 4.0037351247395213e-05 0.0000000000000000e+00  -2.6750819570714816e-06 5.7785517660977855e-05 0.0000000000000000e+00  -3.6806684567980309e-06 7.8380424965246957e-05 0.0000000000000000e+00  -5.0745376625954802e-06 1.0150976478566197e-04 0.0000000000000000e+00  -6.8660867603407076e-06 1.2683485047388233e-04 0.0000000000000000e+00  -9.0623255682238920e-06 1.5400540890902226e-04 0.0000000000000000e+00  -1.1667259748713575e-05 1.8266838150449657e-04 0.0000000000000000e+00  -1.4676132669369068e-05 2.1247114680074056e-04 0.0000000000000000e+00  -1.8068296849767797e-05 2.4305779752206784e-04 0.0000000000000000e+00  -2.1804055232946946e-05 2.7405710427369799e-04 0.0000000000000000e+00  -2.5832293784562727e-05 3.0506410871431670e-04 0.0000000000000000e+00  -3.0113755966756595e-05 3.3562576004901839e-04 0.0000000000000000e+00  -3.4654438783054457e-05 3.6525270312699027e-04 0.0000000000000000e+00  -3.9523724138234572e-05 3.9347889741122807e-04 0.0000000000000000e+00  -4.4828482449286431e-05 4.1991117692778435e-04 0.0000000000000000e+00  -5.0622226162966648e-05 4.4437389424442349e-04 0.0000000000000000e+00  -5.6872415234589741e-05 4.6625188229145766e-04 0.0000000000000000e+00  -6.3759041838382053e-05 4.8500480679718091e-04 0.0000000000000000e+00  -7.0724504309345676e-05 5.0330309663795922e-04 0.0000000000000000e+00  -7.6695964788558218e-05 5.1737883743116812e-04 0.0000000000000000e+00  2.5767449502004118e-06 7.3377261127873613e-07 0.0000000000000000e+00  0.0000000000000000e+00 0.0000000000000000e+00 0.0000000000000000e+00  4.1135918750939099e-06 6.9365673828026275e-06 0.0000000000000000e+00  4.9462813083086325e-06 1.7310487545715082e-05 0.0000000000000000e+00  5.2097951754335077e-06 3.1426699745516678e-05 0.0000000000000000e+00  4.9356011260683791e-06 4.8907297366008022e-05 0.0000000000000000e+00  4.1305558651088117e-06 6.9379887627191869e-05 0.0000000000000000e+00  2.7961563307525094e-06 9.2473030907745202e-05 0.0000000000000000e+00  9.3275203049628194e-07 1.1781550011627014e-04 0.0000000000000000e+00  -1.4595527567236837e-06 1.4503613375215475e-04 0.0000000000000000e+00  -4.3807066865880773e-06 1.7376380480138109e-04 0.0000000000000000e+00  -7.8306704375024266e-06 2.0362741372629493e-04 0.0000000000000000e+00  -1.1809408228661529e-05 2.3425588656098012e-04 0.0000000000000000e+00  -1.6316887310238781e-05 2.6527817427806548e-04 0.0000000000000000e+00  -2.1353084158598669e-05 2.9632325340105684e-04 0.0000000000000000e+00  -2.6918015292892785e-05 3.2702013146388640e-04 0.0000000000000000e+00  -3.3011881133898748e-05 3.5699787491183689e-04 0.0000000000000000e+00  -3.9635739756308960e-05 3.8588574138339671e-04 0.0000000000000000e+00  -4.6794668945845534e-05 4.1331378806501261e-04 0.0000000000000000e+00  -5.4512639415763687e-05 4.3891546096506783e-04 0.0000000000000000e+00  -6.2902228790245174e-05 4.6233571738878891e-04 0.0000000000000000e+00  -7.2452792032575420e-05 4.8327239240083028e-04 0.0000000000000000e+00  -8.5233239473607287e-05 5.0153293327844797e-04 0.0000000000000000e+00  -8.8712898618453277e-05 5.1638440773949814e-04 0.0000000000000000e+00  -8.9551801168323317e-05 5.2943257720896003e-04 0.0000000000000000e+00  -2.8241141546494651e-06 1.4539094174372917e-06 0.0000000000000000e+00  0.0000000000000000e+00 0.0000000000000000e+00 0.0000000000000000e+00  -5.7178787530227194e-06 7.7636882648102163e-06 0.0000000000000000e+00  -8.7490091869445490e-06 1.8208961039917473e-05 0.0000000000000000e+00  -1.1931404604135064e-05 3.2391656716258436e-05 0.0000000000000000e+00  -1.5267671543558756e-05 4.9937798061558244e-05 0.0000000000000000e+00  -1.8758332927015880e-05 7.0475732847706516e-05 0.0000000000000000e+00  -2.2403489397293123e-05 9.3634174850131517e-05 0.0000000000000000e+00  -2.6203153005737301e-05 1.1904192941198974e-04 0.0000000000000000e+00  -3.0157317232898610e-05 1.4632784194526359e-04 0.0000000000000000e+00  -3.4265971875443334e-05 1.7512078693785577e-04 0.0000000000000000e+00  -3.8529106226644502e-05 2.0504966519844489e-04 0.0000000000000000e+00  -4.2946709746682872e-05 2.3574340282613826e-04 0.0000000000000000e+00  -4.7518772144343887e-05 2.6683095055794108e-04 0.0000000000000000e+00  -5.2245283075884766e-05 2.9794128320553050e-04 0.0000000000000000e+00  -5.7126230489776491e-05 3.2870339903388266e-04 0.0000000000000000e+00  -6.2161592572207384e-05 3.5874631868537942e-04 0.0000000000000000e+00  -6.7351299497651004e-05 3.8769908211822799e-04 0.0000000000000000e+00  -7.2695053936494534e-05 4.1519073606576310e-04 0.0000000000000000e+00  -7.8191503889019388e-05 4.4085025850064717e-04 0.0000000000000000e+00  -8.3834706229452140e-05 4.6430573464416319e-04 0.0000000000000000e+00  -8.9605413938167983e-05 4.8516865934476901e-04 0.0000000000000000e+00  -9.5367974472367108e-05 5.0295476029678582e-04 0.0000000000000000e+00  -1.0062421015442467e-04 5.1707945016241607e-04 0.0000000000000000e+00  -1.0348575652736606e-04 5.2987666477332101e-04 0.0000000000000000e+00  -6.6940755354981357e-06 3.0290230412358205e-06 0.0000000000000000e+00  0.0000000000000000e+00 0.0000000000000000e+00 0.0000000000000000e+00  -1.3859336384435303e-05 9.3804759269508914e-06 0.0000000000000000e+00  -2.0839903396618578e-05 1.9809234881711767e-05 0.0000000000000000e+00  -2.7601371221330838e-05 3.3978971267463482e-05 0.0000000000000000e+00  -3.4142724178193370e-05 5.1513744783758341e-05 0.0000000000000000e+00  -4.0464088034707133e-05 7.2040693029427026e-05 0.0000000000000000e+00  -4.6565518115655501e-05 9.5188232172506112e-05 0.0000000000000000e+00  -5.2447038912598486e-05 1.2058510220044522e-04 0.0000000000000000e+00  -5.8108667484285068e-05 1.4786013451756791e-04 0.0000000000000000e+00  -6.3550419151776831e-05 1.7664220063787840e-04 0.0000000000000000e+00  -6.8772308733028832e-05 2.0656020075578252e-04 0.0000000000000000e+00  -7.3774350812870997e-05 2.3724306086179010e-04 0.0000000000000000e+00  -7.8556559837836528e-05 2.6831973168090547e-04 0.0000000000000000e+00  -8.3118950278194322e-05 2.9941918795274130e-04 0.0000000000000000e+00  -8.7461537299823972e-05 3.3017042745635733e-04 0.0000000000000000e+00  -9.1584339978817637e-05 3.6020246839130947e-04 0.0000000000000000e+00  -9.5487396736479446e-05 3.8914433924193653e-04 0.0000000000000000e+00  -9.9170838402090863e-05 4.1662503488066298e-04 0.0000000000000000e+00  -1.0263522787489110e-04 4.4227332968172059e-04 0.0000000000000000e+00  -1.0588305856835630e-04 4.6571720159799691e-04 0.0000000000000000e+00  -1.0892370671173434e-04 4.8658742991710649e-04 0.0000000000000000e+00  -1.1181078244386429e-04 5.0438304322612598e-04 0.0000000000000000e+00  -1.1479437319001311e-04 5.1869189853126507e-04 0.0000000000000000e+00  -1.1823629844263806e-04 5.3123891324975171e-04 0.0000000000000000e+00  </DataArray> 
</PointData> 
</Piece>
</UnstructuredGrid>
</VTKFile>