<?xml version="1.0"?>
<VTKFile type="UnstructuredGrid"  version="0.1"  >
<UnstructuredGrid>
<Piece  NumberOfPoints="171" NumberOfCells="293">
<Points>
<DataArray  type="Float64"  NumberOfComponents="3"  format="ascii">2.379130434782609 0 0  2.412173913043478 0 0  2.412173913043478 0.03333333333333333 0  2.379130434782609 0.03333333333333333 0  2.445217391304348 0 0  2.445217391304348 0.03333333333333333 0  2.478260869565217 0 0  2.478260869565217 0.03333333333333333 0  2.511304347826087 0 0  2.511304347826087 0.03333333333333333 0  2.544347826086956 0 0  2.544347826086956 0.03333333333333333 0  2.577391304347826 0 0  2.577391304347826 0.03333333333333333 0  2.610434782608696 0 0  2.610434782608696 0.03333333333333333 0  2.643478260869565 0 0  2.643478260869565 0.03333333333333333 0  2.676521739130435 0 0  2.676521739130435 0.03333333333333333 0  2.709565217391304 0 0  2.709565217391304 0.03333333333333333 0  2.742608695652174 0 0  2.742608695652174 0.03333333333333333 0  2.775652173913044 0 0  2.775652173913044 0.03333333333333333 0  2.808695652173913 0.03333333333333333 0  2.412173913043478 0.06666666666666667 0  2.445217391304348 0.06666666666666667 0  2.478260869565217 0.06666666666666667 0  2.511304347826087 0.06666666666666667 0  2.544347826086956 0.06666666666666667 0  2.577391304347826 0.06666666666666667 0  2.610434782608696 0.06666666666666667 0  2.643478260869565 0.06666666666666667 0  2.676521739130435 0.06666666666666667 0  2.709565217391304 0.06666666666666667 0  2.742608695652174 0.06666666666666667 0  2.775652173913044 0.06666666666666667 0  2.808695652173913 0.06666666666666667 0  2.841739130434783 0.06666666666666667 0  2.445217391304348 0.1 0  2.412173913043478 0.1 0  2.478260869565217 0.1 0  2.511304347826087 0.1 0  2.544347826086956 0.1 0  2.577391304347826 0.1 0  2.610434782608696 0.1 0  2.643478260869565 0.1 0  2.676521739130435 0.1 0  2.709565217391304 0.1 0  2.742608695652174 0.1 0  2.775652173913044 0.1 0  2.808695652173913 0.1 0  2.841739130434783 0.1 0  2.445217391304348 0.1333333333333333 0  2.478260869565217 0.1333333333333333 0  2.511304347826087 0.1333333333333333 0  2.544347826086956 0.1333333333333333 0  2.577391304347826 0.1333333333333333 0  2.610434782608696 0.1333333333333333 0  2.643478260869565 0.1333333333333333 0  2.676521739130435 0.1333333333333333 0  2.709565217391304 0.1333333333333333 0  2.742608695652174 0.1333333333333333 0  2.775652173913044 0.1333333333333333 0  2.808695652173913 0.1333333333333333 0  2.841739130434783 0.1333333333333333 0  2.478260869565217 0.1666666666666667 0  2.445217391304348 0.1666666666666667 0  2.511304347826087 0.1666666666666667 0  2.544347826086956 0.1666666666666667 0  2.577391304347826 0.1666666666666667 0  2.610434782608696 0.1666666666666667 0  2.643478260869565 0.1666666666666667 0  2.676521739130435 0.1666666666666667 0  2.709565217391304 0.1666666666666667 0  2.742608695652174 0.1666666666666667 0  2.775652173913044 0.1666666666666667 0  2.808695652173913 0.1666666666666667 0  2.841739130434783 0.1666666666666667 0  2.478260869565217 0.2 0  2.511304347826087 0.2 0  2.544347826086956 0.2 0  2.577391304347826 0.2 0  2.610434782608696 0.2 0  2.643478260869565 0.2 0  2.676521739130435 0.2 0  2.709565217391304 0.2 0  2.742608695652174 0.2 0  2.775652173913044 0.2 0  2.808695652173913 0.2 0  2.841739130434783 0.2 0  2.511304347826087 0.2333333333333333 0  2.544347826086956 0.2333333333333333 0  2.577391304347826 0.2333333333333333 0  2.610434782608696 0.2333333333333333 0  2.643478260869565 0.2333333333333333 0  2.676521739130435 0.2333333333333333 0  2.709565217391304 0.2333333333333333 0  2.742608695652174 0.2333333333333333 0  2.775652173913044 0.2333333333333333 0  2.808695652173913 0.2333333333333333 0  2.841739130434783 0.2333333333333333 0  2.874782608695652 0.2333333333333333 0  2.544347826086956 0.2666666666666667 0  2.577391304347826 0.2666666666666667 0  2.610434782608696 0.2666666666666667 0  2.643478260869565 0.2666666666666667 0  2.676521739130435 0.2666666666666667 0  2.709565217391304 0.2666666666666667 0  2.742608695652174 0.2666666666666667 0  2.775652173913044 0.2666666666666667 0  2.808695652173913 0.2666666666666667 0  2.841739130434783 0.2666666666666667 0  2.874782608695652 0.2666666666666667 0  2.577391304347826 0.3 0  2.610434782608696 0.3 0  2.643478260869565 0.3 0  2.676521739130435 0.3 0  2.709565217391304 0.3 0  2.742608695652174 0.3 0  2.775652173913044 0.3 0  2.808695652173913 0.3 0  2.841739130434783 0.3 0  2.874782608695652 0.3 0  2.610434782608696 0.3333333333333333 0  2.643478260869565 0.3333333333333333 0  2.676521739130435 0.3333333333333333 0  2.709565217391304 0.3333333333333333 0  2.742608695652174 0.3333333333333333 0  2.775652173913044 0.3333333333333333 0  2.808695652173913 0.3333333333333333 0  2.841739130434783 0.3333333333333333 0  2.874782608695652 0.3333333333333333 0  2.643478260869565 0.3666666666666666 0  2.676521739130435 0.3666666666666666 0  2.709565217391304 0.3666666666666666 0  2.742608695652174 0.3666666666666666 0  2.775652173913044 0.3666666666666666 0  2.808695652173913 0.3666666666666666 0  2.841739130434783 0.3666666666666666 0  2.874782608695652 0.3666666666666666 0  2.676521739130435 0.4 0  2.643478260869565 0.4 0  2.709565217391304 0.4 0  2.742608695652174 0.4 0  2.775652173913044 0.4 0  2.808695652173913 0.4 0  2.841739130434783 0.4 0  2.874782608695652 0.4 0  2.676521739130435 0.4333333333333333 0  2.709565217391304 0.4333333333333333 0  2.742608695652174 0.4333333333333333 0  2.775652173913044 0.4333333333333333 0  2.808695652173913 0.4333333333333333 0  2.841739130434783 0.4333333333333333 0  2.874782608695652 0.4333333333333333 0  2.709565217391304 0.4666666666666667 0  2.676521739130435 0.4666666666666667 0  2.742608695652174 0.4666666666666667 0  2.775652173913044 0.4666666666666667 0  2.808695652173913 0.4666666666666667 0  2.841739130434783 0.4666666666666667 0  2.874782608695652 0.4666666666666667 0  2.709565217391304 0.5 0  2.742608695652174 0.5 0  2.775652173913044 0.5 0  2.808695652173913 0.5 0  2.841739130434783 0.5 0  2.874782608695652 0.5 0  </DataArray>
</Points>
<Cells>
<DataArray  type="UInt32"  Name="connectivity"  format="ascii">0 1 2  0 3 2  1 4 5  1 2 5  4 6 7  4 5 7  6 8 9  6 7 9  8 10 11  8 9 11  10 12 13  10 11 13  12 14 15  12 13 15  14 16 17  14 15 17  16 18 19  16 17 19  18 20 21  18 19 21  20 22 23  20 21 23  22 24 25  22 23 25  24 25 26  3 2 27  2 5 28  2 27 28  5 7 29  5 28 29  7 9 30  7 29 30  9 11 31  9 30 31  11 13 32  11 31 32  13 15 33  13 32 33  15 17 34  15 33 34  17 19 35  17 34 35  19 21 36  19 35 36  21 23 37  21 36 37  23 25 38  23 37 38  25 26 39  25 38 39  26 39 40  27 28 41  27 42 41  28 29 43  28 41 43  29 30 44  29 43 44  30 31 45  30 44 45  31 32 46  31 45 46  32 33 47  32 46 47  33 34 48  33 47 48  34 35 49  34 48 49  35 36 50  35 49 50  36 37 51  36 50 51  37 38 52  37 51 52  38 39 53  38 52 53  39 40 54  39 53 54  42 41 55  41 43 56  41 55 56  43 44 57  43 56 57  44 45 58  44 57 58  45 46 59  45 58 59  46 47 60  46 59 60  47 48 61  47 60 61  48 49 62  48 61 62  49 50 63  49 62 63  50 51 64  50 63 64  51 52 65  51 64 65  52 53 66  52 65 66  53 54 67  53 66 67  55 56 68  55 69 68  56 57 70  56 68 70  57 58 71  57 70 71  58 59 72  58 71 72  59 60 73  59 72 73  60 61 74  60 73 74  61 62 75  61 74 75  62 63 76  62 75 76  63 64 77  63 76 77  64 65 78  64 77 78  65 66 79  65 78 79  66 67 80  66 79 80  69 68 81  68 70 82  68 81 82  70 71 83  70 82 83  71 72 84  71 83 84  72 73 85  72 84 85  73 74 86  73 85 86  74 75 87  74 86 87  75 76 88  75 87 88  76 77 89  76 88 89  77 78 90  77 89 90  78 79 91  78 90 91  79 80 92  79 91 92  81 82 93  82 83 94  82 93 94  83 84 95  83 94 95  84 85 96  84 95 96  85 86 97  85 96 97  86 87 98  86 97 98  87 88 99  87 98 99  88 89 100  88 99 100  89 90 101  89 100 101  90 91 102  90 101 102  91 92 103  91 102 103  92 103 104  93 94 105  94 95 106  94 105 106  95 96 107  95 106 107  96 97 108  96 107 108  97 98 109  97 108 109  98 99 110  98 109 110  99 100 111  99 110 111  100 101 112  100 111 112  101 102 113  101 112 113  102 103 114  102 113 114  103 104 115  103 114 115  105 106 116  106 107 117  106 116 117  107 108 118  107 117 118  108 109 119  108 118 119  109 110 120  109 119 120  110 111 121  110 120 121  111 112 122  111 121 122  112 113 123  112 122 123  113 114 124  113 123 124  114 115 125  114 124 125  116 117 126  117 118 127  117 126 127  118 119 128  118 127 128  119 120 129  119 128 129  120 121 130  120 129 130  121 122 131  121 130 131  122 123 132  122 131 132  123 124 133  123 132 133  124 125 134  124 133 134  126 127 135  127 128 136  127 135 136  128 129 137  128 136 137  129 130 138  129 137 138  130 131 139  130 138 139  131 132 140  131 139 140  132 133 141  132 140 141  133 134 142  133 141 142  135 136 143  135 144 143  136 137 145  136 143 145  137 138 146  137 145 146  138 139 147  138 146 147  139 140 148  139 147 148  140 141 149  140 148 149  141 142 150  141 149 150  144 143 151  143 145 152  143 151 152  145 146 153  145 152 153  146 147 154  146 153 154  147 148 155  147 154 155  148 149 156  148 155 156  149 150 157  149 156 157  151 152 158  151 159 158  152 153 160  152 158 160  153 154 161  153 160 161  154 155 162  154 161 162  155 156 163  155 162 163  156 157 164  156 163 164  159 158 165  158 160 166  158 165 166  160 161 167  160 166 167  161 162 168  161 167 168  162 163 169  162 168 169  163 164 170  163 169 170  </DataArray>
<DataArray  type="UInt32"  Name="offsets"  format="ascii">3 6 9 12 15 18 21 24 27 30 33 36 39 42 45 48 51 54 57 60 63 66 69 72 75 78 81 84 87 90 93 96 99 102 105 108 111 114 117 120 123 126 129 132 135 138 141 144 147 150 153 156 159 162 165 168 171 174 177 180 183 186 189 192 195 198 201 204 207 210 213 216 219 222 225 228 231 234 237 240 243 246 249 252 255 258 261 264 267 270 273 276 279 282 285 288 291 294 297 300 303 306 309 312 315 318 321 324 327 330 333 336 339 342 345 348 351 354 357 360 363 366 369 372 375 378 381 384 387 390 393 396 399 402 405 408 411 414 417 420 423 426 429 432 435 438 441 444 447 450 453 456 459 462 465 468 471 474 477 480 483 486 489 492 495 498 501 504 507 510 513 516 519 522 525 528 531 534 537 540 543 546 549 552 555 558 561 564 567 570 573 576 579 582 585 588 591 594 597 600 603 606 609 612 615 618 621 624 627 630 633 636 639 642 645 648 651 654 657 660 663 666 669 672 675 678 681 684 687 690 693 696 699 702 705 708 711 714 717 720 723 726 729 732 735 738 741 744 747 750 753 756 759 762 765 768 771 774 777 780 783 786 789 792 795 798 801 804 807 810 813 816 819 822 825 828 831 834 837 840 843 846 849 852 855 858 861 864 867 870 873 876 879 </DataArray>
<DataArray  type="UInt8"  Name="types"  format="ascii">5 5 5 5 5 5 5 5 5 5 5 5 5 5 5 5 5 5 5 5 5 5 5 5 5 5 5 5 5 5 5 5 5 5 5 5 5 5 5 5 5 5 5 5 5 5 5 5 5 5 5 5 5 5 5 5 5 5 5 5 5 5 5 5 5 5 5 5 5 5 5 5 5 5 5 5 5 5 5 5 5 5 5 5 5 5 5 5 5 5 5 5 5 5 5 5 5 5 5 5 5 5 5 5 5 5 5 5 5 5 5 5 5 5 5 5 5 5 5 5 5 5 5 5 5 5 5 5 5 5 5 5 5 5 5 5 5 5 5 5 5 5 5 5 5 5 5 5 5 5 5 5 5 5 5 5 5 5 5 5 5 5 5 5 5 5 5 5 5 5 5 5 5 5 5 5 5 5 5 5 5 5 5 5 5 5 5 5 5 5 5 5 5 5 5 5 5 5 5 5 5 5 5 5 5 5 5 5 5 5 5 5 5 5 5 5 5 5 5 5 5 5 5 5 5 5 5 5 5 5 5 5 5 5 5 5 5 5 5 5 5 5 5 5 5 5 5 5 5 5 5 5 5 5 5 5 5 5 5 5 5 5 5 5 5 5 5 5 5 5 5 5 5 5 5 5 5 5 5 5 5 5 5 5 5 5 5 5 5 5 5 5 5 </DataArray>
</Cells>
<CellData  Scalars="rho_bar"> 
<DataArray  type="Float64"  Name="rho_bar"  format="ascii">9.9999999990107813e-01   6.6670891753815587e-01   9.9999999989620381e-01   6.6669133591648988e-01   9.9999999989397248e-01   6.6668292337442414e-01   9.9999999989292965e-01   6.6667936855260046e-01   9.9999999989338029e-01   6.6667872079120394e-01   9.9999999989781252e-01   6.6668538815979361e-01   9.9999999990599231e-01   6.6670315646940881e-01   9.9999999991881394e-01   6.6673584000108366e-01   9.9999999993776179e-01   6.6679776967061655e-01   9.9999999996127664e-01   6.6693076620720504e-01   9.9999999998292488e-01   6.6729567528472067e-01   9.9999999999591593e-01   6.6900011969210005e-01   6.8836738992063295e-01   0.0000000000000000e+00   0.0000000000000000e+00   0.0000000000000000e+00   0.0000000000000000e+00   0.0000000000000000e+00   0.0000000000000000e+00   0.0000000000000000e+00   0.0000000000000000e+00   0.0000000000000000e+00   0.0000000000000000e+00   0.0000000000000000e+00   0.0000000000000000e+00   0.0000000000000000e+00   0.0000000000000000e+00   0.0000000000000000e+00   0.0000000000000000e+00   0.0000000000000000e+00   0.0000000000000000e+00   0.0000000000000000e+00   0.0000000000000000e+00   0.0000000000000000e+00   0.0000000000000000e+00   0.0000000000000000e+00   0.0000000000000000e+00   0.0000000000000000e+00   0.0000000000000000e+00   0.0000000000000000e+00   0.0000000000000000e+00   0.0000000000000000e+00   0.0000000000000000e+00   0.0000000000000000e+00   0.0000000000000000e+00   0.0000000000000000e+00   0.0000000000000000e+00   0.0000000000000000e+00   0.0000000000000000e+00   0.0000000000000000e+00   0.0000000000000000e+00   0.0000000000000000e+00   0.0000000000000000e+00   0.0000000000000000e+00   0.0000000000000000e+00   0.0000000000000000e+00   0.0000000000000000e+00   0.0000000000000000e+00   0.0000000000000000e+00   0.0000000000000000e+00   0.0000000000000000e+00   0.0000000000000000e+00   0.0000000000000000e+00   0.0000000000000000e+00   0.0000000000000000e+00   0.0000000000000000e+00   0.0000000000000000e+00   0.0000000000000000e+00   0.0000000000000000e+00   0.0000000000000000e+00   0.0000000000000000e+00   0.0000000000000000e+00   0.0000000000000000e+00   0.0000000000000000e+00   0.0000000000000000e+00   0.0000000000000000e+00   0.0000000000000000e+00   0.0000000000000000e+00   0.0000000000000000e+00   0.0000000000000000e+00   0.0000000000000000e+00   0.0000000000000000e+00   0.0000000000000000e+00   0.0000000000000000e+00   0.0000000000000000e+00   0.0000000000000000e+00   0.0000000000000000e+00   0.0000000000000000e+00   0.0000000000000000e+00   0.0000000000000000e+00   0.0000000000000000e+00   0.0000000000000000e+00   0.0000000000000000e+00   0.0000000000000000e+00   0.0000000000000000e+00   0.0000000000000000e+00   0.0000000000000000e+00   0.0000000000000000e+00   0.0000000000000000e+00   0.0000000000000000e+00   0.0000000000000000e+00   0.0000000000000000e+00   0.0000000000000000e+00   0.0000000000000000e+00   0.0000000000000000e+00   0.0000000000000000e+00   0.0000000000000000e+00   0.0000000000000000e+00   0.0000000000000000e+00   0.0000000000000000e+00   0.0000000000000000e+00   0.0000000000000000e+00   0.0000000000000000e+00   0.0000000000000000e+00   0.0000000000000000e+00   0.0000000000000000e+00   0.0000000000000000e+00   0.0000000000000000e+00   0.0000000000000000e+00   0.0000000000000000e+00   0.0000000000000000e+00   0.0000000000000000e+00   0.0000000000000000e+00   0.0000000000000000e+00   0.0000000000000000e+00   0.0000000000000000e+00   0.0000000000000000e+00   0.0000000000000000e+00   0.0000000000000000e+00   0.0000000000000000e+00   0.0000000000000000e+00   0.0000000000000000e+00   0.0000000000000000e+00   0.0000000000000000e+00   0.0000000000000000e+00   0.0000000000000000e+00   0.0000000000000000e+00   0.0000000000000000e+00   0.0000000000000000e+00   0.0000000000000000e+00   0.0000000000000000e+00   0.0000000000000000e+00   0.0000000000000000e+00   0.0000000000000000e+00   0.0000000000000000e+00   0.0000000000000000e+00   0.0000000000000000e+00   0.0000000000000000e+00   0.0000000000000000e+00   0.0000000000000000e+00   0.0000000000000000e+00   0.0000000000000000e+00   0.0000000000000000e+00   0.0000000000000000e+00   0.0000000000000000e+00   0.0000000000000000e+00   2.3974400474117509e-08   1.2550070655324243e-05   6.6666666652202144e-01   0.0000000000000000e+00   0.0000000000000000e+00   0.0000000000000000e+00   0.0000000000000000e+00   0.0000000000000000e+00   0.0000000000000000e+00   0.0000000000000000e+00   0.0000000000000000e+00   0.0000000000000000e+00   0.0000000000000000e+00   0.0000000000000000e+00   0.0000000000000000e+00   0.0000000000000000e+00   0.0000000000000000e+00   0.0000000000000000e+00   2.4242935054183186e-02   1.2063289411732457e-01   6.6666667014925485e-01   6.6666667683633707e-01   1.0000000000000000e+00   1.0000000000000000e+00   0.0000000000000000e+00   0.0000000000000000e+00   0.0000000000000000e+00   0.0000000000000000e+00   0.0000000000000000e+00   0.0000000000000000e+00   0.0000000000000000e+00   0.0000000000000000e+00   0.0000000000000000e+00   0.0000000000000000e+00   0.0000000000000000e+00   1.6657961586855388e-01   1.6686802259989952e-01   6.6667193250683476e-01   6.6667815719867307e-01   1.0000000000000000e+00   1.0000000000000000e+00   6.6666680463348049e-01   6.6666674479910759e-01   0.0000000000000000e+00   0.0000000000000000e+00   0.0000000000000000e+00   0.0000000000000000e+00   0.0000000000000000e+00   0.0000000000000000e+00   0.0000000000000000e+00   3.3332975028500661e-01   3.3334126000329073e-01   8.0244831905548797e-01   9.6583133420008793e-01   9.9999999999999989e-01   9.9999999999999989e-01   6.6666666666653396e-01   6.6452506402598122e-01   1.7768553985094320e-03   2.7010642055134520e-05   0.0000000000000000e+00   0.0000000000000000e+00   0.0000000000000000e+00   3.3343471546083775e-01   3.3333330433388042e-01   9.9999999975121057e-01   9.9999999996368027e-01   9.9999999999999889e-01   9.9999999999999967e-01   5.0088958037729570e-01   4.9999808070990426e-01   8.1416355139178123e-16   0.0000000000000000e+00   0.0000000000000000e+00   0.0000000000000000e+00   0.0000000000000000e+00   0.0000000000000000e+00   6.7347337492841719e-01   5.3661835629371735e-01   9.9999999999999989e-01   9.9999999999999989e-01   5.0007428126847941e-01   6.6666666520589823e-01   0.0000000000000000e+00   0.0000000000000000e+00   0.0000000000000000e+00   0.0000000000000000e+00   0.0000000000000000e+00   0.0000000000000000e+00   3.2718030286630911e-01   1.0000000000000000e+00   9.9999999999999956e-01   9.9999999999999989e-01   9.9999999999999989e-01   2.6017294775234714e-03   6.6663143260958324e-01   0.0000000000000000e+00   0.0000000000000000e+00   0.0000000000000000e+00   0.0000000000000000e+00   0.0000000000000000e+00   0.0000000000000000e+00   1.0000000000000000e+00   1.0000000000000000e+00   9.9999999999999989e-01   9.9999999999999989e-01   6.6666291192273730e-01   9.9999999999999989e-01   0.0000000000000000e+00   4.9056607415487757e-01   0.0000000000000000e+00   3.5314649352950291e-11   0.0000000000000000e+00   4.9034850254277750e-16   1.0000000000000000e+00   9.9999999999999989e-01   9.9999999999999989e-01   9.9999999999999989e-01   9.9999999999999989e-01   9.9999999999993161e-01   9.9999999999999989e-01   9.9765958423339174e-01   1.0000000000000000e+00   8.8844279477858346e-01   9.9999999999998057e-01   </DataArray> 
</CellData> 
</Piece>
</UnstructuredGrid>
</VTKFile>