<?xml version="1.0"?>
<VTKFile type="UnstructuredGrid"  version="0.1"  >
<UnstructuredGrid>
<Piece  NumberOfPoints="639" NumberOfCells="1174">
<Points>
<DataArray  type="Float64"  NumberOfComponents="3"  format="ascii">1.024347826086957 0 0  1.040869565217391 0 0  1.040869565217391 0.01666666666666667 0  1.024347826086957 0.01666666666666667 0  1.057391304347826 0 0  1.057391304347826 0.01666666666666667 0  1.073913043478261 0 0  1.073913043478261 0.01666666666666667 0  1.090434782608696 0 0  1.090434782608696 0.01666666666666667 0  1.10695652173913 0 0  1.10695652173913 0.01666666666666667 0  1.123478260869565 0 0  1.123478260869565 0.01666666666666667 0  1.14 0 0  1.14 0.01666666666666667 0  1.156521739130435 0 0  1.156521739130435 0.01666666666666667 0  1.17304347826087 0 0  1.17304347826087 0.01666666666666667 0  1.189565217391304 0 0  1.189565217391304 0.01666666666666667 0  1.206086956521739 0 0  1.206086956521739 0.01666666666666667 0  1.222608695652174 0 0  1.222608695652174 0.01666666666666667 0  1.239130434782609 0 0  1.239130434782609 0.01666666666666667 0  1.255652173913044 0 0  1.255652173913044 0.01666666666666667 0  1.272173913043478 0 0  1.272173913043478 0.01666666666666667 0  1.288695652173913 0 0  1.288695652173913 0.01666666666666667 0  1.305217391304348 0 0  1.305217391304348 0.01666666666666667 0  1.321739130434783 0 0  1.321739130434783 0.01666666666666667 0  1.338260869565217 0.01666666666666667 0  1.040869565217391 0.03333333333333333 0  1.057391304347826 0.03333333333333333 0  1.073913043478261 0.03333333333333333 0  1.090434782608696 0.03333333333333333 0  1.10695652173913 0.03333333333333333 0  1.123478260869565 0.03333333333333333 0  1.14 0.03333333333333333 0  1.156521739130435 0.03333333333333333 0  1.17304347826087 0.03333333333333333 0  1.189565217391304 0.03333333333333333 0  1.206086956521739 0.03333333333333333 0  1.222608695652174 0.03333333333333333 0  1.239130434782609 0.03333333333333333 0  1.255652173913044 0.03333333333333333 0  1.272173913043478 0.03333333333333333 0  1.288695652173913 0.03333333333333333 0  1.305217391304348 0.03333333333333333 0  1.321739130434783 0.03333333333333333 0  1.338260869565217 0.03333333333333333 0  1.354782608695652 0.03333333333333333 0  1.057391304347826 0.05 0  1.073913043478261 0.05 0  1.090434782608696 0.05 0  1.10695652173913 0.05 0  1.123478260869565 0.05 0  1.14 0.05 0  1.156521739130435 0.05 0  1.17304347826087 0.05 0  1.189565217391304 0.05 0  1.206086956521739 0.05 0  1.222608695652174 0.05 0  1.239130434782609 0.05 0  1.255652173913044 0.05 0  1.272173913043478 0.05 0  1.288695652173913 0.05 0  1.305217391304348 0.05 0  1.321739130434783 0.05 0  1.338260869565217 0.05 0  1.354782608695652 0.05 0  1.371304347826087 0.05 0  1.073913043478261 0.06666666666666667 0  1.090434782608696 0.06666666666666667 0  1.10695652173913 0.06666666666666667 0  1.123478260869565 0.06666666666666667 0  1.14 0.06666666666666667 0  1.156521739130435 0.06666666666666667 0  1.17304347826087 0.06666666666666667 0  1.189565217391304 0.06666666666666667 0  1.206086956521739 0.06666666666666667 0  1.222608695652174 0.06666666666666667 0  1.239130434782609 0.06666666666666667 0  1.255652173913044 0.06666666666666667 0  1.272173913043478 0.06666666666666667 0  1.288695652173913 0.06666666666666667 0  1.305217391304348 0.06666666666666667 0  1.321739130434783 0.06666666666666667 0  1.338260869565217 0.06666666666666667 0  1.354782608695652 0.06666666666666667 0  1.371304347826087 0.06666666666666667 0  1.387826086956522 0.06666666666666667 0  1.090434782608696 0.08333333333333333 0  1.10695652173913 0.08333333333333333 0  1.123478260869565 0.08333333333333333 0  1.14 0.08333333333333333 0  1.156521739130435 0.08333333333333333 0  1.17304347826087 0.08333333333333333 0  1.189565217391304 0.08333333333333333 0  1.206086956521739 0.08333333333333333 0  1.222608695652174 0.08333333333333333 0  1.239130434782609 0.08333333333333333 0  1.255652173913044 0.08333333333333333 0  1.272173913043478 0.08333333333333333 0  1.288695652173913 0.08333333333333333 0  1.305217391304348 0.08333333333333333 0  1.321739130434783 0.08333333333333333 0  1.338260869565217 0.08333333333333333 0  1.354782608695652 0.08333333333333333 0  1.371304347826087 0.08333333333333333 0  1.387826086956522 0.08333333333333333 0  1.404347826086957 0.08333333333333333 0  1.10695652173913 0.1 0  1.123478260869565 0.1 0  1.14 0.1 0  1.156521739130435 0.1 0  1.17304347826087 0.1 0  1.189565217391304 0.1 0  1.206086956521739 0.1 0  1.222608695652174 0.1 0  1.239130434782609 0.1 0  1.255652173913044 0.1 0  1.272173913043478 0.1 0  1.288695652173913 0.1 0  1.305217391304348 0.1 0  1.321739130434783 0.1 0  1.338260869565217 0.1 0  1.354782608695652 0.1 0  1.371304347826087 0.1 0  1.387826086956522 0.1 0  1.404347826086957 0.1 0  1.420869565217391 0.1 0  1.123478260869565 0.1166666666666667 0  1.14 0.1166666666666667 0  1.156521739130435 0.1166666666666667 0  1.17304347826087 0.1166666666666667 0  1.189565217391304 0.1166666666666667 0  1.206086956521739 0.1166666666666667 0  1.222608695652174 0.1166666666666667 0  1.239130434782609 0.1166666666666667 0  1.255652173913044 0.1166666666666667 0  1.272173913043478 0.1166666666666667 0  1.288695652173913 0.1166666666666667 0  1.305217391304348 0.1166666666666667 0  1.321739130434783 0.1166666666666667 0  1.338260869565217 0.1166666666666667 0  1.354782608695652 0.1166666666666667 0  1.371304347826087 0.1166666666666667 0  1.387826086956522 0.1166666666666667 0  1.404347826086957 0.1166666666666667 0  1.420869565217391 0.1166666666666667 0  1.437391304347826 0.1166666666666667 0  1.14 0.1333333333333333 0  1.156521739130435 0.1333333333333333 0  1.17304347826087 0.1333333333333333 0  1.189565217391304 0.1333333333333333 0  1.206086956521739 0.1333333333333333 0  1.222608695652174 0.1333333333333333 0  1.239130434782609 0.1333333333333333 0  1.255652173913044 0.1333333333333333 0  1.272173913043478 0.1333333333333333 0  1.288695652173913 0.1333333333333333 0  1.305217391304348 0.1333333333333333 0  1.321739130434783 0.1333333333333333 0  1.338260869565217 0.1333333333333333 0  1.354782608695652 0.1333333333333333 0  1.371304347826087 0.1333333333333333 0  1.387826086956522 0.1333333333333333 0  1.404347826086957 0.1333333333333333 0  1.420869565217391 0.1333333333333333 0  1.437391304347826 0.1333333333333333 0  1.453913043478261 0.1333333333333333 0  1.156521739130435 0.15 0  1.17304347826087 0.15 0  1.189565217391304 0.15 0  1.206086956521739 0.15 0  1.222608695652174 0.15 0  1.239130434782609 0.15 0  1.255652173913044 0.15 0  1.272173913043478 0.15 0  1.288695652173913 0.15 0  1.305217391304348 0.15 0  1.321739130434783 0.15 0  1.338260869565217 0.15 0  1.354782608695652 0.15 0  1.371304347826087 0.15 0  1.387826086956522 0.15 0  1.404347826086957 0.15 0  1.420869565217391 0.15 0  1.437391304347826 0.15 0  1.453913043478261 0.15 0  1.470434782608696 0.15 0  1.17304347826087 0.1666666666666667 0  1.189565217391304 0.1666666666666667 0  1.206086956521739 0.1666666666666667 0  1.222608695652174 0.1666666666666667 0  1.239130434782609 0.1666666666666667 0  1.255652173913044 0.1666666666666667 0  1.272173913043478 0.1666666666666667 0  1.288695652173913 0.1666666666666667 0  1.305217391304348 0.1666666666666667 0  1.321739130434783 0.1666666666666667 0  1.338260869565217 0.1666666666666667 0  1.354782608695652 0.1666666666666667 0  1.371304347826087 0.1666666666666667 0  1.387826086956522 0.1666666666666667 0  1.404347826086957 0.1666666666666667 0  1.420869565217391 0.1666666666666667 0  1.437391304347826 0.1666666666666667 0  1.453913043478261 0.1666666666666667 0  1.470434782608696 0.1666666666666667 0  1.486956521739131 0.1666666666666667 0  1.189565217391304 0.1833333333333333 0  1.206086956521739 0.1833333333333333 0  1.222608695652174 0.1833333333333333 0  1.239130434782609 0.1833333333333333 0  1.255652173913044 0.1833333333333333 0  1.272173913043478 0.1833333333333333 0  1.288695652173913 0.1833333333333333 0  1.305217391304348 0.1833333333333333 0  1.321739130434783 0.1833333333333333 0  1.338260869565217 0.1833333333333333 0  1.354782608695652 0.1833333333333333 0  1.371304347826087 0.1833333333333333 0  1.387826086956522 0.1833333333333333 0  1.404347826086957 0.1833333333333333 0  1.420869565217391 0.1833333333333333 0  1.437391304347826 0.1833333333333333 0  1.453913043478261 0.1833333333333333 0  1.470434782608696 0.1833333333333333 0  1.486956521739131 0.1833333333333333 0  1.503478260869565 0.1833333333333333 0  1.206086956521739 0.2 0  1.222608695652174 0.2 0  1.239130434782609 0.2 0  1.255652173913044 0.2 0  1.272173913043478 0.2 0  1.288695652173913 0.2 0  1.305217391304348 0.2 0  1.321739130434783 0.2 0  1.338260869565217 0.2 0  1.354782608695652 0.2 0  1.371304347826087 0.2 0  1.387826086956522 0.2 0  1.404347826086957 0.2 0  1.420869565217391 0.2 0  1.437391304347826 0.2 0  1.453913043478261 0.2 0  1.470434782608696 0.2 0  1.486956521739131 0.2 0  1.503478260869565 0.2 0  1.52 0.2 0  1.222608695652174 0.2166666666666667 0  1.239130434782609 0.2166666666666667 0  1.255652173913044 0.2166666666666667 0  1.272173913043478 0.2166666666666667 0  1.288695652173913 0.2166666666666667 0  1.305217391304348 0.2166666666666667 0  1.321739130434783 0.2166666666666667 0  1.338260869565217 0.2166666666666667 0  1.354782608695652 0.2166666666666667 0  1.371304347826087 0.2166666666666667 0  1.387826086956522 0.2166666666666667 0  1.404347826086957 0.2166666666666667 0  1.420869565217391 0.2166666666666667 0  1.437391304347826 0.2166666666666667 0  1.453913043478261 0.2166666666666667 0  1.470434782608696 0.2166666666666667 0  1.486956521739131 0.2166666666666667 0  1.503478260869565 0.2166666666666667 0  1.52 0.2166666666666667 0  1.536521739130435 0.2166666666666667 0  1.239130434782609 0.2333333333333333 0  1.255652173913044 0.2333333333333333 0  1.272173913043478 0.2333333333333333 0  1.288695652173913 0.2333333333333333 0  1.305217391304348 0.23333
[...]
<PointData  Vectors="Displacement"> 
<DataArray  type="Float64"  Name="Displacement"  NumberOfComponents="3" format="ascii">1.6216146438593877e-04 1.4176626769831699e-03 0.0000000000000000e+00  1.6469659601687755e-04 1.4451391591963373e-03 0.0000000000000000e+00  1.3668242892608709e-04 1.4443915131523834e-03 0.0000000000000000e+00  1.3478095935445656e-04 1.4169204535090199e-03 0.0000000000000000e+00  1.6722264938496344e-04 1.4732462884751501e-03 0.0000000000000000e+00  1.3860544246573907e-04 1.4724910138962611e-03 0.0000000000000000e+00  1.6973054998451129e-04 1.5019474277419458e-03 0.0000000000000000e+00  1.4056517800777000e-04 1.5011836484119109e-03 0.0000000000000000e+00  1.7220829274661013e-04 1.5311753404159913e-03 0.0000000000000000e+00  1.4257825335036096e-04 1.5304041463654475e-03 0.0000000000000000e+00  1.7464441418696611e-04 1.5608300758550397e-03 0.0000000000000000e+00  1.4465822585489220e-04 1.5600525637783453e-03 0.0000000000000000e+00  1.7703089041342616e-04 1.5907908781792304e-03 0.0000000000000000e+00  1.4681404517997063e-04 1.5900057263872206e-03 0.0000000000000000e+00  1.7936061177888487e-04 1.6209276539112930e-03 0.0000000000000000e+00  1.4905479715962146e-04 1.6201331854280774e-03 0.0000000000000000e+00  1.8162423470693254e-04 1.6510876490545901e-03 0.0000000000000000e+00  1.5139581823976590e-04 1.6502865512310239e-03 0.0000000000000000e+00  1.8382135418250811e-04 1.6810710634420710e-03 0.0000000000000000e+00  1.5385743691934343e-04 1.6802639058792377e-03 0.0000000000000000e+00  1.8597617074410898e-04 1.7106565333633048e-03 0.0000000000000000e+00  1.5646130536811918e-04 1.7098318568945113e-03 0.0000000000000000e+00  1.8812224403035792e-04 1.7396627816583061e-03 0.0000000000000000e+00  1.5922611313823660e-04 1.7388134405249009e-03 0.0000000000000000e+00  1.9027815997640782e-04 1.7679546344859924e-03 0.0000000000000000e+00  1.6214244483102571e-04 1.7670861406479388e-03 0.0000000000000000e+00  1.9244678248120977e-04 1.7954316196654172e-03 0.0000000000000000e+00  1.6516845226223966e-04 1.7945505382667565e-03 0.0000000000000000e+00  1.9462519361370306e-04 1.8220231282387973e-03 0.0000000000000000e+00  1.6826649537030541e-04 1.8211341301826445e-03 0.0000000000000000e+00  1.9680892726988764e-04 1.8476802377113556e-03 0.0000000000000000e+00  1.7141082604455363e-04 1.8467883877711939e-03 0.0000000000000000e+00  1.9899258283515429e-04 1.8723725556472925e-03 0.0000000000000000e+00  1.7457642341633535e-04 1.8714833776902102e-03 0.0000000000000000e+00  2.0117076391711582e-04 1.8960899298650856e-03 0.0000000000000000e+00  1.7773649467560994e-04 1.8952080478121241e-03 0.0000000000000000e+00  2.0333924758231776e-04 1.9188422751966288e-03 0.0000000000000000e+00  1.8086760716428242e-04 1.9179707040221591e-03 0.0000000000000000e+00  1.8395348094334333e-04 1.9397959718149410e-03 0.0000000000000000e+00  1.0866478966699858e-04 1.4438409299552749e-03 0.0000000000000000e+00  1.0995697951379819e-04 1.4719165709135083e-03 0.0000000000000000e+00  1.1132617167987969e-04 1.5005752659980867e-03 0.0000000000000000e+00  1.1282180862944340e-04 1.5297565764429279e-03 0.0000000000000000e+00  1.1449246513193743e-04 1.5593674033486237e-03 0.0000000000000000e+00  1.1636056649753897e-04 1.5892858629790740e-03 0.0000000000000000e+00  1.1842542354620496e-04 1.6193767664759533e-03 0.0000000000000000e+00  1.2072481877363443e-04 1.6494904249725576e-03 0.0000000000000000e+00  1.2338448916428038e-04 1.6794289345361637e-03 0.0000000000000000e+00  1.2649192694349942e-04 1.7089523896622303e-03 0.0000000000000000e+00  1.2994920433190545e-04 1.7378790015632303e-03 0.0000000000000000e+00  1.3364279766345033e-04 1.7660984350861941e-03 0.0000000000000000e+00  1.3751236368712339e-04 1.7935240726761927e-03 0.0000000000000000e+00  1.4150982741912183e-04 1.8200822467640491e-03 0.0000000000000000e+00  1.4559488802508058e-04 1.8457204618851353e-03 0.0000000000000000e+00  1.4972736406784043e-04 1.8704085699948192e-03 0.0000000000000000e+00  1.5386341657737534e-04 1.8941359765497180e-03 0.0000000000000000e+00  1.5796181945201536e-04 1.9169095706444731e-03 0.0000000000000000e+00  1.6199110072069342e-04 1.9387513078150996e-03 0.0000000000000000e+00  1.6593050130190659e-04 1.9596946542038821e-03 0.0000000000000000e+00  1.0816323705317138e-04 1.4652029298515825e-03 0.0000000000000000e+00  1.1002373590094858e-04 1.4939625784373232e-03 0.0000000000000000e+00  1.1198381128337128e-04 1.5231915406782673e-03 0.0000000000000000e+00  1.1408089877618807e-04 1.5528016320394591e-03 0.0000000000000000e+00  1.1634681175606619e-04 1.5826841926751048e-03 0.0000000000000000e+00  1.1880858906957515e-04 1.6127111782099951e-03 0.0000000000000000e+00  1.2149812174638985e-04 1.6427277452475257e-03 0.0000000000000000e+00  1.2445288151231114e-04 1.6725487006507274e-03 0.0000000000000000e+00  1.2768795289301181e-04 1.7019944178159744e-03 0.0000000000000000e+00  1.3116961104478857e-04 1.7309345695313881e-03 0.0000000000000000e+00  1.3483846484172983e-04 1.7592568745486469e-03 0.0000000000000000e+00  1.3863912844849994e-04 1.7868608766921023e-03 0.0000000000000000e+00  1.4252348765348948e-04 1.8136668638411000e-03 0.0000000000000000e+00  1.4644750672725273e-04 1.8396150363753062e-03 0.0000000000000000e+00  1.5037071227583154e-04 1.8646659319997484e-03 0.0000000000000000e+00  1.5425676048709029e-04 1.8887974736034321e-03 0.0000000000000000e+00  1.5807582927120063e-04 1.9120009520370196e-03 0.0000000000000000e+00  1.6180846158727553e-04 1.9342779658958751e-03 0.0000000000000000e+00  1.6544978915614388e-04 1.9556368830095979e-03 0.0000000000000000e+00  1.6901487797721295e-04 1.9760848041547804e-03 0.0000000000000000e+00  1.0822056254533597e-04 1.4868772186967789e-03 0.0000000000000000e+00  1.1062143114842374e-04 1.5162034164500576e-03 0.0000000000000000e+00  1.1312807950485077e-04 1.5458739368061495e-03 0.0000000000000000e+00  1.1576966086082899e-04 1.5757856179306545e-03 0.0000000000000000e+00  1.1857202001521896e-04 1.6058169662986703e-03 0.0000000000000000e+00  1.2155683217987097e-04 1.6358254289422682e-03 0.0000000000000000e+00  1.2473657350290499e-04 1.6656525080452544e-03 0.0000000000000000e+00  1.2810551019106016e-04 1.6951490673857890e-03 0.0000000000000000e+00  1.3163760385154956e-04 1.7241963389335662e-03 0.0000000000000000e+00  1.3529526746541983e-04 1.7526886503977670e-03 0.0000000000000000e+00  1.3903580659628157e-04 1.7805278299040258e-03 0.0000000000000000e+00  1.4281584034980390e-04 1.8076307080525671e-03 0.0000000000000000e+00  1.4659419450639984e-04 1.8339311549321539e-03 0.0000000000000000e+00  1.5033361762762970e-04 1.8593796152881767e-03 0.0000000000000000e+00  1.5400286696499199e-04 1.8839406986284565e-03 0.0000000000000000e+00  1.5757897563453151e-04 1.9075896843436674e-03 0.0000000000000000e+00  1.6104977516756753e-04 1.9303091581300753e-03 0.0000000000000000e+00  1.6441666424715722e-04 1.9520851397770941e-03 0.0000000000000000e+00  1.6769706812683701e-04 1.9729005175117068e-03 0.0000000000000000e+00  1.7092484403642526e-04 1.9927250541994586e-03 0.0000000000000000e+00  1.0872169441204477e-04 1.5088225804638241e-03 0.0000000000000000e+00  1.1160841263362287e-04 1.5386116291344221e-03 0.0000000000000000e+00  1.1459293006864756e-04 1.5686196514050951e-03 0.0000000000000000e+00  1.1769518913225694e-04 1.5987329305118942e-03 0.0000000000000000e+00  1.2092861405045282e-04 1.6288229525081557e-03 0.0000000000000000e+00  1.2429604030776576e-04 1.6587528155615284e-03 0.0000000000000000e+00  1.2778635582726700e-04 1.6883925768088341e-03 0.0000000000000000e+00  1.3137629704421461e-04 1.7176298006467954e-03 0.0000000000000000e+00  1.3503568484055675e-04 1.7463624191810018e-03 0.0000000000000000e+00  1.3872975956639655e-04 1.7744956514934864e-03 0.0000000000000000e+00  1.4242126371055475e-04 1.8019453817493122e-03 0.0000000000000000e+00  1.4607354843954682e-04 1.8286401093665732e-03 0.0000000000000000e+00  1.4965337096390673e-04 1.8545209131263242e-03 0.0000000000000000e+00  1.5313341861111006e-04 1.8795396850847677e-03 0.0000000000000000e+00  1.5649455082483531e-04 1.9036564987532595e-03 0.0000000000000000e+00  1.5972768818484659e-04 1.9268368039751863e-03 0.0000000000000000e+00  1.6283522444264536e-04 1.9490482803620984e-03 0.0000000000000000e+00  1.6583132567181592e-04 1.9702566148172059e-03 0.0000000000000000e+00  1.6873975186116501e-04 1.9904206148854769e-03 0.0000000000000000e+00  1.7158771208475638e-04 2.0094899789187002e-03 0.0000000000000000e+00  1.0951072159111122e-04 1.5310431889607697e-03 0.0000000000000000e+00  1.1280530705298749e-04 1.5612132759592033e-03 0.0000000000000000e+00  1.1617439864058926e-04 1.5914831308803457e-03 0.0000000000000000e+00  1.1962576393627067e-04 1.6217364376395380e-03 0.0000000000000000e+00  1.2315790542164550e-04 1.6518519885376376e-03 0.0000000000000000e+00  1.2675876539568028e-04 1.6817128671405732e-03 0.0000000000000000e+00  1.3040753734077732e-04 1.7112121906373908e-03 0.0000000000000000e+00  1.3407792678146187e-04 1.7402507369392586e-03 0.0000000000000000e+00  1.3773981839780003e-04 1.7687357336231310e-03 0.0000000000000000e+00  1.4136076038607861e-04 1.7965822545426609e-03 0.0000000000000000e+00  1.4490833312050930e-04 1.8237142173046297e-03 0.0000000000000000e+00  1.4835280561466529e-04 1.8500643519935701e-03 0.0000000000000000e+00  1.5166965586319180e-04 1.8755730357053520e-03 0.0000000000000000e+00  1.5484170235058415e-04 1.9001865144689083e-03 0.0000000000000000e+00  1.5786066994512413e-04 1.9238550329416617e-03 0.0000000000000000e+00  1.6072793597163930e-04 1.9465309934687505e-03 0.0000000000000000e+00  1.6345390393777138e-04 1.9681671114159228e-03 0.0000000000000000e+00  1.6605518155102603e-04 1.9887151957670248e-03 0.0000000000000000e+00  1.6854913342293751e-04 2.0081274018110894e-03 0.0000000000000000e+00  1.7094687197228474e-04 2.0263621848707596e-03 0.0000000000000000e+00  1.1040322850844890e-04 1.5535891224105493e-03 0.0000000000000000e+00  1.1401012860560014e-04 1.5840845606588836e-03 0.0000000000000000e+00  1.1765501985919226e-04 1.6145743615461456e-03 0.0000000000000000e+00  1.2133450575806778e-04 1.6449486250366724e-03 0.0000000000000000e+00  1.2503705056041153e-04 1.6750997442518355e-03 0.0000000000000000e+00  1.2874422740756814e-04 1.7049258523754492e-03 0.0000000000000000e+00  1.3243273091573907e-04 1.7343304011213615e-03 0.0000000000000000e+00  1.3607575093012268e-04 1.7632218354380728e-03 0.0000000000000000e+00  1.3964432029860664e-04 1.7915141179600388e-03 0.0000000000000000e+00  1.4310922599405375e-04 1.8191270070119507e-03 0.0000000000000000e+00  1.4644329220094926e-04 1.8459858067950917e-03 0.0000000000000000e+00  1.4962370277453888e-04 1.8720205443849725e-03 0.0000000000000000e+00  1.5263403724456078e-04 1.8971648987273285e-03 0.0000000000000000e+00  1.5546575633546542e-04 1.9213553056593969e-03 0.0000000000000000e+00  1.5811883595490166e-04 1.9445305400042231e-03 0.0000000000000000e+00  1.6060105525589054e-04 1.9666320462503836e-03 0.0000000000000000e+00  1.6292531278690189e-04 1.9876054815938038e-03 0.0000000000000000e+00  1.6510485599772622e-04 2.0074039642679459e-03 0.0000000000000000e+00  1.6714777535498568e-04 2.0259930017579092e-03 0.0000000000000000e+00  1.6905293062561029e-04 2.0433563650399072e-03 0.0000000000000000e+00  1.1120208001522160e-04 1.5765507121942468e-03 0.0000000000000000e+00  1.1501820634577580e-04 1.6073426471947202e-03 0.0000000000000000e+00  1.1882921065864783e-04 1.6380407018650328e-03 0.0000000000000000e+00  1.2262479927183665e-04 1.6685441984288331e-03 0.0000000000000000e+00  1.2638896015241180e-04 1.6987556914210028e-03 0.0000000000000000e+00  1.3010114632061497e-04 1.7285812063410012e-03 0.0000000000000000e+00  1.3373732539665329e-04 1.7579301666826638e-03 0.0000000000000000e+00  1.3727117092882115e-04 1.7867154077805612e-03 0.0000000000000000e+00  1.4067569649482700e-04 1.8148529339981135e-03 0.0000000000000000e+00  1.4392527642682795e-04 1.8422613957568357e-03 0.0000000000000000e+00  1.4699783069601624e-04 1.8688613906183561e-03 0.0000000000000000e+00  1.4987686841330154e-04 1.8945748836588176e-03 0.0000000000000000e+00  1.5255309057486801e-04 1.9193251374193027e-03 0.0000000000000000e+00  1.5502526856038364e-04 1.9430375666744798e-03 0.0000000000000000e+00  1.5729998074252019e-04 1.9656420378703983e-03 0.0000000000000000e+00  1.5938949531847635e-04 1.9870769942434098e-03 0.0000000000000000e+00  1.6130737945201459e-04 2.0072946191997121e-03 0.0000000000000000e+00  1.6306310045600478e-04 2.0262646436066444e-03 0.0000000000000000e+00  1.6465826304195625e-04 2.0439769385213495e-03 0.0000000000000000e+00  1.6608244486416426e-04 2.0604498612261609e-03 0.0000000000000000e+00  1.1171182230535987e-04 1.6000469634863145e-03 0.0000000000000000e+00  1.1563772353740923e-04 1.6311271624979999e-03 0.0000000000000000e+00  1.1951627810460864e-04 1.6620389771909902e-03 0.0000000000000000e+00  1.2333413892499963e-04 1.6926888463966244e-03 0.0000000000000000e+00  1.2707360980357144e-04 1.7229853475171518e-03 0.0000000000000000e+00  1.3071330497141690e-04 1.7528390270281264e-03 0.0000000000000000e+00  1.3422908052612535e-04 1.7821619551162619e-03 0.0000000000000000e+00  1.3759543674485376e-04 1.8108669767234224e-03 0.0000000000000000e+00  1.4078740773885114e-04 1.8388668178184414e-03 0.0000000000000000e+00  1.4378278567421499e-04 1.8660733118687652e-03 0.0000000000000000e+00  1.4656437113484336e-04 1.8923970986604870e-03 0.0000000000000000e+00  1.4912187582203244e-04 1.9177481745452478e-03 0.0000000000000000e+00  1.5145317932911204e-04 1.9420377115400812e-03 0.0000000000000000e+00  1.5356470767292321e-04 1.9651820068330062e-03 0.0000000000000000e+00  1.5547031689815686e-04 1.9871095285529487e-03 0.0000000000000000e+00  1.5718757574527907e-04 2.0077692268988426e-03 0.0000000000000000e+00  1.5873198578571023e-04 2.0271340225846654e-03 0.0000000000000000e+00  1.6011057506854322e-04 2.0451985824886739e-03 0.0000000000000000e+00  1.6131238241493505e-04 2.0619941424946911e-03 0.0000000000000000e+00  1.6232392875858940e-04 2.0775604566626036e-03 0.0000000000000000e+00  1.1174835621472035e-04 1.6242090328242691e-03 0.0000000000000000e+00  1.1569683777648328e-04 1.6555793615175033e-03 0.0000000000000000e+00  1.1956199578909954e-04 1.6867150874167196e-03 0.0000000000000000e+00  1.2332939113121358e-04 1.7175274704360349e-03 0.0000000000000000e+00  1.2698049215030196e-04 1.7479286651961388e-03 0.0000000000000000e+00  1.3049321943105690e-04 1.7778307458047081e-03 0.0000000000000000e+00  1.3384307012977194e-04 1.8071443126912944e-03 0.0000000000000000e+00  1.3700495175356846e-04 1.8357769977740794e-03 0.0000000000000000e+00  1.3995566723273153e-04 1.8636323428427603e-03 0.0000000000000000e+00  1.4267671315927106e-04 1.8906095686304350e-03 0.0000000000000000e+00  1.4515679825912738e-04 1.9166046357554382e-03 0.0000000000000000e+00  1.4739352535612089e-04 1.9415128221351205e-03 0.0000000000000000e+00  1.4939385533844650e-04 1.9652337447463230e-03 0.0000000000000000e+00  1.5117355356766490e-04 1.9876812186671033e-03 0.0000000000000000e+00  1.5275585748988218e-04 2.0087969038406770e-03 0.0000000000000000e+00  1.5416807369671642e-04 2.0285555593021810e-03 0.0000000000000000e+00  1.5543329270210524e-04 2.0469609398428160e-03 0.0000000000000000e+00  1.5652936512061794e-04 2.0640700070783096e-03 0.0000000000000000e+00  1.5742779349435128e-04 2.0799038556562322e-03 0.0000000000000000e+00  1.5817984185542678e-04 2.0944870269888711e-03 0.0000000000000000e+00  1.1114301528697309e-04 1.6491640983787624e-03 0.0000000000000000e+00  1.1504445526265463e-04 1.6808275755239622e-03 0.0000000000000000e+00  1.1883605093597507e-04 1.7121951754996581e-03 0.0000000000000000e+00  1.2250273503173169e-04 1.7431815047076360e-03 0.0000000000000000e+00  1.2602477145219431e-04 1.7736999011274553e-03 0.0000000000000000e+00  1.2937844987776341e-04 1.8036601436819248e-03 0.0000000000000000e+00  1.3253781473031829e-04 1.8329659318131384e-03 0.0000000000000000e+00  1.3547760622176360e-04 1.8615129204769792e-03 0.0000000000000000e+00  1.3817714857462495e-04 1.8891882237713870e-03 0.0000000000000000e+00  1.4062426454050360e-04 1.9158720495594699e-03 0.0000000000000000e+00  1.4281786945219793e-04 1.9414413199166484e-03 0.0000000000000000e+00  1.4476774595699780e-04 1.9657761594117883e-03 0.0000000000000000e+00  1.4649003342097667e-04 1.9887710723196341e-03 0.0000000000000000e+00  1.4800698533642788e-04 2.0103519563600828e-03 0.0000000000000000e+00  1.4936108282398507e-04 2.0304874141236556e-03 0.0000000000000000e+00  1.5061246039138037e-04 2.0491876866000893e-03 0.0000000000000000e+00  1.5175490478521066e-04 2.0666124787417348e-03 0.0000000000000000e+00  1.5266401839184778e-04 2.0827239061353810e-03 0.0000000000000000e+00  1.5337924614522243e-04 2.0973514497184052e-03 0.0000000000000000e+00  1.5428606099660805e-04 2.1107886794506157e-03 0.0000000000000000e+00  1.0974305664508209e-04 1.6750239608062621e-03 0.0000000000000000e+00  1.1354895886960095e-04 1.7069799505786832e-03 0.0000000000000000e+00  1.1722992110890941e-04 1.7385827979769749e-03 0.0000000000000000e+00  1.2076936601385117e-04 1.7697489757652713e-03 0.0000000000000000e+00  1.2414461329850166e-04 1.8003896637928246e-03 0.0000000000000000e+00  1.2732822397383886e-04 1.8304065650894333e-03 0.0000000000000000e+00  1.3029133548105747e-04 1.8596881458743215e-03 0.0000000000000000e+00  1.3300929211236022e-04 1.8881080275311519e-03 0.0000000000000000e+00  1.3546851738983342e-04 1.9155270740658606e-03 0.0000000000000000e+00  1.3767226774684057e-04 1.9417991523382255e-03 0.0000000000000000e+00  1.3963988459522337e-04 1.9667815933955891e-03 0.0000000000000000e+00  1.4139403861016363e-04 1.9903542006194713e-03 0.0000000000000000e+00  1.4293492648875773e-04 2.0124225755778226e-03 0.0000000000000000e+00  1.4428635137461518e-04 2.0329097038314461e-03 0.0000000000000000e+00  1.4559234169590784e-04 2.0518122240067937e-03 0.0000000000000000e+00  1.4685901078753211e-04 2.0694716554508544e-03 0.0000000000000000e+00  1.4811238565446449e-04 2.0860965431528087e-03 0.0000000000000000e+00  1.4867762042868756e-04 2.1008228594809487e-03 0.0000000000000000e+00  1.4902138854110429e-04 2.1135356137129244e-03 0.0000000000000000e+00  1.5072473481208263e-04 2.1271916137184806e-03 0.0000000000000000e+00  1.0741109487315250e-04 1.7018786056348719e-03 0.0000000000000000e+00  1.1109715122827397e-04 1.7341218337956711e-03 0.0000000000000000e+00  1.1465546904853335e-04 1.7659597306004678e-03 0.0000000000000000e+00  1.1806536496026748e-04 1.7973082215864199e-03 0.0000000000000000e+00  1.2129780598135171e-04 1.8280704453806117e-03 0.0000000000000000e+00  1.2431843841829375e-04 1.8581296931203556e-03 0.0000000000000000e+00  1.2709486567262856e-04 1.8873444073132669e-03 0.0000000000000000e+00  1.2960905299982348e-04 1.9155494832412115e-03 0.0000000000000000e+00  1.3187111457194938e-04 1.9425642693227522e-03 0.0000000000000000e+00  1.3392505283927515e-04 1.9682150451643351e-03 0.0000000000000000e+00  1.3581828267848254e-04 1.9923739170702257e-03 0.0000000000000000e+00  1.3755451124941514e-04 2.0149907911032622e-03 0.0000000000000000e+00  1.3900559388286087e-04 2.0358732136553687e-03 0.0000000000000000e+00  1.4031120831173739e-04 2.0547676774000825e-03 0.0000000000000000e+00  1.4180010436345210e-04 2.0726048482920343e-03 0.0000000000000000e+00  1.4316377747133387e-04 2.0891982399735515e-03 0.0000000000000000e+00  1.4612214870068652e-04 2.1058953269013662e-03 0.0000000000000000e+00  1.4388906748053176e-04 2.1170377282545231e-03 0.0000000000000000e+00  1.4294525503265494e-04 2.1271611586811843e-03 0.0000000000000000e+00  1.4228080602605151e-04 2.1363367354281814e-03 0.0000000000000000e+00  1.0402446911726861e-04 1.7297938828643895e-03 0.0000000000000000e+00  1.0759309281117931e-04 1.7623176895542182e-03 0.0000000000000000e+00  1.1104265725960968e-04 1.7943920598691319e-03 0.0000000000000000e+00  1.1434354452422771e-04 1.8259271485568582e-03 0.0000000000000000e+00  1.1745494534287793e-04 1.8568063758100024e-03 0.0000000000000000e+