<?xml version="1.0"?>
<VTKFile type="UnstructuredGrid"  version="0.1"  >
<UnstructuredGrid>
<Piece  NumberOfPoints="608" NumberOfCells="1117">
<Points>
<DataArray  type="Float64"  NumberOfComponents="3"  format="ascii">0.08260869565217391 0 0  0.09913043478260869 0 0  0.09913043478260869 0.01666666666666667 0  0.1156521739130435 0 0  0.1156521739130435 0.01666666666666667 0  0.1321739130434783 0 0  0.1321739130434783 0.01666666666666667 0  0.148695652173913 0 0  0.148695652173913 0.01666666666666667 0  0.1652173913043478 0 0  0.1652173913043478 0.01666666666666667 0  0.1817391304347826 0 0  0.1817391304347826 0.01666666666666667 0  0.1982608695652174 0 0  0.1982608695652174 0.01666666666666667 0  0.2147826086956522 0 0  0.2147826086956522 0.01666666666666667 0  0.2313043478260869 0 0  0.2313043478260869 0.01666666666666667 0  0.2478260869565218 0 0  0.2478260869565218 0.01666666666666667 0  0.2643478260869565 0 0  0.2643478260869565 0.01666666666666667 0  0.2808695652173913 0 0  0.2808695652173913 0.01666666666666667 0  0.2973913043478261 0 0  0.2973913043478261 0.01666666666666667 0  0.3139130434782609 0 0  0.3139130434782609 0.01666666666666667 0  0.3304347826086956 0 0  0.3304347826086956 0.01666666666666667 0  0.3469565217391304 0 0  0.3469565217391304 0.01666666666666667 0  0.3634782608695652 0 0  0.3634782608695652 0.01666666666666667 0  0.3799999999999999 0 0  0.3799999999999999 0.01666666666666667 0  0.3965217391304348 0 0  0.3965217391304348 0.01666666666666667 0  0.4130434782608696 0 0  0.4130434782608696 0.01666666666666667 0  0.4295652173913043 0.01666666666666667 0  0.1156521739130435 0.03333333333333333 0  0.1321739130434783 0.03333333333333333 0  0.148695652173913 0.03333333333333333 0  0.1652173913043478 0.03333333333333333 0  0.1817391304347826 0.03333333333333333 0  0.1982608695652174 0.03333333333333333 0  0.2147826086956522 0.03333333333333333 0  0.2313043478260869 0.03333333333333333 0  0.2478260869565218 0.03333333333333333 0  0.2643478260869565 0.03333333333333333 0  0.2808695652173913 0.03333333333333333 0  0.2973913043478261 0.03333333333333333 0  0.3139130434782609 0.03333333333333333 0  0.3304347826086956 0.03333333333333333 0  0.3469565217391304 0.03333333333333333 0  0.3634782608695652 0.03333333333333333 0  0.3799999999999999 0.03333333333333333 0  0.3965217391304348 0.03333333333333333 0  0.4130434782608696 0.03333333333333333 0  0.4295652173913043 0.03333333333333333 0  0.4460869565217391 0.03333333333333333 0  0.1321739130434783 0.05 0  0.148695652173913 0.05 0  0.1652173913043478 0.05 0  0.1817391304347826 0.05 0  0.1982608695652174 0.05 0  0.2147826086956522 0.05 0  0.2313043478260869 0.05 0  0.2478260869565218 0.05 0  0.2643478260869565 0.05 0  0.2808695652173913 0.05 0  0.2973913043478261 0.05 0  0.3139130434782609 0.05 0  0.3304347826086956 0.05 0  0.3469565217391304 0.05 0  0.3634782608695652 0.05 0  0.3799999999999999 0.05 0  0.3965217391304348 0.05 0  0.4130434782608696 0.05 0  0.4295652173913043 0.05 0  0.4460869565217391 0.05 0  0.4626086956521739 0.05 0  0.148695652173913 0.06666666666666667 0  0.1652173913043478 0.06666666666666667 0  0.1817391304347826 0.06666666666666667 0  0.1982608695652174 0.06666666666666667 0  0.2147826086956522 0.06666666666666667 0  0.2313043478260869 0.06666666666666667 0  0.2478260869565218 0.06666666666666667 0  0.2643478260869565 0.06666666666666667 0  0.2808695652173913 0.06666666666666667 0  0.2973913043478261 0.06666666666666667 0  0.3139130434782609 0.06666666666666667 0  0.3304347826086956 0.06666666666666667 0  0.3469565217391304 0.06666666666666667 0  0.3634782608695652 0.06666666666666667 0  0.3799999999999999 0.06666666666666667 0  0.3965217391304348 0.06666666666666667 0  0.4130434782608696 0.06666666666666667 0  0.4295652173913043 0.06666666666666667 0  0.4460869565217391 0.06666666666666667 0  0.4626086956521739 0.06666666666666667 0  0.4791304347826086 0.06666666666666667 0  0.1652173913043478 0.08333333333333333 0  0.1817391304347826 0.08333333333333333 0  0.1982608695652174 0.08333333333333333 0  0.2147826086956522 0.08333333333333333 0  0.2313043478260869 0.08333333333333333 0  0.2478260869565218 0.08333333333333333 0  0.2643478260869565 0.08333333333333333 0  0.2808695652173913 0.08333333333333333 0  0.2973913043478261 0.08333333333333333 0  0.3139130434782609 0.08333333333333333 0  0.3304347826086956 0.08333333333333333 0  0.3469565217391304 0.08333333333333333 0  0.3634782608695652 0.08333333333333333 0  0.3799999999999999 0.08333333333333333 0  0.3965217391304348 0.08333333333333333 0  0.4130434782608696 0.08333333333333333 0  0.4295652173913043 0.08333333333333333 0  0.4460869565217391 0.08333333333333333 0  0.4626086956521739 0.08333333333333333 0  0.4791304347826086 0.08333333333333333 0  0.4956521739130435 0.08333333333333333 0  0.1817391304347826 0.1 0  0.1982608695652174 0.1 0  0.2147826086956522 0.1 0  0.2313043478260869 0.1 0  0.2478260869565218 0.1 0  0.2643478260869565 0.1 0  0.2808695652173913 0.1 0  0.2973913043478261 0.1 0  0.3139130434782609 0.1 0  0.3304347826086956 0.1 0  0.3469565217391304 0.1 0  0.3634782608695652 0.1 0  0.3799999999999999 0.1 0  0.3965217391304348 0.1 0  0.4130434782608696 0.1 0  0.4295652173913043 0.1 0  0.4460869565217391 0.1 0  0.4626086956521739 0.1 0  0.4791304347826086 0.1 0  0.4956521739130435 0.1 0  0.5121739130434783 0.1 0  0.1982608695652174 0.1166666666666667 0  0.2147826086956522 0.1166666666666667 0  0.2313043478260869 0.1166666666666667 0  0.2478260869565218 0.1166666666666667 0  0.2643478260869565 0.1166666666666667 0  0.2808695652173913 0.1166666666666667 0  0.2973913043478261 0.1166666666666667 0  0.3139130434782609 0.1166666666666667 0  0.3304347826086956 0.1166666666666667 0  0.3469565217391304 0.1166666666666667 0  0.3634782608695652 0.1166666666666667 0  0.3799999999999999 0.1166666666666667 0  0.3965217391304348 0.1166666666666667 0  0.4130434782608696 0.1166666666666667 0  0.4295652173913043 0.1166666666666667 0  0.4460869565217391 0.1166666666666667 0  0.4626086956521739 0.1166666666666667 0  0.4791304347826086 0.1166666666666667 0  0.4956521739130435 0.1166666666666667 0  0.5121739130434783 0.1166666666666667 0  0.528695652173913 0.1166666666666667 0  0.2147826086956522 0.1333333333333333 0  0.2313043478260869 0.1333333333333333 0  0.2478260869565218 0.1333333333333333 0  0.2643478260869565 0.1333333333333333 0  0.2808695652173913 0.1333333333333333 0  0.2973913043478261 0.1333333333333333 0  0.3139130434782609 0.1333333333333333 0  0.3304347826086956 0.1333333333333333 0  0.3469565217391304 0.1333333333333333 0  0.3634782608695652 0.1333333333333333 0  0.3799999999999999 0.1333333333333333 0  0.3965217391304348 0.1333333333333333 0  0.4130434782608696 0.1333333333333333 0  0.4295652173913043 0.1333333333333333 0  0.4460869565217391 0.1333333333333333 0  0.4626086956521739 0.1333333333333333 0  0.4791304347826086 0.1333333333333333 0  0.4956521739130435 0.1333333333333333 0  0.5121739130434783 0.1333333333333333 0  0.528695652173913 0.1333333333333333 0  0.5452173913043478 0.1333333333333333 0  0.2313043478260869 0.15 0  0.2478260869565218 0.15 0  0.2643478260869565 0.15 0  0.2808695652173913 0.15 0  0.2973913043478261 0.15 0  0.3139130434782609 0.15 0  0.3304347826086956 0.15 0  0.3469565217391304 0.15 0  0.3634782608695652 0.15 0  0.3799999999999999 0.15 0  0.3965217391304348 0.15 0  0.4130434782608696 0.15 0  0.4295652173913043 0.15 0  0.4460869565217391 0.15 0  0.4626086956521739 0.15 0  0.4791304347826086 0.15 0  0.4956521739130435 0.15 0  0.5121739130434783 0.15 0  0.528695652173913 0.15 0  0.5452173913043478 0.15 0  0.5617391304347825 0.15 0  0.2478260869565218 0.1666666666666667 0  0.2643478260869565 0.1666666666666667 0  0.2808695652173913 0.1666666666666667 0  0.2973913043478261 0.1666666666666667 0  0.3139130434782609 0.1666666666666667 0  0.3304347826086956 0.1666666666666667 0  0.3469565217391304 0.1666666666666667 0  0.3634782608695652 0.1666666666666667 0  0.3799999999999999 0.1666666666666667 0  0.3965217391304348 0.1666666666666667 0  0.4130434782608696 0.1666666666666667 0  0.4295652173913043 0.1666666666666667 0  0.4460869565217391 0.1666666666666667 0  0.4626086956521739 0.1666666666666667 0  0.4791304347826086 0.1666666666666667 0  0.4956521739130435 0.1666666666666667 0  0.5121739130434783 0.1666666666666667 0  0.528695652173913 0.1666666666666667 0  0.5452173913043478 0.1666666666666667 0  0.5617391304347825 0.1666666666666667 0  0.5782608695652174 0.1666666666666667 0  0.2643478260869565 0.1833333333333333 0  0.2808695652173913 0.1833333333333333 0  0.2973913043478261 0.1833333333333333 0  0.3139130434782609 0.1833333333333333 0  0.3304347826086956 0.1833333333333333 0  0.3469565217391304 0.1833333333333333 0  0.3634782608695652 0.1833333333333333 0  0.3799999999999999 0.1833333333333333 0  0.3965217391304348 0.1833333333333333 0  0.4130434782608696 0.1833333333333333 0  0.4295652173913043 0.1833333333333333 0  0.4460869565217391 0.1833333333333333 0  0.4626086956521739 0.1833333333333333 0  0.4791304347826086 0.1833333333333333 0  0.4956521739130435 0.1833333333333333 0  0.5121739130434783 0.1833333333333333 0  0.528695652173913 0.1833333333333333 0  0.5452173913043478 0.1833333333333333 0  0.5617391304347825 0.1833333333333333 0  0.5782608695652174 0.1833333333333333 0  0.2808695652173913 0.2 0  0.2973913043478261 0.2 0  0.3139130434782609 0.2 0  0.3304347826086956 0.2 0  0.3469565217391304 0.2 0  0.3634782608695652 0.2 0  0.3799999999999999 0.2 0  0.3965217391304348 0.2 0  0.4130434782608696 0.2 0  0.4295652173913043 0.2 0  0.4460869565217391 0.2 0  0.4626086956521739 0.2 0  0.4791304347826086 0.2 0  0.4956521739130435 0.2 0  0.5121739130434783 0.2 0  0.528695652173913 0.2 0  0.5452173913043478 0.2 0  0.5617391304347825 0.2 0  0.5782608695652174 0.2 0  0.2973913043478261 0.2166666666666667 0  0.3139130434782609 0.2166666666666667 0  0.3304347826086956 0.2166666666666667 0  0.3469565217391304 0.2166666666666667 0  0.36347826086956
[...]
<CellData  Scalars="rho_bar"> 
<DataArray  type="Float64"  Name="rho_bar"  format="ascii">9.9996130136775974e-01   9.9994610307686793e-01   9.9994295770833153e-01   9.9992239945189842e-01   9.9991773636835124e-01   9.9988576420020581e-01   9.9987811182233821e-01   9.9983022753339224e-01   9.9981679241462684e-01   9.9974874499197031e-01   9.9972447820918320e-01   9.9963522220064349e-01   9.9959155363045371e-01   9.9948922229261450e-01   9.9941301672861538e-01   9.9932296333961523e-01   9.9919748695335031e-01   9.9916592183707020e-01   9.9897632734609754e-01   9.9905927434650532e-01   9.9880254079395692e-01   9.9903701837913372e-01   9.9873040762556875e-01   9.9910552229006377e-01   9.9878416864147213e-01   9.9924011957973990e-01   9.9894249627002818e-01   9.9940158253449674e-01   9.9915403150335469e-01   9.9955631122371991e-01   9.9936747875459719e-01   9.9968582070669931e-01   9.9955093856549138e-01   9.9978513785775269e-01   9.9969334331136295e-01   9.9985697081290958e-01   9.9979673854700912e-01   9.9990676350192143e-01   9.9986840811341593e-01   9.9991628577037972e-01   9.9985388661573471e-01   9.9977261260305839e-01   9.9965703988995436e-01   9.9963626791220384e-01   9.9943480875877511e-01   9.9941131943184025e-01   9.9905151122108826e-01   9.9905145515958538e-01   9.9840706519208577e-01   9.9850465520711262e-01   9.9737019606496635e-01   9.9774187991404295e-01   9.9582048832138736e-01   9.9681353630204694e-01   9.9376541155077791e-01   9.9590027461376274e-01   9.9150259494640125e-01   9.9528662924832489e-01   9.8966544286348057e-01   9.9521028189459715e-01   9.8895852594059186e-01   9.9569109203140393e-01   9.8967375963086235e-01   9.9652404355635904e-01   9.9146799657805695e-01   9.9743475422610406e-01   9.9365217212343460e-01   9.9823053692672259e-01   9.9564660262776550e-01   9.9883802942556832e-01   9.9718686485649921e-01   9.9926423948029119e-01   9.9825868978157550e-01   9.9954751776305717e-01   9.9895747855877326e-01   9.9972862646101923e-01   9.9939362318735137e-01   9.9984045501593810e-01   9.9965623270877613e-01   9.9980863272116938e-01   9.9711837564214478e-01   9.9443374077320446e-01   9.8739488174465340e-01   9.8920674165880529e-01   9.7433175164969332e-01   9.7958539531191013e-01   9.4931565465217205e-01   9.6339916036330064e-01   9.0647367003782042e-01   9.3966140542783672e-01   8.4413813249307246e-01   9.1094347365184491e-01   7.7066222976065157e-01   8.8389043136697931e-01   7.0260553142504245e-01   8.6649609230305857e-01   6.5545542484832664e-01   8.6439224940606585e-01   6.3825928681044164e-01   8.7824338256165435e-01   6.5392274866481037e-01   9.0341176003265267e-01   6.9982443507532932e-01   9.3202551153163282e-01   7.6677151329891935e-01   9.5695836585131033e-01   8.3917397713396513e-01   9.7492628143778204e-01   9.0118272848601022e-01   9.8627459128506900e-01   9.4492470739185552e-01   9.9285083636459637e-01   9.7158519247825692e-01   9.9644071907636300e-01   9.8625378332471625e-01   9.9830091399061460e-01   9.9372626890471649e-01   9.9921432264398613e-01   9.9727833130049814e-01   9.9885669946330924e-01   7.7032196530827068e-01   6.5679198743818379e-01   3.8808093169419633e-01   5.3282082939367392e-01   2.7017007902922646e-01   4.0609496696980402e-01   1.7762286967085930e-01   2.9329385830608423e-01   1.1231992353175824e-01   2.0962863673499602e-01   7.1962309905590702e-02   1.5749790079461129e-01   4.9534714980648466e-02   1.3101075399316051e-01   3.8280811851241783e-02   1.2456803143562643e-01   3.4105707698917444e-02   1.3652433297043431e-01   3.5441705473962699e-02   1.6970083540417591e-01   4.2775758311993838e-02   2.3016859641773210e-01   5.8797016941955403e-02   3.2257375934906768e-01   8.8904918695437374e-02   4.4260124718234045e-01   1.4097758472099228e-01   5.7615110464548291e-01   2.2280363823967997e-01   7.0964017919703637e-01   3.3947088772396039e-01   8.3126150193914283e-01   4.9555975144749143e-01   9.2187655077405939e-01   6.8397520508588194e-01   9.7110526522238061e-01   8.5360676258891088e-01   9.9082256489546650e-01   9.5028843079094050e-01   9.8611484811720307e-01   2.9312675904921141e-02   1.4425212675568467e-02   5.1401535976954519e-03   7.6064327413631746e-03   2.7643669838747554e-03   4.3878252336205141e-03   1.6171931418215043e-03   2.8177481778387894e-03   1.0413585272259921e-03   2.0440944986441752e-03   7.4694143575478945e-04   1.6907502954659618e-03   6.0198317328771030e-04   1.6016857229840453e-03   5.4745133374453625e-04   1.7387800408838934e-03   5.6259974206105681e-04   2.1550389084519844e-03   6.5222787012553121e-04   3.0264159752690428e-03   8.4889105738989736e-04   4.7651662503984350e-03   1.2319855134535736e-03   8.3098970925844073e-03   1.9781604212899618e-03   1.5885108067448004e-02   3.4920832713114173e-03   3.3107965530739934e-02   6.7781790924758617e-03   7.4680950229558896e-02   1.4611087654427842e-02   1.7490340856587738e-01   3.5447848321936461e-02   3.7658336874197806e-01   9.5301774316281854e-02   6.5227724864461678e-01   2.5429910022579122e-01   8.8527546969357074e-01   5.5948841244646408e-01   8.6410963710258903e-01   2.6952380357838366e-04   1.7454887915127983e-04   8.4102065967504790e-05   1.2153309511036505e-04   5.9493590037604138e-05   9.1342483086594186e-05   4.5013118149203458e-05   7.4464911855696701e-05   3.6568109486331154e-05   6.6101829255101337e-05   3.2011590473679624e-05   6.4033905253643844e-05   3.0264207689446990e-05   6.7719591838092376e-05   3.0927946363116233e-05   7.8076746105771230e-05   3.4146425924127505e-05   9.7879995195323776e-05   4.0664329354684973e-05   1.3306546567466048e-04   5.2142689746461732e-05   1.9602435318452714e-04   7.1959852331429997e-05   3.1434924019861399e-04   1.0723590400738028e-04   5.5673920302955053e-04   1.7442957891276571e-04   1.1207583351879400e-03   3.1677657893033163e-04   2.6832758666490782e-03   6.6744092546749446e-04   8.0988153691182348e-03   1.7264539275310144e-03   3.2285075286116419e-02   5.8961399932124419e-03   1.5527000841111460e-01   2.8363777385188513e-02   5.4487440059703340e-01   1.7208248900379527e-01   6.2958997919587534e-01   1.4156779369598148e-05   1.1226211500445093e-05   6.8145327120665148e-06   9.3556017336616497e-06   5.7086889106855274e-06   8.2179610494361309e-06   5.0063279963924153e-06   7.6276396809376091e-06   4.6071224333555513e-06   7.4929866852885256e-06   4.4568782573200284e-06   7.7954902940250526e-06   4.5367432113301424e-06   8.5879346215236024e-06   4.8605386834313779e-06   1.0014113041899949e-05   5.4806028508439866e-06   1.2364453191772298e-05   6.5068831908821227e-06   1.6210231989286382e-05   8.1526555814149678e-06   2.2739289095376426e-05   1.0844604665375045e-05   3.4670187519310855e-05   1.5506515514801617e-05   5.9058668030765900e-05   2.4370666733350992e-05   1.1742634259971372e-04   4.3654091655611194e-05   2.9103940040531171e-04   9.4247055785569815e-05   9.8911804402996022e-04   2.6676395115200356e-04   5.2288145241431638e-03   1.1211143805128804e-03   4.6091077510428777e-02   8.2148850464484023e-03   3.7989661359677157e-01   1.0146723645838260e-01   6.1572574363417909e-01   2.2677059815565298e-06   2.0111414950167043e-06   1.4147640486259889e-06   1.8471929730140151e-06   1.2970125600056875e-06   1.7606575572906122e-06   1.2285235042906211e-06   1.7441132395093567e-06   1.2042365487066568e-06   1.7972349676672725e-06   1.2229769304428906e-06   1.9275111146414208e-06   1.2877244687100557e-06   2.1530163204544686e-06   1.4068541908440468e-06   2.5090528767593197e-06   1.5971265386083262e-06   3.0632456985859017e-06   1.8903338620370907e-06   3.9511787261514644e-06   2.3484286762124338e-06   5.4672443057870605e-06   3.1003125201769497e-06   8.3243027259838141e-06   4.4406884528151402e-06   1.4520604228197439e-05   7.1353134715184260e-06   3.0895985154468760e-05   1.3553768303004505e-05   8.8376577666956650e-05   3.3045893108223857e-05   3.9484532212719618e-04   1.1781714970743692e-04   3.3858905446970170e-03   7.5222648275723657e-04   5.7412307591575902e-02   1.0677251294587109e-02   5.3606384699563647e-01   2.0477874592552522e-01   7.9867192389607600e-01   6.7952666719358046e-07   6.4064224628872642e-07   4.9117095655262827e-07   6.2026309683960709e-07   4.7307822602457107e-07   6.1763915704423172e-07   4.6738146626078918e-07   6.3325158064634675e-07   4.7424443939461666e-07   6.6913536628319672e-07   4.9475122701326095e-07   7.2962429040755836e-07   5.3132050060054968e-07   8.2292170118281400e-07   5.8855800629321993e-07   9.6444952253361710e-07   6.7502154408941450e-07   1.1843341704226632e-06   8.0702558688105098e-07   1.5455457080311042e-06   1.0174538179811546e-06   2.1930547895411037e-06   1.3783258131282257e-06   3.5084780390556137e-06   2.0668501248668455e-06   6.7011159810218021e-06   3.5955178896365251e-06   1.6742772723067034e-05   7.8214182094392540e-06   6.3409849756334148e-05   2.4038634867438639e-05   4.5814135358512501e-04   1.2737252009048771e-04   8.0030717362338227e-03   1.5423240695411336e-03   1.9067939893128366e-01   4.1664022934451247e-02   7.9571544990300169e-01   5.1035289433996123e-01   9.2102321945386623e-01   2.8780590837834295e-07   2.8133079599206729e-07   2.2658243846988217e-07   2.8116669542567185e-07   2.2501863731610247e-07   2.8767850386455797e-07   2.2840013038556146e-07   3.0172068314137146e-07   2.3727130094120169e-07   3.2492921488219423e-07   2.5267508153234031e-07   3.6029220514305858e-07   2.7650251074399019e-07   4.1329794613830686e-07   3.1217461438345031e-07   4.9438801669185092e-07   3.6604864785479377e-07   6.2464213884388684e-07   4.5053586252659406e-07   8.5048610585418619e-07   5.9173990657727318e-07   1.2874472822442097e-06   8.5067419685599409e-07   2.2760475294619508e-06   1.3924543585609423e-06   5.0877020505502631e-06   2.7645453514117476e-06   1.6387894097700066e-05   7.3858046707431112e-06   9.4096825899689935e-05   3.1530226424446309e-05   1.2888212269802485e-03   2.8059266953783644e-04   3.9381924928944455e-02   6.4184134876477273e-03   5.0214044715265971e-01   1.7775245754396066e-01   9.1682130996217803e-01   7.8129839463764161e-01   9.5652572874144415e-01   1.4891213456391027e-07   1.4928267952912407e-07   1.2385531829799740e-07   1.5272875820924981e-07   1.2588331975305473e-07   1.5971997625887357e-07   1.3063327543694948e-07   1.7108901816654835e-07   1.3868514463498804e-07   1.8830066888887934e-07   1.5104486181688706e-07   2.1397079938678676e-07   1.6947822178891498e-07   2.5292997128239414e-07   1.9717035702814411e-07   3.1458843241521083e-07   2.4013160988074357e-07   4.1876761530090916e-07   3.1048281916882311e-07   6.1205743429553498e-07   4.3508480052379707e-07   1.0217827433688442e-06   6.8170244824826044e-07   2.0762528389162514e-06   1.2544229538113607e-06   5.7060022939198276e-06   2.9385607981517587e-06   2.5244156332811494e-05   1.0016401000543410e-05   2.3402094559602597e-04   6.1380975566186779e-05   5.4719405013797648e-03   8.7648474698887664e-04   1.5037710981997787e-01   2.6162418904489317e-02   7.3606508960754657e-01   3.9669597416942415e-01   9.4669707677482062e-01   8.7139167339284340e-01   8.7831866193888547e-08   8.9974823812021016e-08   7.6237553063425288e-08   9.4084407115067842e-08   7.9182799773360947e-08   1.0067054577008647e-07   8.4064907054465951e-08   1.1059951038855940e-07   9.1512169242599788e-08   1.2537225424432074e-07   1.0259387846494503e-07   1.4767265020475108e-07   1.1917918175745436e-07   1.8253582276765331e-07   1.4466962523665995e-07   2.4008421044309939e-07   1.8563002554380816e-07   3.4272190620104160e-07   2.5581385417559074e-07   5.4695966213536975e-07   3.8744395922444954e-07   1.0228863073853690e-06   6.6822907030005180e-07   2.4228604320332911e-06   1.3903791864297466e-06   8.2676032262188021e-06   3.8387288119973701e-06   4.9668958304657687e-05   1.6354593433574717e-05   6.6484913602831255e-04   1.3242698897199286e-04   1.7581777744946819e-02   2.3563621329422014e-03   2.8040755695007891e-01   6.0188339821740634e-02   8.0226480174804804e-01   5.0243480576243804e-01   5.7632930789221296e-08   6.0343787633288692e-08   5.2176560066038192e-08   6.4627788983406337e-08   5.5457974066070818e-08   7.1059761618193665e-08   6.0431188202720462e-08   8.0605998920987718e-08   6.7810606904003388e-08   9.4938434730138998e-08   7.8806144241014746e-08   1.1707331041690969e-07   9.5539724725966447e-08   1.5278746763942118e-07   1.2192466899121150e-07   2.1409295915031176e-07   1.6569987416417976e-07   3.2887915243599376e-07   2.4367506174787175e-07   5.7209112529935244e-07   3.9717678040095642e-07   1.1883859560293954e-06   7.4573415656072494e-07   3.2172854974683392e-06   1.7180495160238496e-06   1.3014152272235556e-05   5.3671270031021958e-06   9.4518041243608279e-05   2.6228548672521930e-05   1.3881271626425527e-03   2.3491184914514488e-04   2.9425814107712549e-02   3.9082721716891785e-03   3.0831306967441480e-01   7.2259007243323126e-02   4.2303117870804807e-08   3.7842304896999560e-08   4.5326298896185218e-08   4.0216347440601203e-08   4.9841368194607793e-08   4.3786655858539876e-08   5.6516470345124685e-08   4.9060545806425039e-08   6.6470237351550038e-08   5.6870878492599410e-08   8.1643281396031206e-08   6.8625953914605209e-08   1.0557417959584639e-07   8.6807959624093229e-08   1.4517259689390769e-07   1.1605098577650263e-07   2.1521243873558110e-07   1.6569832642966834e-07   3.5124411934289177e-07   2.5656989846195528e-07   6.5295098421980304e-07   4.4141701455510618e-07   1.4614945435793823e-06   8.7779932996670175e-07   4.2954984841373809e-06   2.1476795147919947e-06   1.8722678226726579e-05   7.0835815779395143e-06   1.3804351038556104e-04   3.5336473698963791e-05   1.7535636844177604e-03   2.9449307422940279e-04   2.7336326253060712e-02   3.8992609234393852e-03   3.3291061332401768e-08   3.1233000702461449e-08   3.5557829597564759e-08   3.3051170273200879e-08   3.8918451255871236e-08   3.5758837769615744e-08   4.3856309481173128e-08   3.9730536337973979e-08   5.1155755099249308e-08   4.5563707662677821e-08   6.2126154501827263e-08   5.4233457468794511e-08   7.9043553997456426e-08   6.7385140599682700e-08   1.0608832084863635e-07   8.7925007598346695e-08   1.5151961539175976e-07   1.2131125482061850e-07   2.3325925423151952e-07   1.7864194230211857e-07   3.9509616043190822e-07   2.8486183021541111e-07   7.6130118468745795e-07   5.0352175350685049e-07   1.7582515061773391e-06   1.0239441337371954e-06   5.2487214609676646e-06   2.5324837374647192e-06   2.2261590444213056e-05   8.2128270330213974e-06   1.4605203694832805e-04   3.8058785275301864e-05   1.4624516905688686e-03   2.6842200318348607e-04   2.7359025375286346e-03   3.0551452212778956e-08   3.2340832278475823e-08   3.1893512681538668e-08   3.4966398587955808e-08   3.4049588855164316e-08   3.8789206519253210e-08   3.7179555790268644e-08   4.4378112107224595e-08   4.1725343837969713e-08   5.2649477396377909e-08   4.8385531461809741e-08   6.5125247262621035e-08   5.8291625545590941e-08   8.4444781734707735e-08   7.3341852629879721e-08   1.1545366990815298e-07   9.6875671259916505e-08   1.6772395182188103e-07   1.3514175781769188e-07   2.6197573777062932e-07   2.0077685025937910e-07   4.4841267210079701e-07   3.2189620140493154e-07   8.6677690904494303e-07   5.6878641230171081e-07   1.9787674218022184e-06   1.1440552290009274e-06   5.6704371888718643e-06   2.7434363120756153e-06   2.1921777023369711e-05   8.3288050080173660e-06   1.2159058348489363e-04   3.4218978799168632e-05   9.5930182070684891e-04   1.9967696307138499e-04   1.6021990319386213e-03   3.4906751972059159e-08   3.7063033074397564e-08   3.8394620492445625e-08   4.0160799759782152e-08   4.0987286112341987e-08   4.4625580310747917e-08   4.4695606135733958e-08   5.1120261224155991e-08   5.0036720676505644e-08   6.0701955320586001e-08   5.7818447433055920e-08   7.5110052892154014e-08   6.9334696490729227e-08   9.7333983806621040e-08   8.6732456540338025e-08   1.3280779916377106e-07   1.1374506170355330e-07   1.9212762341158836e-07   1.5726186384341932e-07   2.9780230917050296e-07   2.3096161828062574e-07   5.0285431153259754e-07   3.6450726615198943e-07   9.4883003639417115e-07   6.2941881894351872e-07   2.0757966448975993e-06   1.2216807754490777e-06   5.5318454643073754e-06   2.7687506406795048e-06   1.9034263274997971e-05   7.6965878469410624e-06   8.8979668739505384e-05   2.7721657115979547e-05   5.6656579943383748e-04   1.3484780534839098e-04   8.7503051322219950e-04   4.6145570388780808e-08   4.8806861536802651e-08   5.2725204282641537e-08   5.2568346637103543e-08   5.5942628417816485e-08   5.7928490238266747e-08   6.0476146971777281e-08   6.5653206002714732e-08   6.6928152762137440e-08   7.6947936466282255e-08   7.6226897223703342e-08   9.3767379500607993e-08   8.9837072396643978e-08   1.1941821003439307e-07   1.1014903879373104e-07   1.5980107579311837e-07   1.4124367751352562e-07   2.2615958304988058e-07   1.9048970205891234e-07   3.4167569817850133e-07   2.7212879210303012e-07   5.5886543527710496e-07   4.1600969547236093e-07   1.0109380454438073e-06   6.9103733274411732e-07   2.0852303667706685e-06   1.2757908086100374e-06   5.1094060777368116e-06   2.7021025695864621e-06   1.5604979807459351e-05   6.8387232896768720e-06   6.2015124101092326e-05   2.1636685821876958e-05   3.2502935310708292e-04   8.8789924314371170e-05   4.7663691099477989e-04   6.8123537378246609e-08   7.1552933001530351e-08   8.0088375406637985e-08   7.6308720882575180e-08   8.4281720827645809e-08   8.2977808814836188e-08   9.0076055765051215e-08   9.2449031902190240e-08   9.8181997804807244e-08   1.0609733804506441e-07   1.0967698709522661e-07   1.2611004588643701e-07   1.2622885797521875e-07   1.5611139310633923e-07   1.5050473314232525e-07   2.0241706984824827e-07   1.8695737155737690e-07   2.7673057763851000e-07   2.4342595656638944e-07   4.0238318980323087e-07   3.3461963706668528e-07   6.3009190153664361e-07   4.9029226198759243e-07   1.0820377117523934e-06   7.7620545333612423e-07   2.0907430943424008e-06   1.3537065384453156e-06   4.7009110504929624e-06   2.6704707882301207e-06   1.2789609564849901e-05   6.1613103504021054e-06   4.3744588243496766e-05   1.7268714516291350e-05   1.9362844464347826e-04   6.1102453858095311e-05   2.8274375072319174e-04   1.1016973361461986e-07   1.1489946899630520e-07   1.3311251022027569e-07   1.2129879598755061e-07   1.3901395273609507e-07   1.3008114624799122e-07   1.4696402602468742e-07   1.4230833705831000e-07   1.5783769315365560e-07   1.5958926315020455e-07   1.7293554795599752e-07   1.8442878434264436e-07   1.9422771722422743e-07   2.2088441599365901e-07   2.2479671373104985e-07   2.7585671092564259e-07   2.6967402516037637e-07   3.6179021510396953e-07   3.3750871414872353e-07   5.0271733554341469e-07   4.4409892629633912e-07   7.4889266747499460e-07   6.2039298043570482e-07   1.2156006229943046e-06   9.3212543698328813e-07   2.1975000550684471e-06   1.5326944548340038e-06   4.5503231068656127e-06   2.8221651916786130e-06   1.1172429338985925e-05   5.9938600094239853e-06   3.3922852248231844e-05   1.5250827266920419e-05   1.3423371436935112e-04   4.8856701341516073e-05   2.1066640522958768e-04   1.9632613763433226e-07   2.0359274322727494e-07   2.4575086273728584e-07   2.1312427108013464e-07   2.5514494264504865e-07   2.2585453059971904e-07   2.6740829584215366e-07   2.4314181867805837e-07   2.8371811018169977e-07   2.6699627740405308e-07   3.0577990156340046e-07   3.0047746283463419e-07   3.3611553911142796e-07   3.4844099188873964e-07   3.7858986636376613e-07   4.1898743262587653e-07   4.3940646705892531e-07   5.2642644000804113e-07   5.2906672933068310e-07   6.9770109248358747e-07   6.6641039974105982e-07   9.8737418628138670e-07   8.8749673651955317e-07   1.5157699340332250e-06   1.2667418118069109e-06   2.5769849356410063e-06   1.9722974633869466e-06   4.9880942558604031e-06   3.4294353654374591e-06   1.1421037509035352e-05   6.8787152326089880e-06   3.2668068621847435e-05   1.6668828577558138e-05   1.2625223250791362e-04   5.2184531490271140e-05   2.3219208425388221e-04   3.99634946