<?xml version="1.0"?>
<VTKFile type="UnstructuredGrid"  version="0.1"  >
<UnstructuredGrid>
<Piece  NumberOfPoints="640" NumberOfCells="1181">
<Points>
<DataArray  type="Float64"  NumberOfComponents="3"  format="ascii">2.973913043478261 0 0  2.990434782608696 0 0  2.990434782608696 0.01666666666666667 0  2.973913043478261 0.01666666666666667 0  3.006956521739131 0 0  3.006956521739131 0.01666666666666667 0  3.023478260869565 0 0  3.023478260869565 0.01666666666666667 0  3.04 0 0  3.04 0.01666666666666667 0  3.056521739130435 0 0  3.056521739130435 0.01666666666666667 0  3.073043478260869 0 0  3.073043478260869 0.01666666666666667 0  3.089565217391304 0 0  3.089565217391304 0.01666666666666667 0  3.106086956521739 0 0  3.106086956521739 0.01666666666666667 0  3.122608695652174 0 0  3.122608695652174 0.01666666666666667 0  3.139130434782609 0 0  3.139130434782609 0.01666666666666667 0  3.155652173913043 0 0  3.155652173913043 0.01666666666666667 0  3.172173913043478 0 0  3.172173913043478 0.01666666666666667 0  3.188695652173913 0 0  3.188695652173913 0.01666666666666667 0  3.205217391304347 0 0  3.205217391304347 0.01666666666666667 0  3.221739130434782 0 0  3.221739130434782 0.01666666666666667 0  3.238260869565217 0 0  3.238260869565217 0.01666666666666667 0  2.990434782608696 0.03333333333333333 0  2.973913043478261 0.03333333333333333 0  3.006956521739131 0.03333333333333333 0  3.023478260869565 0.03333333333333333 0  3.04 0.03333333333333333 0  3.056521739130435 0.03333333333333333 0  3.073043478260869 0.03333333333333333 0  3.089565217391304 0.03333333333333333 0  3.106086956521739 0.03333333333333333 0  3.122608695652174 0.03333333333333333 0  3.139130434782609 0.03333333333333333 0  3.155652173913043 0.03333333333333333 0  3.172173913043478 0.03333333333333333 0  3.188695652173913 0.03333333333333333 0  3.205217391304347 0.03333333333333333 0  3.221739130434782 0.03333333333333333 0  3.238260869565217 0.03333333333333333 0  3.254782608695652 0.03333333333333333 0  2.990434782608696 0.05 0  3.006956521739131 0.05 0  3.023478260869565 0.05 0  3.04 0.05 0  3.056521739130435 0.05 0  3.073043478260869 0.05 0  3.089565217391304 0.05 0  3.106086956521739 0.05 0  3.122608695652174 0.05 0  3.139130434782609 0.05 0  3.155652173913043 0.05 0  3.172173913043478 0.05 0  3.188695652173913 0.05 0  3.205217391304347 0.05 0  3.221739130434782 0.05 0  3.238260869565217 0.05 0  3.254782608695652 0.05 0  3.271304347826087 0.05 0  3.006956521739131 0.06666666666666667 0  2.990434782608696 0.06666666666666667 0  3.023478260869565 0.06666666666666667 0  3.04 0.06666666666666667 0  3.056521739130435 0.06666666666666667 0  3.073043478260869 0.06666666666666667 0  3.089565217391304 0.06666666666666667 0  3.106086956521739 0.06666666666666667 0  3.122608695652174 0.06666666666666667 0  3.139130434782609 0.06666666666666667 0  3.155652173913043 0.06666666666666667 0  3.172173913043478 0.06666666666666667 0  3.188695652173913 0.06666666666666667 0  3.205217391304347 0.06666666666666667 0  3.221739130434782 0.06666666666666667 0  3.238260869565217 0.06666666666666667 0  3.254782608695652 0.06666666666666667 0  3.271304347826087 0.06666666666666667 0  3.287826086956521 0.06666666666666667 0  3.006956521739131 0.08333333333333333 0  3.023478260869565 0.08333333333333333 0  3.04 0.08333333333333333 0  3.056521739130435 0.08333333333333333 0  3.073043478260869 0.08333333333333333 0  3.089565217391304 0.08333333333333333 0  3.106086956521739 0.08333333333333333 0  3.122608695652174 0.08333333333333333 0  3.139130434782609 0.08333333333333333 0  3.155652173913043 0.08333333333333333 0  3.172173913043478 0.08333333333333333 0  3.188695652173913 0.08333333333333333 0  3.205217391304347 0.08333333333333333 0  3.221739130434782 0.08333333333333333 0  3.238260869565217 0.08333333333333333 0  3.254782608695652 0.08333333333333333 0  3.271304347826087 0.08333333333333333 0  3.287826086956521 0.08333333333333333 0  3.304347826086957 0.08333333333333333 0  3.023478260869565 0.1 0  3.006956521739131 0.1 0  3.04 0.1 0  3.056521739130435 0.1 0  3.073043478260869 0.1 0  3.089565217391304 0.1 0  3.106086956521739 0.1 0  3.122608695652174 0.1 0  3.139130434782609 0.1 0  3.155652173913043 0.1 0  3.172173913043478 0.1 0  3.188695652173913 0.1 0  3.205217391304347 0.1 0  3.221739130434782 0.1 0  3.238260869565217 0.1 0  3.254782608695652 0.1 0  3.271304347826087 0.1 0  3.287826086956521 0.1 0  3.304347826086957 0.1 0  3.320869565217391 0.1 0  3.023478260869565 0.1166666666666667 0  3.04 0.1166666666666667 0  3.056521739130435 0.1166666666666667 0  3.073043478260869 0.1166666666666667 0  3.089565217391304 0.1166666666666667 0  3.106086956521739 0.1166666666666667 0  3.122608695652174 0.1166666666666667 0  3.139130434782609 0.1166666666666667 0  3.155652173913043 0.1166666666666667 0  3.172173913043478 0.1166666666666667 0  3.188695652173913 0.1166666666666667 0  3.205217391304347 0.1166666666666667 0  3.221739130434782 0.1166666666666667 0  3.238260869565217 0.1166666666666667 0  3.254782608695652 0.1166666666666667 0  3.271304347826087 0.1166666666666667 0  3.287826086956521 0.1166666666666667 0  3.304347826086957 0.1166666666666667 0  3.320869565217391 0.1166666666666667 0  3.337391304347826 0.1166666666666667 0  3.04 0.1333333333333333 0  3.023478260869565 0.1333333333333333 0  3.056521739130435 0.1333333333333333 0  3.073043478260869 0.1333333333333333 0  3.089565217391304 0.1333333333333333 0  3.106086956521739 0.1333333333333333 0  3.122608695652174 0.1333333333333333 0  3.139130434782609 0.1333333333333333 0  3.155652173913043 0.1333333333333333 0  3.172173913043478 0.1333333333333333 0  3.188695652173913 0.1333333333333333 0  3.205217391304347 0.1333333333333333 0  3.221739130434782 0.1333333333333333 0  3.238260869565217 0.1333333333333333 0  3.254782608695652 0.1333333333333333 0  3.271304347826087 0.1333333333333333 0  3.287826086956521 0.1333333333333333 0  3.304347826086957 0.1333333333333333 0  3.320869565217391 0.1333333333333333 0  3.337391304347826 0.1333333333333333 0  3.353913043478261 0.1333333333333333 0  3.04 0.15 0  3.056521739130435 0.15 0  3.073043478260869 0.15 0  3.089565217391304 0.15 0  3.106086956521739 0.15 0  3.122608695652174 0.15 0  3.139130434782609 0.15 0  3.155652173913043 0.15 0  3.172173913043478 0.15 0  3.188695652173913 0.15 0  3.205217391304347 0.15 0  3.221739130434782 0.15 0  3.238260869565217 0.15 0  3.254782608695652 0.15 0  3.271304347826087 0.15 0  3.287826086956521 0.15 0  3.304347826086957 0.15 0  3.320869565217391 0.15 0  3.337391304347826 0.15 0  3.353913043478261 0.15 0  3.370434782608696 0.15 0  3.056521739130435 0.1666666666666667 0  3.073043478260869 0.1666666666666667 0  3.089565217391304 0.1666666666666667 0  3.106086956521739 0.1666666666666667 0  3.122608695652174 0.1666666666666667 0  3.139130434782609 0.1666666666666667 0  3.155652173913043 0.1666666666666667 0  3.172173913043478 0.1666666666666667 0  3.188695652173913 0.1666666666666667 0  3.205217391304347 0.1666666666666667 0  3.221739130434782 0.1666666666666667 0  3.238260869565217 0.1666666666666667 0  3.254782608695652 0.1666666666666667 0  3.271304347826087 0.1666666666666667 0  3.287826086956521 0.1666666666666667 0  3.304347826086957 0.1666666666666667 0  3.320869565217391 0.1666666666666667 0  3.337391304347826 0.1666666666666667 0  3.353913043478261 0.1666666666666667 0  3.370434782608696 0.1666666666666667 0  3.386956521739131 0.1666666666666667 0  3.073043478260869 0.1833333333333333 0  3.089565217391304 0.1833333333333333 0  3.106086956521739 0.1833333333333333 0  3.122608695652174 0.1833333333333333 0  3.139130434782609 0.1833333333333333 0  3.155652173913043 0.1833333333333333 0  3.172173913043478 0.1833333333333333 0  3.188695652173913 0.1833333333333333 0  3.205217391304347 0.1833333333333333 0  3.221739130434782 0.1833333333333333 0  3.238260869565217 0.1833333333333333 0  3.254782608695652 0.1833333333333333 0  3.271304347826087 0.1833333333333333 0  3.287826086956521 0.1833333333333333 0  3.304347826086957 0.1833333333333333 0  3.320869565217391 0.1833333333333333 0  3.337391304347826 0.1833333333333333 0  3.353913043478261 0.1833333333333333 0  3.370434782608696 0.1833333333333333 0  3.386956521739131 0.1833333333333333 0  3.403478260869565 0.1833333333333333 0  3.089565217391304 0.2 0  3.106086956521739 0.2 0  3.122608695652174 0.2 0  3.139130434782609 0.2 0  3.155652173913043 0.2 0  3.172173913043478 0.2 0  3.188695652173913 0.2 0  3.205217391304347 0.2 0  3.221739130434782 0.2 0  3.238260869565217 0.2 0  3.254782608695652 0.2 0  3.271304347826087 0.2 0  3.287826086956521 0.2 0  3.304347826086957 0.2 0  3.320869565217391 0.2 0  3.337391304347826 0.2 0  3.353913043478261 0.2 0  3.370434782608696 0.2 0  3.386956521739131 0.2 0  3.403478260869565 0.2 0  3.419999999999999 0.2 0  3.106086956521739 0.2166666666666667 0  3.122608695652174 0.2166666666666667 0  3.139130434782609 0.2166666666666667 0  3.155652173913043 0.2166666666666667 0  3.172173913043478 0.2166666666666667 0  3.188695652173913 0.2166666666666667 0  3.205217391304347 0.2166666666666667 0  3.221739130434782 0.2166666666666667 0  3.238260869565217 0.2166666666666667 0  3.254782608695652 0.2166666666666667 0  3.271304347826087 0.2166666666666667 0  3.287826086956521 0.2166666666666667 0  3.304347826086957 0.2166666666666667 0  3.320869565217391 0.2166666666666667 0  3.337391304347826 0.2166666666666667 0  3.353913043478261 0.2166666666666667 0  3.370434782608696 0.2166666666666667 0  3.386956521739131 0.2166666666666667 0  3.403478260869565 0.2166666666666667 0  3.419999999999999 0.2166666666666667 0  3.436521739130435 0.2166666666666667 0  3.122608695652174 0.2333333333333333 0  3.139130434782609 0.2333333333333333 0  3.155652173913043 0.2333333333333333 0  3.172173913043478 0.2333333333333333 0  3.188695652173913 0.2333333333333333 0  3.205217391304347 0.2333333333333333 0  3.221739130434782 0.2333333333333333 0  3.238260869565217 0.2333333333333333 0  3.254782
[...]
<PointData  Vectors="Displacement"> 
<DataArray  type="Float64"  Name="Displacement"  NumberOfComponents="3" format="ascii">2.8510021712853845e-04 3.5344323469512517e-03 0.0000000000000000e+00  2.8561363099588379e-04 3.5525097944376994e-03 0.0000000000000000e+00  2.6754411846151516e-04 3.5522933499322136e-03 0.0000000000000000e+00  2.6655838486902030e-04 3.5342029836362364e-03 0.0000000000000000e+00  2.8616521135180054e-04 3.5701336683512342e-03 0.0000000000000000e+00  2.6844300209812505e-04 3.5699215169215613e-03 0.0000000000000000e+00  2.8676223824457286e-04 3.5874921826505668e-03 0.0000000000000000e+00  2.6923739460411238e-04 3.5872885783273440e-03 0.0000000000000000e+00  2.8741590207267059e-04 3.6047187869363406e-03 0.0000000000000000e+00  2.6994446782867444e-04 3.6045097623117668e-03 0.0000000000000000e+00  2.8813398350147214e-04 3.6219683214171934e-03 0.0000000000000000e+00  2.7059335994253987e-04 3.6217436301672359e-03 0.0000000000000000e+00  2.8889721674787180e-04 3.6393752837600157e-03 0.0000000000000000e+00  2.7121139023023727e-04 3.6391423974187105e-03 0.0000000000000000e+00  2.8967150399488372e-04 3.6570011207361828e-03 0.0000000000000000e+00  2.7180578956167897e-04 3.6567672206598910e-03 0.0000000000000000e+00  2.9042158369568555e-04 3.6748626597259896e-03 0.0000000000000000e+00  2.7237697967558367e-04 3.6746319031217634e-03 0.0000000000000000e+00  2.9110456872657694e-04 3.6929568558542120e-03 0.0000000000000000e+00  2.7291855848367779e-04 3.6927370273950352e-03 0.0000000000000000e+00  2.9165543605142249e-04 3.7112457545046924e-03 0.0000000000000000e+00  2.7341358376373952e-04 3.7110614350201057e-03 0.0000000000000000e+00  2.9197498590173917e-04 3.7295764611388520e-03 0.0000000000000000e+00  2.7382947528893062e-04 3.7295147600300564e-03 0.0000000000000000e+00  2.9207392669234136e-04 3.7478115164921479e-03 0.0000000000000000e+00  2.7408209348422121e-04 3.7479148270362157e-03 0.0000000000000000e+00  2.9574071199235544e-04 3.7683647833602224e-03 0.0000000000000000e+00  2.7560390388047304e-04 3.7673884122631290e-03 0.0000000000000000e+00  2.9894157407519585e-04 3.7890429307999608e-03 0.0000000000000000e+00  2.7824421893448006e-04 3.7881144230257199e-03 0.0000000000000000e+00  3.0186114456914225e-04 3.8101037434920891e-03 0.0000000000000000e+00  2.8070034202771587e-04 3.8092471917603411e-03 0.0000000000000000e+00  3.0455874429796275e-04 3.8315505933437014e-03 0.0000000000000000e+00  2.8296799270730722e-04 3.8307516415398177e-03 0.0000000000000000e+00  2.4964375065143063e-04 3.5519482343743646e-03 0.0000000000000000e+00  2.4783315050174993e-04 3.5338144218923068e-03 0.0000000000000000e+00  2.5099779673272996e-04 3.5696437545114173e-03 0.0000000000000000e+00  2.5190668069775883e-04 3.5870479183226665e-03 0.0000000000000000e+00  2.5267512846863086e-04 3.6043315845144842e-03 0.0000000000000000e+00  2.5316575415268097e-04 3.6215455445400982e-03 0.0000000000000000e+00  2.5360605604094838e-04 3.6389407327537277e-03 0.0000000000000000e+00  2.5402282155703677e-04 3.6565650527193459e-03 0.0000000000000000e+00  2.5443551193981076e-04 3.6744185197358772e-03 0.0000000000000000e+00  2.5485980976290297e-04 3.6925073301290745e-03 0.0000000000000000e+00  2.5530279369563076e-04 3.7108349449496937e-03 0.0000000000000000e+00  2.5576922719032871e-04 3.7293619455173901e-03 0.0000000000000000e+00  2.5625158810203521e-04 3.7480499520559313e-03 0.0000000000000000e+00  2.5678123336230570e-04 3.7671743964180896e-03 0.0000000000000000e+00  2.5800185018978072e-04 3.7873794823378906e-03 0.0000000000000000e+00  2.6002801471024174e-04 3.8085687866435342e-03 0.0000000000000000e+00  2.6185023193464905e-04 3.8300852185157680e-03 0.0000000000000000e+00  2.6350125453649049e-04 3.8521045183052367e-03 0.0000000000000000e+00  2.3272347427804430e-04 3.5504474830919254e-03 0.0000000000000000e+00  2.3368130948561814e-04 3.5685700173020301e-03 0.0000000000000000e+00  2.3437089602645916e-04 3.5867430479797628e-03 0.0000000000000000e+00  2.3566246613580759e-04 3.6042181649902417e-03 0.0000000000000000e+00  2.3595051916853240e-04 3.6214399770139647e-03 0.0000000000000000e+00  2.3608906465737132e-04 3.6387956410485521e-03 0.0000000000000000e+00  2.3628201426099089e-04 3.6564067140012020e-03 0.0000000000000000e+00  2.3650877234932956e-04 3.6742309395074121e-03 0.0000000000000000e+00  2.3677544842220429e-04 3.6922810396770350e-03 0.0000000000000000e+00  2.3708284590387546e-04 3.7105938573826071e-03 0.0000000000000000e+00  2.3744219419672612e-04 3.7291555292400021e-03 0.0000000000000000e+00  2.3787018014830678e-04 3.7479879915069498e-03 0.0000000000000000e+00  2.3839647194326657e-04 3.7672751930656070e-03 0.0000000000000000e+00  2.3912986860705947e-04 3.7872844029900607e-03 0.0000000000000000e+00  2.4003672149615598e-04 3.8081571602935384e-03 0.0000000000000000e+00  2.4116105373948849e-04 3.8295556243146452e-03 0.0000000000000000e+00  2.4233847976568701e-04 3.8516542792925660e-03 0.0000000000000000e+00  2.4344108948198297e-04 3.8740534291508959e-03 0.0000000000000000e+00  2.1674915354724292e-04 3.5676242592423517e-03 0.0000000000000000e+00  2.1600082410402644e-04 3.5493087728761018e-03 0.0000000000000000e+00  2.1740201168175396e-04 3.5858002801626042e-03 0.0000000000000000e+00  2.1801768449903643e-04 3.6035207028024272e-03 0.0000000000000000e+00  2.1843188212647212e-04 3.6213358162614593e-03 0.0000000000000000e+00  2.1846706305366450e-04 3.6387205921088522e-03 0.0000000000000000e+00  2.1849335959898134e-04 3.6563110074450626e-03 0.0000000000000000e+00  2.1854056515077132e-04 3.6740936963124090e-03 0.0000000000000000e+00  2.1861353115157654e-04 3.6920933468929966e-03 0.0000000000000000e+00  2.1869646186774039e-04 3.7103987897051322e-03 0.0000000000000000e+00  2.1880126987644267e-04 3.7289838745747221e-03 0.0000000000000000e+00  2.1895748428349908e-04 3.7478869271215941e-03 0.0000000000000000e+00  2.1919255658754667e-04 3.7672620507266004e-03 0.0000000000000000e+00  2.1953688868077439e-04 3.7872990199329789e-03 0.0000000000000000e+00  2.2003173309550803e-04 3.8080789953576170e-03 0.0000000000000000e+00  2.2070700635728170e-04 3.8294231079460017e-03 0.0000000000000000e+00  2.2144646057128210e-04 3.8514206061724828e-03 0.0000000000000000e+00  2.2207159460276170e-04 3.8736969668628799e-03 0.0000000000000000e+00  2.2275017403382432e-04 3.8966719351175181e-03 0.0000000000000000e+00  1.9982173754340074e-04 3.5668609585640435e-03 0.0000000000000000e+00  2.0028187576296474e-04 3.5851289437368507e-03 0.0000000000000000e+00  2.0058809089640263e-04 3.6031102563721332e-03 0.0000000000000000e+00  2.0072624701629986e-04 3.6210763991694514e-03 0.0000000000000000e+00  2.0072790333225027e-04 3.6386259296797567e-03 0.0000000000000000e+00  2.0068520315149187e-04 3.6562559611389659e-03 0.0000000000000000e+00  2.0058242016769812e-04 3.6740153493362909e-03 0.0000000000000000e+00  2.0043883700665999e-04 3.6919683321996999e-03 0.0000000000000000e+00  2.0021781745981659e-04 3.7103067536479566e-03 0.0000000000000000e+00  1.9995570114354579e-04 3.7289249856439512e-03 0.0000000000000000e+00  1.9970709128288355e-04 3.7478530534748120e-03 0.0000000000000000e+00  1.9953382234315351e-04 3.7672556174198207e-03 0.0000000000000000e+00  1.9947670064476662e-04 3.7873274351426299e-03 0.0000000000000000e+00  1.9956431260532005e-04 3.8080896395963327e-03 0.0000000000000000e+00  1.9981317208271038e-04 3.8294385475696985e-03 0.0000000000000000e+00  2.0019908770052119e-04 3.8513833074279597e-03 0.0000000000000000e+00  2.0072259658556301e-04 3.8737515556744513e-03 0.0000000000000000e+00  2.0128834761967644e-04 3.8966281732282894e-03 0.0000000000000000e+00  2.0154334992698064e-04 3.9195211115926696e-03 0.0000000000000000e+00  1.8325780557536074e-04 3.5846499744189319e-03 0.0000000000000000e+00  1.8294809558736991e-04 3.5662766836521060e-03 0.0000000000000000e+00  1.8347458532934260e-04 3.6029103637410325e-03 0.0000000000000000e+00  1.8330987906414579e-04 3.6208097954952799e-03 0.0000000000000000e+00  1.8317299191114014e-04 3.6385332475464610e-03 0.0000000000000000e+00  1.8301424386891311e-04 3.6562235287396459e-03 0.0000000000000000e+00  1.8278156465310625e-04 3.6739885594657467e-03 0.0000000000000000e+00  1.8243749817001709e-04 3.6919315326011531e-03 0.0000000000000000e+00  1.8177827798194164e-04 3.7103784199956176e-03 0.0000000000000000e+00  1.8103882273823541e-04 3.7290560592914287e-03 0.0000000000000000e+00  1.8026226361158993e-04 3.7479877531936502e-03 0.0000000000000000e+00  1.7950892531999295e-04 3.7673309315548018e-03 0.0000000000000000e+00  1.7893622523378972e-04 3.7873886376792493e-03 0.0000000000000000e+00  1.7862586078250045e-04 3.8081565768350815e-03 0.0000000000000000e+00  1.7851782260977904e-04 3.8295044930513867e-03 0.0000000000000000e+00  1.7857397749682105e-04 3.8514296592475476e-03 0.0000000000000000e+00  1.7877179246075355e-04 3.8738100098449860e-03 0.0000000000000000e+00  1.7907218872372749e-04 3.8966393848247141e-03 0.0000000000000000e+00  1.7944974134603782e-04 3.9197682973879594e-03 0.0000000000000000e+00  1.7981358696706070e-04 3.9432104080772828e-03 0.0000000000000000e+00  1.6640368105794048e-04 3.5844279999417716e-03 0.0000000000000000e+00  1.6611944138262847e-04 3.6026952901995210e-03 0.0000000000000000e+00  1.6590663874522640e-04 3.6206921484718559e-03 0.0000000000000000e+00  1.6573960980802442e-04 3.6384670778844743e-03 0.0000000000000000e+00  1.6555184699102886e-04 3.6561943328536125e-03 0.0000000000000000e+00  1.6534959418152369e-04 3.6739151104239589e-03 0.0000000000000000e+00  1.6509411548016692e-04 3.6918212559794764e-03 0.0000000000000000e+00  1.6429670524325754e-04 3.7103891661318064e-03 0.0000000000000000e+00  1.6238529988972853e-04 3.7294483945931813e-03 0.0000000000000000e+00  1.6114687588764730e-04 3.7494691281938575e-03 0.0000000000000000e+00  1.5907769845885334e-04 3.7676009554128858e-03 0.0000000000000000e+00  1.5772734794244236e-04 3.7875434326151885e-03 0.0000000000000000e+00  1.5708994731942799e-04 3.8082483093552213e-03 0.0000000000000000e+00  1.5671649848471609e-04 3.8295733726972413e-03 0.0000000000000000e+00  1.5653411132951218e-04 3.8515067313498403e-03 0.0000000000000000e+00  1.5650746889633082e-04 3.8738911337642904e-03 0.0000000000000000e+00  1.5660960332215809e-04 3.8967103149070829e-03 0.0000000000000000e+00  1.5682619730528758e-04 3.9198695551958063e-03 0.0000000000000000e+00  1.5715487326677737e-04 3.9433679834881647e-03 0.0000000000000000e+00  1.5753937839734912e-04 3.9672200591190868e-03 0.0000000000000000e+00  1.4870869897010863e-04 3.6025064811921899e-03 0.0000000000000000e+00  1.4897440762771930e-04 3.5841661325536284e-03 0.0000000000000000e+00  1.4849178263333468e-04 3.6205630212575498e-03 0.0000000000000000e+00  1.4831406868408354e-04 3.6384136046910768e-03 0.0000000000000000e+00  1.4816383632371044e-04 3.6561480805681226e-03 0.0000000000000000e+00  1.4804803330437165e-04 3.6738015513985973e-03 0.0000000000000000e+00  1.4797933031756715e-04 3.6914281776140247e-03 0.0000000000000000e+00  1.4659458037551178e-04 3.7124694243674413e-03 0.0000000000000000e+00  1.4452271976742753e-04 3.7326140717158945e-03 0.0000000000000000e+00  1.4239465845590390e-04 3.7525157638833490e-03 0.0000000000000000e+00  1.4033940726889042e-04 3.7717051562873604e-03 0.0000000000000000e+00  1.3814254291895126e-04 3.7909991388784771e-03 0.0000000000000000e+00  1.3580510388816716e-04 3.8088108439985418e-03 0.0000000000000000e+00  1.3438829163111548e-04 3.8296595728107533e-03 0.0000000000000000e+00  1.3400810894562330e-04 3.8515608345196604e-03 0.0000000000000000e+00  1.3383006721304439e-04 3.8739500632978515e-03 0.0000000000000000e+00  1.3378093836784728e-04 3.8967870614197843e-03 0.0000000000000000e+00  1.3383283189286510e-04 3.9199748614281724e-03 0.0000000000000000e+00  1.3396566150954242e-04 3.9434722779385046e-03 0.0000000000000000e+00  1.3416429379351383e-04 3.9672581426605522e-03 0.0000000000000000e+00  1.3440974157052121e-04 3.9911903203700477e-03 0.0000000000000000e+00  1.3105019453422032e-04 3.6023635578846251e-03 0.0000000000000000e+00  1.3086546460569536e-04 3.6204817975204963e-03 0.0000000000000000e+00  1.3072585345741243e-04 3.6383829823986380e-03 0.0000000000000000e+00  1.3063618588998307e-04 3.6561208998706009e-03 0.0000000000000000e+00  1.3057655263310817e-04 3.6737203793660443e-03 0.0000000000000000e+00  1.3007531365035111e-04 3.6931225508109559e-03 0.0000000000000000e+00  1.2780180782692434e-04 3.7151437216621308e-03 0.0000000000000000e+00  1.2545750359319830e-04 3.7359889506697612e-03 0.0000000000000000e+00  1.2311311933497539e-04 3.7561768733887948e-03 0.0000000000000000e+00  1.2083948445576439e-04 3.7757930726966134e-03 0.0000000000000000e+00  1.1857094288702453e-04 3.7952198158512584e-03 0.0000000000000000e+00  1.1630588228492985e-04 3.8140933165949015e-03 0.0000000000000000e+00  1.1398670828371815e-04 3.8339173698502208e-03 0.0000000000000000e+00  1.1185587707240513e-04 3.8531071430781359e-03 0.0000000000000000e+00  1.1075381825629700e-04 3.8739987533070964e-03 0.0000000000000000e+00  1.1057651147556872e-04 3.8968220906124406e-03 0.0000000000000000e+00  1.1054750310179952e-04 3.9200608769857613e-03 0.0000000000000000e+00  1.1058786494699378e-04 3.9435757824153837e-03 0.0000000000000000e+00  1.1069153250922713e-04 3.9673513707097008e-03 0.0000000000000000e+00  1.1085342245319781e-04 3.9912963971421231e-03 0.0000000000000000e+00  1.1105272221847102e-04 4.0153835492651195e-03 0.0000000000000000e+00  1.1300293812247930e-04 3.6204420761817065e-03 0.0000000000000000e+00  1.1292801176097994e-04 3.6383805906264328e-03 0.0000000000000000e+00  1.1288202075386962e-04 3.6561257356291727e-03 0.0000000000000000e+00  1.1287427290287694e-04 3.6737332313044654e-03 0.0000000000000000e+00  1.1070248890530468e-04 3.6964187113475728e-03 0.0000000000000000e+00  1.0795822073735614e-04 3.7185720441712720e-03 0.0000000000000000e+00  1.0544982325029095e-04 3.7397016535977478e-03 0.0000000000000000e+00  1.0303876319000834e-04 3.7601305308497062e-03 0.0000000000000000e+00  1.0069033350401774e-04 3.7800376851848659e-03 0.0000000000000000e+00  9.8365562220269469e-05 3.7996705904823494e-03 0.0000000000000000e+00  9.6048465016790373e-05 3.8190337630855664e-03 0.0000000000000000e+00  9.3710517350671806e-05 3.8387174491950915e-03 0.0000000000000000e+00  9.1509960350130115e-05 3.8582352480403862e-03 0.0000000000000000e+00  8.9372022808012448e-05 3.8781770834606811e-03 0.0000000000000000e+00  8.7046060755858779e-05 3.8968361145092813e-03 0.0000000000000000e+00  8.6973258592840645e-05 3.9200939070431328e-03 0.0000000000000000e+00  8.6974607201876112e-05 3.9436354025658583e-03 0.0000000000000000e+00  8.7036631023323206e-05 3.9674366073759668e-03 0.0000000000000000e+00  8.7145101346218384e-05 3.9913971832611717e-03 0.0000000000000000e+00  8.7299302249390981e-05 4.0155097915374046e-03 0.0000000000000000e+00  8.7509399677261087e-05 4.0398011264456352e-03 0.0000000000000000e+00  9.4892999923681045e-05 3.6384021324588041e-03 0.0000000000000000e+00  9.4903017750412843e-05 3.6561883458858797e-03 0.0000000000000000e+00  9.2824459761570711e-05 3.6779189010481511e-03 0.0000000000000000e+00  8.9868173520766617e-05 3.7004330091331863e-03 0.0000000000000000e+00  8.7194271441875547e-05 3.7224995685159780e-03 0.0000000000000000e+00  8.4708800804635849e-05 3.7437006266824555e-03 0.0000000000000000e+00  8.2320551581339019e-05 3.7642822425625771e-03 0.0000000000000000e+00  7.9978581965632517e-05 3.7844014836816275e-03 0.0000000000000000e+00  7.7652003162191654e-05 3.8042335584163329e-03 0.0000000000000000e+00  7.5330790949436547e-05 3.8238748335942476e-03 0.0000000000000000e+00  7.3015400060734572e-05 3.8435917911257161e-03 0.0000000000000000e+00  7.0780813372051579e-05 3.8632515334536825e-03 0.0000000000000000e+00  6.8615004265879756e-05 3.8830581162411951e-03 0.0000000000000000e+00  6.6533693690537746e-05 3.9026133689753755e-03 0.0000000000000000e+00  6.4604813725697901e-05 3.9236178105477408e-03 0.0000000000000000e+00  6.3145904831986402e-05 3.9436755439175609e-03 0.0000000000000000e+00  6.3187795140229447e-05 3.9674941398875965e-03 0.0000000000000000e+00  6.3258527625890566e-05 3.9914818786710759e-03 0.0000000000000000e+00  6.3359601314317215e-05 4.0156182266438221e-03 0.0000000000000000e+00  6.3486237311447384e-05 4.0399005704469049e-03 0.0000000000000000e+00  6.3640088106464745e-05 4.0642839248595459e-03 0.0000000000000000e+00  7.4496279660259780e-05 3.6603258342871076e-03 0.0000000000000000e+00  7.1487592650041850e-05 3.6825141225938461e-03 0.0000000000000000e+00  6.8584723293061992e-05 3.7048535665555335e-03 0.0000000000000000e+00  6.5938983716224423e-05 3.7266833493465306e-03 0.0000000000000000e+00  6.3498810441727353e-05 3.7478902267730537e-03 0.0000000000000000e+00  6.1148879713284645e-05 3.7685738191612461e-03 0.0000000000000000e+00  5.8837048458815342e-05 3.7888528108803495e-03 0.0000000000000000e+00  5.6534917922145924e-05 3.8088553527152965e-03 0.0000000000000000e+00  5.4234050681902342e-05 3.8286842016608102e-03 0.0000000000000000e+00  5.1940371134423921e-05 3.8484839906098812e-03 0.0000000000000000e+00  4.9688138811489107e-05 3.8682447493062198e-03 0.0000000000000000e+00  4.7475895926015717e-05 3.8880638002617061e-03 0.0000000000000000e+00  4.5306266867534516e-05 3.9078795606423090e-03 0.0000000000000000e+00  4.3183508156089794e-05 3.9282394927021421e-03 0.0000000000000000e+00  4.1269989956484830e-05 3.9481787688054283e-03 0.0000000000000000e+00  3.9171906816791337e-05 3.9675381090752389e-03 0.0000000000000000e+00  3.9221495600370234e-05 3.9915368123428115e-03 0.0000000000000000e+00  3.9298017346080019e-05 4.0157041998426860e-03 0.0000000000000000e+00  3.9396363898175949e-05 4.0400069820727266e-03 0.0000000000000000e+00  3.9510240274063056e-05 4.0643833887768054e-03 0.0000000000000000e+00  3.9638941785826336e-05 4.0887890354905114e-03 0.0000000000000000e+00  4.9641849966723531e-05 3.6873262072942997e-03 0.0000000000000000e+00  4.6868933035372853e-05 3.7093951213043501e-03 0.0000000000000000e+00  4.4327036739842652e-05 3.7310512650012779e-03 0.0000000000000000e+00  4.1942821603318223e-05 3.7522274674995052e-03 0.0000000000000000e+00  3.9639266917184953e-05 3.7729770223821051e-03 0.0000000000000000e+00  3.7367535893701562e-05 3.7933759687040925e-03 0.0000000000000000e+00  3.5102085266345630e-05 3.8135169005569054e-03 0.0000000000000000e+00  3.2834783809275267e-05 3.8334868048694056e-03 0.0000000000000000e+00  3.0570463131455936e-05 3.8533793641015537e-03 0.0000000000000000e+00  2.8326725245888944e-05 3.8732260573905732e-03 0.0000000000000000e+00  2.6108383688280971e-05 3.8930911731695100e-03 0.0000000000000000e+00  2.3923870285751031e-05 3.9129932994356968e-03 0.0000000000000000e+00  2.1790875419404698e-05 3.9331053011276481e-03 0.0000000000000000e+00  1.9770942581718134e-05 3.9530256346269410e-03 0.0000000000000000e+00  1.7692370853178091e-05 3.9726869844925097e-03 0.0000000000000000e+00  1.5262462455286864e-05 3.9919482111483943e-03 0.0000000000000000e+00  1.5087661670048402e-05 4.0157415988841877e-03 0.0000000000000000e+00  1.5219521337952158e-05 4.0400909157838234e-03 0.0000000000000000e+00  1.5353873333862093e-05 4.0644866292309078e-03 0.0000000000000000e+00  1.5481571745324099e-05 4.0888807318302210e-03 0.0000000000000000e+00  1.5610498031833511e-05 4.1132604605253423e-03 0.0000000000000000e+00  2.4845882049263595e-05 3.7139898733291698e-03 0.0000000000000000e+00  2.2434954619225898e-05 3.7355225323838516e-03 0.0000000000000000e+00  2.0126558270365483e-05 3.7566737721728303e-03 0.0000000000000000e+00  1.7875512007749570e-05 3.7774692373718530e-03 0.0000000000000000e+00  1.5648371592726445e-05 3.7979594977809489e-03 0.0000000000000000e+00  1.3425066634814419e-05 3.8182107625431535e-03 0.0000000000000000e+00  1.1198569944697689e-05 3.8382917747101729e-03 0.0000000000000000e+00  8.9722378750941338e-06 3.8582708878354128e-03 0.0000000000000000e+00  6.7572348164308293e-06 3.8781903983262866e-03 0.0000000000000000e+00  4.5622602886159728e-06 3.8981003479626949e-03 0.0000000000000000e+