<?xml version="1.0"?>
<VTKFile type="UnstructuredGrid"  version="0.1"  >
<UnstructuredGrid>
<Piece  NumberOfPoints="640" NumberOfCells="1175">
<Points>
<DataArray  type="Float64"  NumberOfComponents="3"  format="ascii">2.577391304347826 0 0  2.593913043478261 0 0  2.593913043478261 0.01666666666666667 0  2.577391304347826 0.01666666666666667 0  2.610434782608696 0 0  2.610434782608696 0.01666666666666667 0  2.62695652173913 0 0  2.62695652173913 0.01666666666666667 0  2.643478260869565 0 0  2.643478260869565 0.01666666666666667 0  2.66 0 0  2.66 0.01666666666666667 0  2.676521739130435 0 0  2.676521739130435 0.01666666666666667 0  2.693043478260869 0 0  2.693043478260869 0.01666666666666667 0  2.709565217391304 0 0  2.709565217391304 0.01666666666666667 0  2.726086956521739 0 0  2.726086956521739 0.01666666666666667 0  2.742608695652174 0 0  2.742608695652174 0.01666666666666667 0  2.759130434782609 0 0  2.759130434782609 0.01666666666666667 0  2.775652173913044 0 0  2.775652173913044 0.01666666666666667 0  2.792173913043478 0 0  2.792173913043478 0.01666666666666667 0  2.808695652173913 0 0  2.808695652173913 0.01666666666666667 0  2.825217391304347 0 0  2.825217391304347 0.01666666666666667 0  2.841739130434783 0 0  2.841739130434783 0.01666666666666667 0  2.858260869565217 0 0  2.858260869565217 0.01666666666666667 0  2.874782608695652 0 0  2.874782608695652 0.01666666666666667 0  2.891304347826087 0 0  2.891304347826087 0.01666666666666667 0  2.907826086956522 0 0  2.907826086956522 0.01666666666666667 0  2.924347826086957 0 0  2.924347826086957 0.01666666666666667 0  2.940869565217391 0 0  2.940869565217391 0.01666666666666667 0  2.957391304347826 0 0  2.957391304347826 0.01666666666666667 0  2.973913043478261 0 0  2.973913043478261 0.01666666666666667 0  2.593913043478261 0.03333333333333333 0  2.610434782608696 0.03333333333333333 0  2.62695652173913 0.03333333333333333 0  2.643478260869565 0.03333333333333333 0  2.66 0.03333333333333333 0  2.676521739130435 0.03333333333333333 0  2.693043478260869 0.03333333333333333 0  2.709565217391304 0.03333333333333333 0  2.726086956521739 0.03333333333333333 0  2.742608695652174 0.03333333333333333 0  2.759130434782609 0.03333333333333333 0  2.775652173913044 0.03333333333333333 0  2.792173913043478 0.03333333333333333 0  2.808695652173913 0.03333333333333333 0  2.825217391304347 0.03333333333333333 0  2.841739130434783 0.03333333333333333 0  2.858260869565217 0.03333333333333333 0  2.874782608695652 0.03333333333333333 0  2.891304347826087 0.03333333333333333 0  2.907826086956522 0.03333333333333333 0  2.924347826086957 0.03333333333333333 0  2.940869565217391 0.03333333333333333 0  2.957391304347826 0.03333333333333333 0  2.973913043478261 0.03333333333333333 0  2.610434782608696 0.05 0  2.62695652173913 0.05 0  2.643478260869565 0.05 0  2.66 0.05 0  2.676521739130435 0.05 0  2.693043478260869 0.05 0  2.709565217391304 0.05 0  2.726086956521739 0.05 0  2.742608695652174 0.05 0  2.759130434782609 0.05 0  2.775652173913044 0.05 0  2.792173913043478 0.05 0  2.808695652173913 0.05 0  2.825217391304347 0.05 0  2.841739130434783 0.05 0  2.858260869565217 0.05 0  2.874782608695652 0.05 0  2.891304347826087 0.05 0  2.907826086956522 0.05 0  2.924347826086957 0.05 0  2.940869565217391 0.05 0  2.957391304347826 0.05 0  2.973913043478261 0.05 0  2.990434782608696 0.05 0  2.62695652173913 0.06666666666666667 0  2.643478260869565 0.06666666666666667 0  2.66 0.06666666666666667 0  2.676521739130435 0.06666666666666667 0  2.693043478260869 0.06666666666666667 0  2.709565217391304 0.06666666666666667 0  2.726086956521739 0.06666666666666667 0  2.742608695652174 0.06666666666666667 0  2.759130434782609 0.06666666666666667 0  2.775652173913044 0.06666666666666667 0  2.792173913043478 0.06666666666666667 0  2.808695652173913 0.06666666666666667 0  2.825217391304347 0.06666666666666667 0  2.841739130434783 0.06666666666666667 0  2.858260869565217 0.06666666666666667 0  2.874782608695652 0.06666666666666667 0  2.891304347826087 0.06666666666666667 0  2.907826086956522 0.06666666666666667 0  2.924347826086957 0.06666666666666667 0  2.940869565217391 0.06666666666666667 0  2.957391304347826 0.06666666666666667 0  2.973913043478261 0.06666666666666667 0  2.990434782608696 0.06666666666666667 0  2.643478260869565 0.08333333333333333 0  2.66 0.08333333333333333 0  2.676521739130435 0.08333333333333333 0  2.693043478260869 0.08333333333333333 0  2.709565217391304 0.08333333333333333 0  2.726086956521739 0.08333333333333333 0  2.742608695652174 0.08333333333333333 0  2.759130434782609 0.08333333333333333 0  2.775652173913044 0.08333333333333333 0  2.792173913043478 0.08333333333333333 0  2.808695652173913 0.08333333333333333 0  2.825217391304347 0.08333333333333333 0  2.841739130434783 0.08333333333333333 0  2.858260869565217 0.08333333333333333 0  2.874782608695652 0.08333333333333333 0  2.891304347826087 0.08333333333333333 0  2.907826086956522 0.08333333333333333 0  2.924347826086957 0.08333333333333333 0  2.940869565217391 0.08333333333333333 0  2.957391304347826 0.08333333333333333 0  2.973913043478261 0.08333333333333333 0  2.990434782608696 0.08333333333333333 0  3.006956521739131 0.08333333333333333 0  2.66 0.1 0  2.676521739130435 0.1 0  2.693043478260869 0.1 0  2.709565217391304 0.1 0  2.726086956521739 0.1 0  2.742608695652174 0.1 0  2.759130434782609 0.1 0  2.775652173913044 0.1 0  2.792173913043478 0.1 0  2.808695652173913 0.1 0  2.825217391304347 0.1 0  2.841739130434783 0.1 0  2.858260869565217 0.1 0  2.874782608695652 0.1 0  2.891304347826087 0.1 0  2.907826086956522 0.1 0  2.924347826086957 0.1 0  2.940869565217391 0.1 0  2.957391304347826 0.1 0  2.973913043478261 0.1 0  2.990434782608696 0.1 0  3.006956521739131 0.1 0  2.676521739130435 0.1166666666666667 0  2.693043478260869 0.1166666666666667 0  2.709565217391304 0.1166666666666667 0  2.726086956521739 0.1166666666666667 0  2.742608695652174 0.1166666666666667 0  2.759130434782609 0.1166666666666667 0  2.775652173913044 0.1166666666666667 0  2.792173913043478 0.1166666666666667 0  2.808695652173913 0.1166666666666667 0  2.825217391304347 0.1166666666666667 0  2.841739130434783 0.1166666666666667 0  2.858260869565217 0.1166666666666667 0  2.874782608695652 0.1166666666666667 0  2.891304347826087 0.1166666666666667 0  2.907826086956522 0.1166666666666667 0  2.924347826086957 0.1166666666666667 0  2.940869565217391 0.1166666666666667 0  2.957391304347826 0.1166666666666667 0  2.973913043478261 0.1166666666666667 0  2.990434782608696 0.1166666666666667 0  3.006956521739131 0.1166666666666667 0  3.023478260869565 0.1166666666666667 0  2.693043478260869 0.1333333333333333 0  2.709565217391304 0.1333333333333333 0  2.726086956521739 0.1333333333333333 0  2.742608695652174 0.1333333333333333 0  2.759130434782609 0.1333333333333333 0  2.775652173913044 0.1333333333333333 0  2.792173913043478 0.1333333333333333 0  2.808695652173913 0.1333333333333333 0  2.825217391304347 0.1333333333333333 0  2.841739130434783 0.1333333333333333 0  2.858260869565217 0.1333333333333333 0  2.874782608695652 0.1333333333333333 0  2.891304347826087 0.1333333333333333 0  2.907826086956522 0.1333333333333333 0  2.924347826086957 0.1333333333333333 0  2.940869565217391 0.1333333333333333 0  2.957391304347826 0.1333333333333333 0  2.973913043478261 0.1333333333333333 0  2.990434782608696 0.1333333333333333 0  3.006956521739131 0.1333333333333333 0  3.023478260869565 0.1333333333333333 0  2.726086956521739 0.15 0  2.742608695652174 0.15 0  2.759130434782609 0.15 0  2.775652173913044 0.15 0  2.792173913043478 0.15 0  2.808695652173913 0.15 0  2.825217391304347 0.15 0  2.841739130434783 0.15 0  2.858260869565217 0.15 0  2.874782608695652 0.15 0  2.891304347826087 0.15 0  2.907826086956522 0.15 0  2.924347826086957 0.15 0  2.940869565217391 0.15 0  2.957391304347826 0.15 0  2.973913043478261 0.15 0  2.990434782608696 0.15 0  3.006956521739131 0.15 0  3.023478260869565 0.15 0  3.04 0.15 0  2.742608695652174 0.1666666666666667 0  2.759130434782609 0.1666666666666667 0  2.775652173913044 0.1666666666666667 0  2.792173913043478 0.1666666666666667 0  2.808695652173913 0.1666666666666667 0  2.825217391304347 0.1666666666666667 0  2.841739130434783 0.1666666666666667 0  2.858260869565217 0.1666666666666667 0  2.874782608695652 0.1666666666666667 0  2.891304347826087 0.1666666666666667 0  2.907826086956522 0.1666666666666667 0  2.924347826086957 0.1666666666666667 0  2.940869565217391 0.1666666666666667 0  2.957391304347826 0.1666666666666667 0  2.973913043478261 0.1666666666666667 0  2.990434782608696 0.1666666666666667 0  3.006956521739131 0.1666666666666667 0  3.023478260869565 0.1666666666666667 0  3.04 0.1666666666666667 0  3.056521739130435 0.1666666666666667 0  2.759130434782609 0.1833333333333333 0  2.775652173913044 0.1833333333333333 0  2.792173913043478 0.1833333333333333 0  2.808695652173913 0.1833333333333333 0  2.825217391304347 0.1833333333333333 0  2.841739130434783 0.1833333333333333 0  2.858260869565217 0.1833333333333333 0  2.874782608695652 0.1833333333333333 0  2.891304347826087 0.1833333333333333 0  2.907826086956522 0.1833333333333333 0  2.924347826086957 0.1833333333333333 0  2.940869565217391 0.1833333333333333 0  2.957391304347826 0.1833333333333333 0  2.973913043478261 0.1833333333333333 0  2.990434782608696 0.1833333333333333 0  3.006956521739131 0.1833333333333333 0  3.023478260869565 0.1833333333333333 0  3.04 0.1833333333333333 0  3.056521739130435 0.1833333333333333 0  3.073043478260869 0.1833333333333333 0  2.775652173913044 0.2 0  2.792173913043478 0.2 0  2.808695652173913 0.2 0  2.825217391304347 0.2 0  2.841739130434783 0.2 0  2.858260869565217 0.2 0  2.874782608695652 0.2 0  2.891304347826087 0.2 0  2.907826086956522 0.2 0  2.924347826086957 0.2 0  2.940869565217391 0.2 0  2.957391304347826 0.2 0  2.973913043478261 0.2 0  2.990434782608696 0.2 0  3.006956521739131 0.2 0  3.023478260869565 0.2 0  3.04 0.2 0  3.056521739130435 0.
[...]
<CellData  Scalars="rho"> 
<DataArray  type="Float64"  Name="rho"  format="ascii">7.6737856586814601e-01   7.4707302887816773e-01   7.6596773077106417e-01   7.4653097822559555e-01   7.6414047060858947e-01   7.4539917797803223e-01   7.6254327373370401e-01   7.4367657426334677e-01   7.6043052016496970e-01   7.4202085280509500e-01   7.5768008648948104e-01   7.3977716705777286e-01   7.5448013882737008e-01   7.3700422326889226e-01   7.5146194350233753e-01   7.3415733453743759e-01   7.4971352731602436e-01   7.2935742989878649e-01   7.4795918648196247e-01   7.2975038382454827e-01   7.5069320848791354e-01   7.3139814699416850e-01   7.5980429186974818e-01   7.3926863955925182e-01   7.7221707414529062e-01   7.5076524904789688e-01   7.8593810408417086e-01   7.6431285619125078e-01   6.8826020671662003e-01   6.6967041619003065e-01   6.9061586904474737e-01   6.7339509903230499e-01   6.9440611230040061e-01   6.7874812597737788e-01   6.9107965577349195e-01   6.7755757229252545e-01   6.8583921562494587e-01   6.7346576807042802e-01   6.9394319248243641e-01   6.8082005698302261e-01   6.7864448423993906e-01   6.6802691097628786e-01   6.5952225109479556e-01   6.5996294365501085e-01   6.4330706778960123e-01   6.3286799171320207e-01   6.2016500274930964e-01   6.1976628674716905e-01   6.7503483126670272e-01   6.7335512321110436e-01   6.2413878662158229e-01   6.7276747894356859e-01   6.2262729932713834e-01   6.7190866537756022e-01   6.1955242946141642e-01   6.7008698641052633e-01   6.1768174495023087e-01   6.6783140782109041e-01   6.1636054658603223e-01   6.6837800538823522e-01   6.1651940543879324e-01   6.6451684915927589e-01   6.1331111420339002e-01   6.6246697348903516e-01   6.1309858289608954e-01   6.6482500494650631e-01   6.1490857294039269e-01   6.7062954336206304e-01   6.2216656611844434e-01   6.8017705943463114e-01   6.3085359226031845e-01   6.9270703450026549e-01   6.4182840598108837e-01   7.0633551686558516e-01   5.6032018985677567e-01   6.1462847502066587e-01   5.6651183309876252e-01   6.2079625979104847e-01   5.7507978022221806e-01   6.2483148027327651e-01   5.8338601885620212e-01   6.2379798563270628e-01   5.8480741703618477e-01   6.3439006320113289e-01   5.9711213207560554e-01   6.2033606547227427e-01   5.8747557915523785e-01   6.1625468514940618e-01   5.7044562730438086e-01   6.0139574116144079e-01   5.6902034554905179e-01   5.8430314403755168e-01   5.6003682001193766e-01   5.6807805705455938e-01   5.4075912374170720e-01   5.0627352945509685e-01   5.0725263773571183e-01   4.4267067830624335e-01   5.0823090922392966e-01   4.4444469354819294e-01   5.0728486781233373e-01   4.4615934721296141e-01   5.0787717785897823e-01   4.4593565594610718e-01   5.0500072557173770e-01   4.4730283768366980e-01   5.0525136792603831e-01   4.4876216273738923e-01   5.0674041104754985e-01   4.5094886713333787e-01   5.1048542047997347e-01   4.5193246398651843e-01   5.1702071769299951e-01   4.5737915107452942e-01   5.2577490092578116e-01   4.6552487031664519e-01   4.6283754208751671e-01   4.0463255280386007e-01   4.7009768558294224e-01   4.1531522149155348e-01   4.8239715899008018e-01   4.2517487744941307e-01   4.8978601158817586e-01   4.3290176948388792e-01   4.9323505314831850e-01   4.5006451922545282e-01   5.0665883472997586e-01   4.5358600284786604e-01   5.0017852767993798e-01   4.5399543427123273e-01   4.9810881408940116e-01   4.5157023846102667e-01   4.9295148179209369e-01   4.4634386244572744e-01   4.8373670050171841e-01   4.4288641395961326e-01   4.7335015303607469e-01   4.3408280923385129e-01   4.6345356880689659e-01   4.2702773554140194e-01   4.1794041927554992e-01   3.3016380399531808e-01   3.3293426076809723e-01   2.8253956871928104e-01   3.4035202409886783e-01   2.8520684177306727e-01   3.4302772009766902e-01   2.8793228273989302e-01   3.4417164051986698e-01   2.9476118673735674e-01   3.4693791065972923e-01   2.9796983423583534e-01   3.5059345242098805e-01   3.0134029982394445e-01   3.5578080294202796e-01   2.6827157763955267e-01   3.1139521268550580e-01   2.7319244142120314e-01   3.2173604080620821e-01   2.7969639817789615e-01   3.3016142490751815e-01   2.8839014995499829e-01   3.3880277068298292e-01   3.0965143259589556e-01   3.6081216339400612e-01   3.1662610030788491e-01   3.6362383767287748e-01   3.2347638814112972e-01   3.6706817241604978e-01   3.3037160001655913e-01   3.7231097173734334e-01   3.3635569819908229e-01   3.7220144736430716e-01   3.3626727450727711e-01   3.7483556273675123e-01   3.3570119326386344e-01   3.7378009249939403e-01   3.3573846861514223e-01   3.6893791411820404e-01   3.3239573129285238e-01   3.6321199681927319e-01   3.2859047244694223e-01   3.5909400201596681e-01   3.2721303185390072e-01   3.4986371648935305e-01   3.2176296968458679e-01   1.9630496769738320e-01   2.0203224365667469e-01   1.6047455975416330e-01   2.0584684555980273e-01   1.6273925403605274e-01   2.0642653479127299e-01   1.5628306924923799e-01   1.9136563318290328e-01   1.5785341332723676e-01   2.0154332433541888e-01   1.6856300049025333e-01   2.0568482606581009e-01   1.8895052256512346e-01   2.2095950831767755e-01   1.9329208079073032e-01   2.2742799052056056e-01   1.9958804510909434e-01   2.3210527112172147e-01   2.0528017249693570e-01   2.4508361567094070e-01   2.1278770599009011e-01   2.5518610316465845e-01   2.2027485173563086e-01   2.6081920882650483e-01   2.2621937052034563e-01   2.6818747110857638e-01   2.3414593031716779e-01   2.7013220589611125e-01   2.3747803571641374e-01   2.7200683431033279e-01   2.3960868155027959e-01   2.7274201173442597e-01   2.4052968521940260e-01   2.7225624160193557e-01   2.4131447118995944e-01   2.7114419733303230e-01   2.4237163971378706e-01   2.7318572080700987e-01   2.4372955315372102e-01   2.6892067183474350e-01   2.4763296631763060e-01   2.7732691570737772e-01   2.5727460921865553e-01   2.7323604550078134e-01   1.3697186746009096e-01   1.3539614758490617e-01   1.2293233000128444e-01   1.3676628910283828e-01   1.2401589939562850e-01   1.3802597373009487e-01   1.2573799018000562e-01   1.1946885849531177e-01   1.2682353121464560e-01   1.3326213033305120e-01   1.2740718087543165e-01   1.3639168485557526e-01   1.1912421960757874e-01   1.4013737529466702e-01   1.2242640657768832e-01   1.4484502988653433e-01   1.2598472978551292e-01   1.5028776242617709e-01   1.3228906759029185e-01   1.6902187928192919e-01   1.3720198106838880e-01   1.7738470167675285e-01   1.4459153036253772e-01   1.8618951582713228e-01   1.6314449794364502e-01   1.8959294556030853e-01   1.7139394864521315e-01   1.9946954505192291e-01   1.7562818635975266e-01   2.0319971799489628e-01   1.8075886461222493e-01   2.0652357965842563e-01   1.9279280691637582e-01   2.1076716741438228e-01   1.9820629026922842e-01   2.1757939030726411e-01   2.0623804151774625e-01   2.2903751242215314e-01   2.1865616344730135e-01   2.5143086820361710e-01   2.4120703119512993e-01   2.7242717706535197e-01   2.6414138785122177e-01   1.0799460080031123e-01   1.0779074118584440e-01   1.1415230400056117e-01   1.0746100519963284e-01   1.0987254379249702e-01   1.0713364785150012e-01   1.0564868325903923e-01   1.0718802933425302e-01   1.0659684281093725e-01   1.0902814682950120e-01   1.0640704398496728e-01   1.1197647889083867e-01   1.0714585030255944e-01   1.0605190327424956e-01   1.1195655567700330e-01   1.1152522706635226e-01   1.1481332388127942e-01   1.1796998227419235e-01   1.1213466867902432e-01   1.2311357322924900e-01   1.1720726851633766e-01   1.3406411672493018e-01   1.2880639666110619e-01   1.5680832660683042e-01   1.5265764759959599e-01   1.6366561523511536e-01   1.6019958393701225e-01   1.7168629992802231e-01   1.6834669184200751e-01   1.8548808181748436e-01   1.8421327928010148e-01   1.9501879803768676e-01   1.9430952553102668e-01   2.1450493008720137e-01   2.1338061559226265e-01   2.3155167755967310e-01   2.2796000737239072e-01   2.5344856429116092e-01   2.5387328494069178e-01   2.8012296708624612e-01   2.8349864523685170e-01   3.2106757464663083e-01   1.3993922916210197e-01   1.3599499888851807e-01   3.0988896577035178e-02   1.6884613627163005e-02   2.8688461526431317e-02   1.1367940739561011e-01   2.4930260688261680e-02   1.1028611287302191e-01   2.3041051892619815e-02   1.0525495990288375e-01   2.0321654009163550e-02   1.0649903603751869e-01   1.1499375739384705e-01   1.1047420395666949e-01   1.1613202239645841e-01   1.1468233073828682e-01   1.1904907812684141e-01   1.3153590480111296e-01   1.3563952764696333e-01   1.3933021822666622e-01   1.4375210860561172e-01   1.6482049901690235e-01   1.6982664161064692e-01   1.7513304072126243e-01   1.8066833920776967e-01   1.9328460151922003e-01   1.9974521436139980e-01   2.0107575896531132e-01   2.1095309688788808e-01   2.2295850194796088e-01   2.3126278122595112e-01   2.4509890967417056e-01   2.5566378466657691e-01   2.7317843633828814e-01   2.8425338086742241e-01   3.0617602595543453e-01   3.1656703071286824e-01   3.4213245960434424e-01   3.5547301187401903e-01   3.9599908206458773e-01   4.0463059859689349e-01   4.6241432213224153e-02   4.1874720994594654e-02   6.3655437279568877e-02   3.9162909991123124e-02   5.3452447729180688e-02   4.0151725570905530e-02   5.1962222075326109e-02   4.2373067622450439e-02   5.3070626892029626e-02   4.7564434677203921e-02   5.7332343603913191e-02   5.5909822425330130e-02   6.5786670263575986e-02   7.4521881703708007e-02   7.7528598942114071e-02   8.8021461796326389e-02   1.0535974745464022e-01   1.9851517014504511e-01   1.3018853625041621e-01   2.1370154427299115e-01   1.4740846159207735e-01   2.3148406041943012e-01   2.4219838462969173e-01   2.5405911168993384e-01   2.6581875724514370e-01   2.8149703439816498e-01   2.9425943585490716e-01   3.1131415551289177e-01   3.2467040037217626e-01   3.4217068689027147e-01   3.5706904781185755e-01   3.8159477776362272e-01   3.9591858898784232e-01   4.2379672985306899e-01   4.3519655479488734e-01   4.6657138755511635e-01   4.7555361300352639e-01   5.1910512891590244e-01   9.6057906713067645e-02   8.8106309972322952e-02   1.0403620769480207e-01   8.2661727057585371e-02   1.0161360569462963e-01   8.4064249832896412e-02   9.8603811682719186e-02   9.3839468992778827e-02   1.0907533092996267e-01   1.0507087976154719e-01   1.1918650121444020e-01   1.1769725219040821e-01   1.3032190492470694e-01   1.4605007323514241e-01   1.5141193426316096e-01   1.7936447962777829e-01   1.9368407273035124e-01   2.0433161402983258e-01   2.2029844102377566e-01   2.2563972374183910e-01   2.4312325380106128e-01   2.5452562272307727e-01   2.7291210916086817e-01   2.8982308352146852e-01   3.0804769506647545e-01   3.2509347259141225e-01   3.4417399121342068e-01   4.2472446624064225e-01   3.8416946167049676e-01   4.5905639196458609e-01   4.7153964335032239e-01   4.9063415950459000e-01   5.0101865627164621e-01   5.2354001933254934e-01   5.3098792405833517e-01   5.8186797169334314e-01   6.1508229316374374e-01   6.3495974548524470e-01   1.5046591705938492e-01   1.4647114255868812e-01   1.5875578308084892e-01   1.5197595276911038e-01   1.6261212389749283e-01   1.6073682029240788e-01   1.7152474561526956e-01   1.7430238891068409e-01   1.8483329360227457e-01   1.8995755337064896e-01   2.0026868493835764e-01   2.1635657359454491e-01   2.2601553763863233e-01   2.5648229206630385e-01   2.6660701784916752e-01   2.8409672576998507e-01   2.9498887256016837e-01   3.1769405389027089e-01   3.3126688130753379e-01   3.4958107128694438e-01   3.6546441459624163e-01   3.8262674171961364e-01   4.1185437894942917e-01   4.3154885986114339e-01   4.6358829647338307e-01   4.6899447095711955e-01   5.0288983731387449e-01   4.9879295328652257e-01   5.2764373083891503e-01   5.2184365393384169e-01   5.4618466047167025e-01   6.2917957046242201e-01   5.7533153538183401e-01   6.4700080704291163e-01   6.4759550365718055e-01   6.5062888108094341e-01   6.5102113960782115e-01   6.4011269408509019e-01   1.7260110181462679e-01   1.7990876668827410e-01   1.8163852499436106e-01   1.9373172214203749e-01   1.9504833995521409e-01   2.2303243872964382e-01   2.1106683008815214e-01   2.4890595433417873e-01   2.4818609555219087e-01   2.8137211918828253e-01   2.8177188274395198e-01   3.2190380657246126e-01   3.2108403940860081e-01   3.5491115014767172e-01   3.5002303806663299e-01   4.0377806690309276e-01   4.0670537383898470e-01   4.4550321097729656e-01   4.5205630387813822e-01   4.8113391801044469e-01   4.8788173314958094e-01   5.2208408935177009e-01   5.2947033793508058e-01   5.6476467943368436e-01   5.6291936721621816e-01   5.6285318512451710e-01   5.9395928030569445e-01   5.6814400354560912e-01   5.7111754823761651e-01   5.8539355159464768e-01   5.7541237457264871e-01   6.3169395082133417e-01   5.6908983273503488e-01   6.2741741840398069e-01   5.8936592412864275e-01   5.8441263645588493e-01   5.7674406719399463e-01   5.2222893517692714e-01   2.0166231355048900e-01   2.1475758815954921e-01   1.9924703011672584e-01   2.4181376618245445e-01   2.2425442499585224e-01   2.7646663682269079e-01   2.5879514389783942e-01   3.1674500865156024e-01   3.1024065320213717e-01   3.4997402368733899e-01   3.4798601749441610e-01   4.0368391020165867e-01   3.8511695564845250e-01   4.5234141733572680e-01   4.5323101325686499e-01   4.9817217674800024e-01   5.0173104496055843e-01   5.4904339938770819e-01   5.4642067008065476e-01   5.7475236745568692e-01   5.8450437035506242e-01   5.8586115258334914e-01   5.9328188342174204e-01   5.9826434821880137e-01   5.8656132938281602e-01   5.6496116671098762e-01   5.6504197633885667e-01   5.5628806979824141e-01   5.4912600992012417e-01   5.4382132878861633e-01   5.3261494129001363e-01   5.2607445298757682e-01   5.1591630511801712e-01   5.0176407682854307e-01   4.9598228992345350e-01   4.8402137459711853e-01   4.7593117851252509e-01   4.4054285368481494e-01   2.2586577217507728e-01   2.5746797612182720e-01   2.6433543273512233e-01   3.1154403919538659e-01   3.0843952283867254e-01   3.4937116495228931e-01   3.6553219463189041e-01   3.7935418436661511e-01   3.8939811758695253e-01   4.4779998707913876e-01   4.2684652783261773e-01   4.9641781876431357e-01   5.0352485024829297e-01   5.5583476117433150e-01   5.6257524111983415e-01   5.8164306581438452e-01   5.8981392821497025e-01   6.0019241167548709e-01   6.0232882868504967e-01   5.9378026728821209e-01   6.0011628242852566e-01   5.4922640834607994e-01   5.5927584041769507e-01   5.2613736143654299e-01   5.3387798294549482e-01   5.2625196783839157e-01   5.0558463471142900e-01   5.0848829713627353e-01   4.9988308366518802e-01   4.8834770011284645e-01   4.7844506503547646e-01   4.6594720630475178e-01   4.6154562181105563e-01   4.4202145307449359e-01   4.3586596656754228e-01   3.9697302793710437e-01   4.0813700267138320e-01   3.4846829938614071e-01   3.0774199813233216e-01   3.6226091323441034e-01   3.6145041555595009e-01   4.0204672971658362e-01   4.0382081876144510e-01   4.2879762419959405e-01   4.3338312428947856e-01   5.3221056914782661e-01   4.7997863522133166e-01   5.6191064507973354e-01   5.9202777383036154e-01   6.1041003925104809e-01   6.1276042671325048e-01   6.0657631043617899e-01   6.2860769178657050e-01   5.9889761158565757e-01   5.9876873447709622e-01   5.7183354996024449e-01   5.7157542474409084e-01   5.3565815130868899e-01   5.3763068805597747e-01   5.1127894229001580e-01   5.1144286796833616e-01   4.7962627294950860e-01   4.7894179069585346e-01   4.5939540564351861e-01   4.5638558400297086e-01   4.3440510138520916e-01   4.0766748138306169e-01   3.9251670896337654e-01   3.8598617017358616e-01   3.7243697678664600e-01   3.6695741102123902e-01   3.4787498161921937e-01   3.4140491788367217e-01   3.0878398400692358e-01   3.1011157516641158e-01   2.7278675078570264e-01   4.0175452105857551e-01   4.4448907091950085e-01   4.4508534321944954e-01   4.7394567999911230e-01   4.8045704261968686e-01   5.9257980298672230e-01   5.3511063525968139e-01   6.3656273697157018e-01   6.3311922089224792e-01   6.2587275303354428e-01   6.5459769664068435e-01   6.1501415744141419e-01   6.1537848533952910e-01   5.7373233845532345e-01   5.5069474731558943e-01   5.3030914604214208e-01   5.2917739727722679e-01   5.1034636779973597e-01   5.0921108681112337e-01   4.7647967592307711e-01   4.7453253672769974e-01   4.2766607048489591e-01   4.2452501883421423e-01   3.9805740596750050e-01   3.9356687131665441e-01   3.7255813805219046e-01   3.6597292993722669e-01   3.5100276080951065e-01   3.4369854532973027e-01   3.3028814871038387e-01   3.2124478433303566e-01   3.0529838745617627e-01   2.8686466229771995e-01   2.5931717008551813e-01   2.6017054372501808e-01   2.2615419512058951e-01   2.2836004863665979e-01   1.5210676605322676e-01   4.8756555710519317e-01   5.1950155062200087e-01   5.5798099364719600e-01   6.3264666546134030e-01   6.4794842444237599e-01   6.5125276481625793e-01   6.6714180682982005e-01   5.8606984892335445e-01   5.8825708312864455e-01   5.4860416896246977e-01   5.5564518298400645e-01   5.1803600371754910e-01   5.1853935333518786e-01   4.9681367854950692e-01   4.9223436347307431e-01   4.5126882310288541e-01   4.5091372877786268e-01   4.0997178162352754e-01   4.1019369636568709e-01   3.7633309822988165e-01   3.7129092297295330e-01   3.2153831325208160e-01   3.1733082477750096e-01   2.9449069171924724e-01   2.9459504148113691e-01   2.7499804022817970e-01   2.6758141831835813e-01   2.6698210965625380e-01   2.4421130406253480e-01   2.4155664091145870e-01   2.3506522949391945e-01   1.8966980697033814e-01   1.8075224320960043e-01   1.4515215189720140e-01   1.5474155088928146e-01   1.1242676078467552e-01   1.1328567663618301e-01   7.3396483159510362e-02   5.9766228725785864e-01   6.6154649671452337e-01   6.2227776569253213e-01   5.9063494411591588e-01   5.9257097994509056e-01   5.5854098747229686e-01   5.6092492116010306e-01   5.2973651335248184e-01   5.3161776928113624e-01   4.8947043429764975e-01   4.9858478646733889e-01   4.4805217408347542e-01   4.4865611901119673e-01   4.0658605725321872e-01   4.0598109107886476e-01   3.6807044661973998e-01   3.6589241408963502e-01   3.1017329789256448e-01   3.0753742115007754e-01   2.8383309258535089e-01   2.7923206532877876e-01   2.5293544479916591e-01   2.4624111640293081e-01   2.2743513752577479e-01   2.1921938421388756e-01   1.8226154076796389e-01   1.7385560505755343e-01   1.6423752873503492e-01   1.5504596825739383e-01   1.4253614050047422e-01   1.3737894448800489e-01   1.0712558569812718e-01   1.1606768026009369e-01   8.4411945684006437e-02   7.3028113238101530e-02   4.3340927642280182e-02   3.9531901772918147e-02   5.5088384124936437e-03   6.1416202194405856e-01   5.7730791763325295e-01   5.7872332662942305e-01   5.4600372261049113e-01   5.4424193139916044e-01   5.1301889461066130e-01   5.0815939701570778e-01   4.4576688702594830e-01   4.4313677211063901e-01   4.0120362958059114e-01   3.9197447486629289e-01   3.5865507961598558e-01   3.4767396980673154e-01   3.1804106857881281e-01   3.0625913473822741e-01   2.6881407974227345e-01   2.5985783805895796e-01   2.3176170410257202e-01   2.2047934461123406e-01   2.0108826612246575e-01   1.8555097767703818e-01   1.5265892252650026e-01   1.3578799310639614e-01   1.3166306114133527e-01   1.1276893368058968e-01   1.0667888018179196e-01   7.6690944467507280e-02   7.9520990317227702e-02   5.3871502476421661e-02   4.2889465671489893e-02   3.0501891262013036e-02   1.9678709003426043e-02   6.8053301045721409e-03   0.0000000000000000e+00   0.0000000000000000e+00   0.0000000000000000e+00   0.0000000000000000e+00   0.0000000000000000e+00   5.2068818069599698e-01   4.8271551119975747e-01   4.7575892955557619e-01   4.1847291691487709e-01   4.1176276867028905e-01   3.6472863723566440e-01   3.5759694616561710e-01   3.0624632719336609e-01   3.0177836750105319e-01   2.6286873038049585e-01   2.5275834047592582e-01   2.3214524170637660e-01   2.2066365972937185e-01   1.8559414838590169e-01   1.7450522166597904e-01   1.4601931192933060e-01   1.3598229726989511e-01   9.4428241722945477e-02   1.0127365326204141e-01   6.5388133558195269e-02   5.0600454191895551e-02   4.7239117571021449e-02   3.0221499320553812