<?xml version="1.0"?>
<VTKFile type="UnstructuredGrid"  version="0.1"  >
<UnstructuredGrid>
<Piece  NumberOfPoints="639" NumberOfCells="1175">
<Points>
<DataArray  type="Float64"  NumberOfComponents="3"  format="ascii">1.321739130434783 0 0  1.338260869565217 0 0  1.338260869565217 0.01666666666666667 0  1.354782608695652 0 0  1.354782608695652 0.01666666666666667 0  1.371304347826087 0 0  1.371304347826087 0.01666666666666667 0  1.387826086956522 0 0  1.387826086956522 0.01666666666666667 0  1.404347826086957 0 0  1.404347826086957 0.01666666666666667 0  1.420869565217391 0 0  1.420869565217391 0.01666666666666667 0  1.437391304347826 0 0  1.437391304347826 0.01666666666666667 0  1.453913043478261 0 0  1.453913043478261 0.01666666666666667 0  1.470434782608696 0 0  1.470434782608696 0.01666666666666667 0  1.486956521739131 0 0  1.486956521739131 0.01666666666666667 0  1.503478260869565 0 0  1.503478260869565 0.01666666666666667 0  1.52 0 0  1.52 0.01666666666666667 0  1.536521739130435 0 0  1.536521739130435 0.01666666666666667 0  1.55304347826087 0 0  1.55304347826087 0.01666666666666667 0  1.569565217391304 0 0  1.569565217391304 0.01666666666666667 0  1.586086956521739 0 0  1.586086956521739 0.01666666666666667 0  1.602608695652174 0 0  1.602608695652174 0.01666666666666667 0  1.619130434782609 0 0  1.619130434782609 0.01666666666666667 0  1.635652173913043 0 0  1.635652173913043 0.01666666666666667 0  1.652173913043478 0 0  1.652173913043478 0.01666666666666667 0  1.668695652173913 0 0  1.668695652173913 0.01666666666666667 0  1.685217391304348 0 0  1.685217391304348 0.01666666666666667 0  1.701739130434782 0 0  1.701739130434782 0.01666666666666667 0  1.718260869565217 0 0  1.718260869565217 0.01666666666666667 0  1.734782608695652 0 0  1.734782608695652 0.01666666666666667 0  1.751304347826087 0 0  1.751304347826087 0.01666666666666667 0  1.767826086956522 0 0  1.767826086956522 0.01666666666666667 0  1.784347826086957 0 0  1.784347826086957 0.01666666666666667 0  1.800869565217391 0 0  1.800869565217391 0.01666666666666667 0  1.817391304347826 0 0  1.817391304347826 0.01666666666666667 0  1.833913043478261 0 0  1.833913043478261 0.01666666666666667 0  1.850434782608696 0 0  1.850434782608696 0.01666666666666667 0  1.86695652173913 0 0  1.86695652173913 0.01666666666666667 0  1.883478260869565 0 0  1.883478260869565 0.01666666666666667 0  1.354782608695652 0.03333333333333333 0  1.371304347826087 0.03333333333333333 0  1.387826086956522 0.03333333333333333 0  1.404347826086957 0.03333333333333333 0  1.420869565217391 0.03333333333333333 0  1.437391304347826 0.03333333333333333 0  1.453913043478261 0.03333333333333333 0  1.470434782608696 0.03333333333333333 0  1.486956521739131 0.03333333333333333 0  1.503478260869565 0.03333333333333333 0  1.52 0.03333333333333333 0  1.536521739130435 0.03333333333333333 0  1.55304347826087 0.03333333333333333 0  1.569565217391304 0.03333333333333333 0  1.586086956521739 0.03333333333333333 0  1.602608695652174 0.03333333333333333 0  1.619130434782609 0.03333333333333333 0  1.635652173913043 0.03333333333333333 0  1.652173913043478 0.03333333333333333 0  1.668695652173913 0.03333333333333333 0  1.685217391304348 0.03333333333333333 0  1.701739130434782 0.03333333333333333 0  1.718260869565217 0.03333333333333333 0  1.734782608695652 0.03333333333333333 0  1.751304347826087 0.03333333333333333 0  1.767826086956522 0.03333333333333333 0  1.784347826086957 0.03333333333333333 0  1.800869565217391 0.03333333333333333 0  1.817391304347826 0.03333333333333333 0  1.833913043478261 0.03333333333333333 0  1.850434782608696 0.03333333333333333 0  1.86695652173913 0.03333333333333333 0  1.883478260869565 0.03333333333333333 0  1.371304347826087 0.05 0  1.387826086956522 0.05 0  1.404347826086957 0.05 0  1.420869565217391 0.05 0  1.437391304347826 0.05 0  1.453913043478261 0.05 0  1.470434782608696 0.05 0  1.486956521739131 0.05 0  1.503478260869565 0.05 0  1.52 0.05 0  1.536521739130435 0.05 0  1.55304347826087 0.05 0  1.569565217391304 0.05 0  1.586086956521739 0.05 0  1.602608695652174 0.05 0  1.619130434782609 0.05 0  1.635652173913043 0.05 0  1.652173913043478 0.05 0  1.668695652173913 0.05 0  1.685217391304348 0.05 0  1.701739130434782 0.05 0  1.718260869565217 0.05 0  1.734782608695652 0.05 0  1.751304347826087 0.05 0  1.767826086956522 0.05 0  1.784347826086957 0.05 0  1.800869565217391 0.05 0  1.817391304347826 0.05 0  1.833913043478261 0.05 0  1.850434782608696 0.05 0  1.86695652173913 0.05 0  1.883478260869565 0.05 0  1.387826086956522 0.06666666666666667 0  1.404347826086957 0.06666666666666667 0  1.420869565217391 0.06666666666666667 0  1.437391304347826 0.06666666666666667 0  1.453913043478261 0.06666666666666667 0  1.470434782608696 0.06666666666666667 0  1.486956521739131 0.06666666666666667 0  1.503478260869565 0.06666666666666667 0  1.52 0.06666666666666667 0  1.536521739130435 0.06666666666666667 0  1.55304347826087 0.06666666666666667 0  1.569565217391304 0.06666666666666667 0  1.586086956521739 0.06666666666666667 0  1.602608695652174 0.06666666666666667 0  1.619130434782609 0.06666666666666667 0  1.635652173913043 0.06666666666666667 0  1.652173913043478 0.06666666666666667 0  1.668695652173913 0.06666666666666667 0  1.685217391304348 0.06666666666666667 0  1.701739130434782 0.06666666666666667 0  1.718260869565217 0.06666666666666667 0  1.734782608695652 0.06666666666666667 0  1.751304347826087 0.06666666666666667 0  1.767826086956522 0.06666666666666667 0  1.784347826086957 0.06666666666666667 0  1.800869565217391 0.06666666666666667 0  1.817391304347826 0.06666666666666667 0  1.833913043478261 0.06666666666666667 0  1.850434782608696 0.06666666666666667 0  1.86695652173913 0.06666666666666667 0  1.883478260869565 0.06666666666666667 0  1.404347826086957 0.08333333333333333 0  1.420869565217391 0.08333333333333333 0  1.437391304347826 0.08333333333333333 0  1.453913043478261 0.08333333333333333 0  1.470434782608696 0.08333333333333333 0  1.486956521739131 0.08333333333333333 0  1.503478260869565 0.08333333333333333 0  1.52 0.08333333333333333 0  1.536521739130435 0.08333333333333333 0  1.55304347826087 0.08333333333333333 0  1.569565217391304 0.08333333333333333 0  1.586086956521739 0.08333333333333333 0  1.602608695652174 0.08333333333333333 0  1.619130434782609 0.08333333333333333 0  1.635652173913043 0.08333333333333333 0  1.652173913043478 0.08333333333333333 0  1.668695652173913 0.08333333333333333 0  1.685217391304348 0.08333333333333333 0  1.701739130434782 0.08333333333333333 0  1.718260869565217 0.08333333333333333 0  1.734782608695652 0.08333333333333333 0  1.751304347826087 0.08333333333333333 0  1.767826086956522 0.08333333333333333 0  1.784347826086957 0.08333333333333333 0  1.800869565217391 0.08333333333333333 0  1.817391304347826 0.08333333333333333 0  1.833913043478261 0.08333333333333333 0  1.850434782608696 0.08333333333333333 0  1.86695652173913 0.08333333333333333 0  1.883478260869565 0.08333333333333333 0  1.420869565217391 0.1 0  1.437391304347826 0.1 0  1.453913043478261 0.1 0  1.470434782608696 0.1 0  1.486956521739131 0.1 0  1.503478260869565 0.1 0  1.52 0.1 0  1.536521739130435 0.1 0  1.55304347826087 0.1 0  1.569565217391304 0.1 0  1.586086956521739 0.1 0  1.602608695652174 0.1 0  1.619130434782609 0.1 0  1.635652173913043 0.1 0  1.652173913043478 0.1 0  1.668695652173913 0.1 0  1.685217391304348 0.1 0  1.701739130434782 0.1 0  1.718260869565217 0.1 0  1.734782608695652 0.1 0  1.751304347826087 0.1 0  1.767826086956522 0.1 0  1.784347826086957 0.1 0  1.800869565217391 0.1 0  1.817391304347826 0.1 0  1.833913043478261 0.1 0  1.850434782608696 0.1 0  1.86695652173913 0.1 0  1.883478260869565 0.1 0  1.437391304347826 0.1166666666666667 0  1.453913043478261 0.1166666666666667 0  1.470434782608696 0.1166666666666667 0  1.486956521739131 0.1166666666666667 0  1.503478260869565 0.1166666666666667 0  1.52 0.1166666666666667 0  1.536521739130435 0.1166666666666667 0  1.55304347826087 0.1166666666666667 0  1.569565217391304 0.1166666666666667 0  1.586086956521739 0.1166666666666667 0  1.602608695652174 0.1166666666666667 0  1.619130434782609 0.1166666666666667 0  1.635652173913043 0.1166666666666667 0  1.652173913043478 0.1166666666666667 0  1.668695652173913 0.1166666666666667 0  1.685217391304348 0.1166666666666667 0  1.701739130434782 0.1166666666666667 0  1.718260869565217 0.1166666666666667 0  1.734782608695652 0.1166666666666667 0  1.751304347826087 0.1166666666666667 0  1.767826086956522 0.1166666666666667 0  1.784347826086957 0.1166666666666667 0  1.800869565217391 0.1166666666666667 0  1.817391304347826 0.1166666666666667 0  1.833913043478261 0.1166666666666667 0  1.850434782608696 0.1166666666666667 0  1.86695652173913 0.1166666666666667 0  1.883478260869565 0.1166666666666667 0  1.453913043478261 0.1333333333333333 0  1.470434782608696 0.1333333333333333 0  1.486956521739131 0.1333333333333333 0  1.503478260869565 0.1333333333333333 0  1.52 0.1333333333333333 0  1.536521739130435 0.1333333333333333 0  1.55304347826087 0.1333333333333333 0  1.569565217391304 0.1333333333333333 0  1.586086956521739 0.1333333333333333 0  1.602608695652174 0.1333333333333333 0  1.619130434782609 0.1333333333333333 0  1.635652173913043 0.1333333333333333 0  1.652173913043478 0.1333333333333333 0  1.668695652173913 0.1333333333333333 0  1.685217391304348 0.1333333333333333 0  1.701739130434782 0.1333333333333333 0  1.718260869565217 0.1333333333333333 0  1.734782608695652 0.1333333333333333 0  1.751304347826087 0.1333333333333333 0  1.767826086956522 0.1333333333333333 0  1.784347826086957 0.1333333333333333 0  1.800869565217391 0.1333333333333333 0  1.817391304347826 0.1333333333333333 0  1.833913043478261 0.1333333333333333 0  1.850434782608696 0.1333333333333333 0  1.86695652173913 0.1333333333333333 0  1.883478260869565 0.1333333333333333 0  1.470434782608696 0.15 0  1.486956521739131 0.15 0  1.503478260869565 0.15 0  1.52 0.15 0  1.5365217391304
[...]
<PointData  Vectors="Displacement"> 
<DataArray  type="Float64"  Name="Displacement"  NumberOfComponents="3" format="ascii">1.6437877471654804e-04 1.3963528878539542e-03 0.0000000000000000e+00  1.6602573402274223e-04 1.4122679168573425e-03 0.0000000000000000e+00  1.5009856993488370e-04 1.4116801198968969e-03 0.0000000000000000e+00  1.6766639968851833e-04 1.4279470489401383e-03 0.0000000000000000e+00  1.5198009845564944e-04 1.4273603223253120e-03 0.0000000000000000e+00  1.6930084365822712e-04 1.4433846979193207e-03 0.0000000000000000e+00  1.5386126358314615e-04 1.4427988535414861e-03 0.0000000000000000e+00  1.7092898322739180e-04 1.4585756216623955e-03 0.0000000000000000e+00  1.5574237393422901e-04 1.4579903098478118e-03 0.0000000000000000e+00  1.7255038725355964e-04 1.4735143534895182e-03 0.0000000000000000e+00  1.5762440997381765e-04 1.4729289059317670e-03 0.0000000000000000e+00  1.7416443072678338e-04 1.4881953743163955e-03 0.0000000000000000e+00  1.5950928989481725e-04 1.4876072992638949e-03 0.0000000000000000e+00  1.7577006105798525e-04 1.5026170698279162e-03 0.0000000000000000e+00  1.6140223810636267e-04 1.5020179259043181e-03 0.0000000000000000e+00  1.7735972683552301e-04 1.5167824222505244e-03 0.0000000000000000e+00  1.6332280382476511e-04 1.5161564764131976e-03 0.0000000000000000e+00  1.7889082070907548e-04 1.5306392887631077e-03 0.0000000000000000e+00  1.6532818983471347e-04 1.5300052232753640e-03 0.0000000000000000e+00  1.8030721427918843e-04 1.5439106827877522e-03 0.0000000000000000e+00  1.6746982647860377e-04 1.5433302786315426e-03 0.0000000000000000e+00  1.8165973074853401e-04 1.5561910332551688e-03 0.0000000000000000e+00  1.6968232171917478e-04 1.5556570367833858e-03 0.0000000000000000e+00  1.8305934741825783e-04 1.5675095498073133e-03 0.0000000000000000e+00  1.7179704051806740e-04 1.5669784838792408e-03 0.0000000000000000e+00  1.8454178563215797e-04 1.5782303807797976e-03 0.0000000000000000e+00  1.7373631909482014e-04 1.5777194666924711e-03 0.0000000000000000e+00  1.8613254462578188e-04 1.5886093728311012e-03 0.0000000000000000e+00  1.7549897011706337e-04 1.5880969509503803e-03 0.0000000000000000e+00  1.8785424266348335e-04 1.5989711869963882e-03 0.0000000000000000e+00  1.7711333932305461e-04 1.5984321261327402e-03 0.0000000000000000e+00  1.8969263726954742e-04 1.6095969901623937e-03 0.0000000000000000e+00  1.7865805590042808e-04 1.6090357575284904e-03 0.0000000000000000e+00  1.9158909382083631e-04 1.6206590908973038e-03 0.0000000000000000e+00  1.8015265084306493e-04 1.6201051695707445e-03 0.0000000000000000e+00  1.9352377401562953e-04 1.6321414288676189e-03 0.0000000000000000e+00  1.8162405243787337e-04 1.6315947875094391e-03 0.0000000000000000e+00  1.9556222189819324e-04 1.6439904841799365e-03 0.0000000000000000e+00  1.8313425325387775e-04 1.6434179630685204e-03 0.0000000000000000e+00  1.9780862920375778e-04 1.6562713426916272e-03 0.0000000000000000e+00  1.8474180364921473e-04 1.6556402167774568e-03 0.0000000000000000e+00  2.0035121267792671e-04 1.6691616412983119e-03 0.0000000000000000e+00  1.8647980883439749e-04 1.6684516173687887e-03 0.0000000000000000e+00  2.0323147766110938e-04 1.6829175969011556e-03 0.0000000000000000e+00  1.8834596963042830e-04 1.6821261982084097e-03 0.0000000000000000e+00  2.0643786283383109e-04 1.6978280141325198e-03 0.0000000000000000e+00  1.9030468899272949e-04 1.6969679693103934e-03 0.0000000000000000e+00  2.0990410280515847e-04 1.7141922395973229e-03 0.0000000000000000e+00  1.9228501637982894e-04 1.7132962454067377e-03 0.0000000000000000e+00  2.1357270376915803e-04 1.7322043230153391e-03 0.0000000000000000e+00  1.9424690089408979e-04 1.7312811679383159e-03 0.0000000000000000e+00  2.1735202273419181e-04 1.7521695634488026e-03 0.0000000000000000e+00  1.9608997108624068e-04 1.7512488165167799e-03 0.0000000000000000e+00  2.2121740566486092e-04 1.7742060782502019e-03 0.0000000000000000e+00  1.9785424979960637e-04 1.7732316367707675e-03 0.0000000000000000e+00  2.2498370030870393e-04 1.7987232201004731e-03 0.0000000000000000e+00  1.9947796237973102e-04 1.7977813818632722e-03 0.0000000000000000e+00  2.2843402085639603e-04 1.8255763814629862e-03 0.0000000000000000e+00  2.0096795587542604e-04 1.8247096409518197e-03 0.0000000000000000e+00  2.3144059305608243e-04 1.8543468024082564e-03 0.0000000000000000e+00  2.0238011703025744e-04 1.8535642493536070e-03 0.0000000000000000e+00  2.3394339138701903e-04 1.8845406638219122e-03 0.0000000000000000e+00  2.0375865783002934e-04 1.8838428753154019e-03 0.0000000000000000e+00  2.3591192296449552e-04 1.9156203374644343e-03 0.0000000000000000e+00  2.0513854662492059e-04 1.9150131228839842e-03 0.0000000000000000e+00  2.3732985418978077e-04 1.9470068710395790e-03 0.0000000000000000e+00  2.0653036712459062e-04 1.9465020993808396e-03 0.0000000000000000e+00  2.3820077934732115e-04 1.9781175642129604e-03 0.0000000000000000e+00  2.0791055422473062e-04 1.9777202350348966e-03 0.0000000000000000e+00  1.3629458216425102e-04 1.4266925636233453e-03 0.0000000000000000e+00  1.3842212464223503e-04 1.4421303152542685e-03 0.0000000000000000e+00  1.4055419581338274e-04 1.4573205914504435e-03 0.0000000000000000e+00  1.4269192941258836e-04 1.4722573892544057e-03 0.0000000000000000e+00  1.4483727872143342e-04 1.4869337470728400e-03 0.0000000000000000e+00  1.4698648424769218e-04 1.5013392536844549e-03 0.0000000000000000e+00  1.4913386754882208e-04 1.5154521382310068e-03 0.0000000000000000e+00  1.5133974489198049e-04 1.5292115362501735e-03 0.0000000000000000e+00  1.5406933663089070e-04 1.5424590955103745e-03 0.0000000000000000e+00  1.5770922902411967e-04 1.5548372265614800e-03 0.0000000000000000e+00  1.6103570602113879e-04 1.5663109632177729e-03 0.0000000000000000e+00  1.6326285623328448e-04 1.5770834310987049e-03 0.0000000000000000e+00  1.6531114769467411e-04 1.5876450446068047e-03 0.0000000000000000e+00  1.6661620699091800e-04 1.5979864015079209e-03 0.0000000000000000e+00  1.6771713560200468e-04 1.6085845228470683e-03 0.0000000000000000e+00  1.6870406509513712e-04 1.6197346259927724e-03 0.0000000000000000e+00  1.6960353295920519e-04 1.6312994266206129e-03 0.0000000000000000e+00  1.7048883969586834e-04 1.6431182570745527e-03 0.0000000000000000e+00  1.7140566957300871e-04 1.6552882163911279e-03 0.0000000000000000e+00  1.7235157281156929e-04 1.6680314089046625e-03 0.0000000000000000e+00  1.7328096677616059e-04 1.6816525895156896e-03 0.0000000000000000e+00  1.7412006025697307e-04 1.6964741937452801e-03 0.0000000000000000e+00  1.7474525129382423e-04 1.7128569503484141e-03 0.0000000000000000e+00  1.7514771724444589e-04 1.7308545532868313e-03 0.0000000000000000e+00  1.7520197805108735e-04 1.7509834958769827e-03 0.0000000000000000e+00  1.7490030637679912e-04 1.7728293595523541e-03 0.0000000000000000e+00  1.7431038062731840e-04 1.7974505587559227e-03 0.0000000000000000e+00  1.7370387758105325e-04 1.8244141688981109e-03 0.0000000000000000e+00  1.7341534694056949e-04 1.8532280797481601e-03 0.0000000000000000e+00  1.7361002397014709e-04 1.8834291788705523e-03 0.0000000000000000e+00  1.7435539556040730e-04 1.9144879350505165e-03 0.0000000000000000e+00  1.7575672543118415e-04 1.9459159462435454e-03 0.0000000000000000e+00  1.7768746698063815e-04 1.9770663657911300e-03 0.0000000000000000e+00  1.2285906081810661e-04 1.4414220139115669e-03 0.0000000000000000e+00  1.2523730907316284e-04 1.4566109116269394e-03 0.0000000000000000e+00  1.2763031966515703e-04 1.4715459133111766e-03 0.0000000000000000e+00  1.3004563928563015e-04 1.4862199948768066e-03 0.0000000000000000e+00  1.3265752627354306e-04 1.5006206699277741e-03 0.0000000000000000e+00  1.3734665281880712e-04 1.5148780888029148e-03 0.0000000000000000e+00  1.4118063877764425e-04 1.5286034649842322e-03 0.0000000000000000e+00  1.4441525580493003e-04 1.5416230229505614e-03 0.0000000000000000e+00  1.4746212746545839e-04 1.5538928181615802e-03 0.0000000000000000e+00  1.5028636173787906e-04 1.5655832514460356e-03 0.0000000000000000e+00  1.5277189376310043e-04 1.5765795939904927e-03 0.0000000000000000e+00  1.5531680761083852e-04 1.5870759424037348e-03 0.0000000000000000e+00  1.5658412727622868e-04 1.5977896201646751e-03 0.0000000000000000e+00  1.5700130287770963e-04 1.6083267673710966e-03 0.0000000000000000e+00  1.5729417752641530e-04 1.6196034345964732e-03 0.0000000000000000e+00  1.5756623371686955e-04 1.6313142438976493e-03 0.0000000000000000e+00  1.5784053449308927e-04 1.6431176140337769e-03 0.0000000000000000e+00  1.5813377002611457e-04 1.6551991684352156e-03 0.0000000000000000e+00  1.5840382683674444e-04 1.6678422949193094e-03 0.0000000000000000e+00  1.5854399635105966e-04 1.6814015052665950e-03 0.0000000000000000e+00  1.5843637118567006e-04 1.6962228474758864e-03 0.0000000000000000e+00  1.5787172988773409e-04 1.7127744123126751e-03 0.0000000000000000e+00  1.5692444890529769e-04 1.7307278444558562e-03 0.0000000000000000e+00  1.5547779782542441e-04 1.7510256991980382e-03 0.0000000000000000e+00  1.5430146442189019e-04 1.7726309993920737e-03 0.0000000000000000e+00  1.5100814631653376e-04 1.7974446699428300e-03 0.0000000000000000e+00  1.4748893976532907e-04 1.8245042009251986e-03 0.0000000000000000e+00  1.4482506412392095e-04 1.8532678686586431e-03 0.0000000000000000e+00  1.4315910401669686e-04 1.8833654286984122e-03 0.0000000000000000e+00  1.4872256682810372e-04 1.9160163942000660e-03 0.0000000000000000e+00  1.5111979069058434e-04 1.9468971273110362e-03 0.0000000000000000e+00  1.5169224833355607e-04 1.9773569036324826e-03 0.0000000000000000e+00  1.2058428370834072e-04 1.4561355471004636e-03 0.0000000000000000e+00  1.2265741450827067e-04 1.4711874812647580e-03 0.0000000000000000e+00  1.2483432565576610e-04 1.4859056081451703e-03 0.0000000000000000e+00  1.2721085349381861e-04 1.5002344132347592e-03 0.0000000000000000e+00  1.2991323951986662e-04 1.5140923466741454e-03 0.0000000000000000e+00  1.3271536590445384e-04 1.5278890295866215e-03 0.0000000000000000e+00  1.3535702006860345e-04 1.5410759431866107e-03 0.0000000000000000e+00  1.3779930035475447e-04 1.5535482519348056e-03 0.0000000000000000e+00  1.4001704450049458e-04 1.5654389324240539e-03 0.0000000000000000e+00  1.4197095737703146e-04 1.5767667379465984e-03 0.0000000000000000e+00  1.4359319855987998e-04 1.5876392457927942e-03 0.0000000000000000e+00  1.4478801706476586e-04 1.5984797477135695e-03 0.0000000000000000e+00  1.4559360427080805e-04 1.6083287502876402e-03 0.0000000000000000e+00  1.4557349391845762e-04 1.6196869589195488e-03 0.0000000000000000e+00  1.4545821614759069e-04 1.6316447742860170e-03 0.0000000000000000e+00  1.4532459729341862e-04 1.6433659563769329e-03 0.0000000000000000e+00  1.4520378767765558e-04 1.6552733213564639e-03 0.0000000000000000e+00  1.4504011967288925e-04 1.6677336822375319e-03 0.0000000000000000e+00  1.4468506377382617e-04 1.6812037104558749e-03 0.0000000000000000e+00  1.4392501156401666e-04 1.6959618602240554e-03 0.0000000000000000e+00  1.4257730884794417e-04 1.7127293554768440e-03 0.0000000000000000e+00  1.4095711787171744e-04 1.7306316469337510e-03 0.0000000000000000e+00  1.3670635036015165e-04 1.7512915221944280e-03 0.0000000000000000e+00  1.3252832332487493e-04 1.7730291424229024e-03 0.0000000000000000e+00  1.3421938922561171e-04 1.8029122787746015e-03 0.0000000000000000e+00  1.3309846188915120e-04 1.8303657728423899e-03 0.0000000000000000e+00  1.3172709693107056e-04 1.8584036659948797e-03 0.0000000000000000e+00  1.3103538436991360e-04 1.8873074431339017e-03 0.0000000000000000e+00  1.3167543569713163e-04 1.9169415787722744e-03 0.0000000000000000e+00  1.3306657437898664e-04 1.9474913221380131e-03 0.0000000000000000e+00  1.3422512166182902e-04 1.9774596394942965e-03 0.0000000000000000e+00  1.1717723214060010e-04 1.4711908837476064e-03 0.0000000000000000e+00  1.1893452901386490e-04 1.4859838659481137e-03 0.0000000000000000e+00  1.2077453788217140e-04 1.5003506362911184e-03 0.0000000000000000e+00  1.2269278033431042e-04 1.5142802318210385e-03 0.0000000000000000e+00  1.2464115991653126e-04 1.5279611082674404e-03 0.0000000000000000e+00  1.2658953007620001e-04 1.5411729908047496e-03 0.0000000000000000e+00  1.2843068686832010e-04 1.5537924398664857e-03 0.0000000000000000e+00  1.3008887225439511e-04 1.5658679789948774e-03 0.0000000000000000e+00  1.3151194404319643e-04 1.5774552539342653e-03 0.0000000000000000e+00  1.3263377545132390e-04 1.5886610594301317e-03 0.0000000000000000e+00  1.3341680898162710e-04 1.5996589231686918e-03 0.0000000000000000e+00  1.3384458330880205e-04 1.6101376163314043e-03 0.0000000000000000e+00  1.3357190350206927e-04 1.6201729028840371e-03 0.0000000000000000e+00  1.3335867877921418e-04 1.6322087684541402e-03 0.0000000000000000e+00  1.3315685730473807e-04 1.6437301197303438e-03 0.0000000000000000e+00  1.3290943422130538e-04 1.6553330461318806e-03 0.0000000000000000e+00  1.3264078587619057e-04 1.6674627852334303e-03 0.0000000000000000e+00  1.3217710168401790e-04 1.6807330555029939e-03 0.0000000000000000e+00  1.3141431252636454e-04 1.6954622263086892e-03 0.0000000000000000e+00  1.2827982074035363e-04 1.7127435435673117e-03 0.0000000000000000e+00  1.2838178970771708e-04 1.7355821297025075e-03 0.0000000000000000e+00  1.2604119097621528e-04 1.7579996258727541e-03 0.0000000000000000e+00  1.2312375832318094e-04 1.7811544793504782e-03 0.0000000000000000e+00  1.2074590076891814e-04 1.8076052351893471e-03 0.0000000000000000e+00  1.1941949532848345e-04 1.8352094209712307e-03 0.0000000000000000e+00  1.1809069708248974e-04 1.8629025264234533e-03 0.0000000000000000e+00  1.1712536919657042e-04 1.8910078441641172e-03 0.0000000000000000e+00  1.1676920633992845e-04 1.9195794000479510e-03 0.0000000000000000e+00  1.1704717484968042e-04 1.9487290066770712e-03 0.0000000000000000e+00  1.1788426487775342e-04 1.9777026826480262e-03 0.0000000000000000e+00  1.1260398467562825e-04 1.4865104121602639e-03 0.0000000000000000e+00  1.1396027905968802e-04 1.5009815998227132e-03 0.0000000000000000e+00  1.1532473603541394e-04 1.5150133509030817e-03 0.0000000000000000e+00  1.1668450432689475e-04 1.5286785339814922e-03 0.0000000000000000e+00  1.1803927038216620e-04 1.5418888471990144e-03 0.0000000000000000e+00  1.1933093916975272e-04 1.5545916415701543e-03 0.0000000000000000e+00  1.2048835510012930e-04 1.5668066256396621e-03 0.0000000000000000e+00  1.2144793165094410e-04 1.5785951051429563e-03 0.0000000000000000e+00  1.2214271747438765e-04 1.5900608643186404e-03 0.0000000000000000e+00  1.2251057333546723e-04 1.6012855261607110e-03 0.0000000000000000e+00  1.2254384966904158e-04 1.6122202837626769e-03 0.0000000000000000e+00  1.2228333973849102e-04 1.6233032574587696e-03 0.0000000000000000e+00  1.2200040950423553e-04 1.6331994297064500e-03 0.0000000000000000e+00  1.2177717722199847e-04 1.6440804481052482e-03 0.0000000000000000e+00  1.2155629447611684e-04 1.6552344751180404e-03 0.0000000000000000e+00  1.2135076774807391e-04 1.6667930036288979e-03 0.0000000000000000e+00  1.2102242654885332e-04 1.6798773382946533e-03 0.0000000000000000e+00  1.2037780526475542e-04 1.6942013133101727e-03 0.0000000000000000e+00  1.1953414660259910e-04 1.7174068665811513e-03 0.0000000000000000e+00  1.1705063925829326e-04 1.7401921691693168e-03 0.0000000000000000e+00  1.1444052482974667e-04 1.7638452775837205e-03 0.0000000000000000e+00  1.1143479073930383e-04 1.7879269115407101e-03 0.0000000000000000e+00  1.0848003122452781e-04 1.8136049817613533e-03 0.0000000000000000e+00  1.0615423266560841e-04 1.8402454281546876e-03 0.0000000000000000e+00  1.0436704558891932e-04 1.8673819114469860e-03 0.0000000000000000e+00  1.0299825959686612e-04 1.8948164272237680e-03 0.0000000000000000e+00  1.0211931753906488e-04 1.9225551211380265e-03 0.0000000000000000e+00  1.0179859132228026e-04 1.9505873939053629e-03 0.0000000000000000e+00  1.0207711764321879e-04 1.9784950290696150e-03 0.0000000000000000e+00  1.0691023019053032e-04 1.5020711128332848e-03 0.0000000000000000e+00  1.0783792191995266e-04 1.5162091792427230e-03 0.0000000000000000e+00  1.0874453366457682e-04 1.5299050540487726e-03 0.0000000000000000e+00  1.0963242420326787e-04 1.5431295727207266e-03 0.0000000000000000e+00  1.1046869005332735e-04 1.5558821318845065e-03 0.0000000000000000e+00  1.1120667186156010e-04 1.5681838769078598e-03 0.0000000000000000e+00  1.1179285752021043e-04 1.5801146986219674e-03 0.0000000000000000e+00  1.1214698667471459e-04 1.5917741717010436e-03 0.0000000000000000e+00  1.1225226318600494e-04 1.6032360409889256e-03 0.0000000000000000e+00  1.1202966341582395e-04 1.6143119608765233e-03 0.0000000000000000e+00  1.1198614989591027e-04 1.6250446181299346e-03 0.0000000000000000e+00  1.1178650383379768e-04 1.6340791522009305e-03 0.0000000000000000e+00  1.1157671551836498e-04 1.6443041175441394e-03 0.0000000000000000e+00  1.1147738623559329e-04 1.6549135956027189e-03 0.0000000000000000e+00  1.1149698447991703e-04 1.6656017862630886e-03 0.0000000000000000e+00  1.1158599393020170e-04 1.6773054893076812e-03 0.0000000000000000e+00  1.1127167485598636e-04 1.6980669749510314e-03 0.0000000000000000e+00  1.0861888582220152e-04 1.7216039719319060e-03 0.0000000000000000e+00  1.0566163564688947e-04 1.7456070678153171e-03 0.0000000000000000e+00  1.0235541711898732e-04 1.7697553543727991e-03 0.0000000000000000e+00  9.8991589160285257e-05 1.7942854865653480e-03 0.0000000000000000e+00  9.5736442292855464e-05 1.8196354215725445e-03 0.0000000000000000e+00  9.2917920447682759e-05 1.8456174745470203e-03 0.0000000000000000e+00  9.0624120046639775e-05 1.8720546890789713e-03 0.0000000000000000e+00  8.8834241342083820e-05 1.8987956898445101e-03 0.0000000000000000e+00  8.7540745589343661e-05 1.9257559107514204e-03 0.0000000000000000e+00  8.6773405998410663e-05 1.9528562458875930e-03 0.0000000000000000e+00  8.6553557456253125e-05 1.9798400216251046e-03 0.0000000000000000e+00  1.0026085251161784e-04 1.5178213543871975e-03 0.0000000000000000e+00  1.0081237149350772e-04 1.5315650116159570e-03 0.0000000000000000e+00  1.0134024851059770e-04 1.5448078380458181e-03 0.0000000000000000e+00  1.0181860258207322e-04 1.5575882878875057e-03 0.0000000000000000e+00  1.0223092354887128e-04 1.5699265540355379e-03 0.0000000000000000e+00  1.0252406531228299e-04 1.5819255943336206e-03 0.0000000000000000e+00  1.0265889365108722e-04 1.5937609594858279e-03 0.0000000000000000e+00  1.0249031746569748e-04 1.6052771018690384e-03 0.0000000000000000e+00  1.0265260833470122e-04 1.6166148105111247e-03 0.0000000000000000e+00  1.0258423398794673e-04 1.6255272494152438e-03 0.0000000000000000e+00  1.0240460011173040e-04 1.6346231555793751e-03 0.0000000000000000e+00  1.0217703260734237e-04 1.6443866582418463e-03 0.0000000000000000e+00  1.0209421375042369e-04 1.6545172835190978e-03 0.0000000000000000e+00  1.0213715063402775e-04 1.6646943373272735e-03 0.0000000000000000e+00  1.0232871147801221e-04 1.6748615238746387e-03 0.0000000000000000e+00  1.0094310797323071e-04 1.7011322831465812e-03 0.0000000000000000e+00  9.7525254155709362e-05 1.7265473726940186e-03 0.0000000000000000e+00  9.3678431509946081e-05 1.7513208789968272e-03 0.0000000000000000e+00  8.9807222493685127e-05 1.7759035699209591e-03 0.0000000000000000e+00  8.6041428362895135e-05 1.8005758169049851e-03 0.0000000000000000e+00  8.2514625710717698e-05 1.8256538555104038e-03 0.0000000000000000e+00  7.9389827806935177e-05 1.8511170003860128e-03 0.0000000000000000e+00  7.6746081255629314e-05 1.8769120736263647e-03 0.0000000000000000e+00  7.4603679841455419e-05 1.9029584402509316e-03 0.0000000000000000e+00  7.2961426615907363e-05 1.9291726602465443e-03 0.0000000000000000e+00  7.1822379138862074e-05 1.9554559090219350e-03 0.0000000000000000e+00  7.1181340621060581e-05 1.9816365226596293e-03 0.0000000000000000e+00  9.2897554253117240e-05 1.5336019827495561e-03 0.0000000000000000e+00  9.3165531159817078e-05 1.5468514307423211e-03 0.0000000000000000e+00  9.3384663515591102e-05 1.5596465080866791e-03 0.0000000000000000e+00  9.3554680226216031e-05 1.5719413415313601e-03 0.0000000000000000e+00  9.3706996565188350e-05 1.5839663056202297e-03 0.0000000000000000e+