<?xml version="1.0"?>
<VTKFile type="UnstructuredGrid"  version="0.1"  >
<UnstructuredGrid>
<Piece  NumberOfPoints="608" NumberOfCells="1117">
<Points>
<DataArray  type="Float64"  NumberOfComponents="3"  format="ascii">0.08260869565217391 0 0  0.09913043478260869 0 0  0.09913043478260869 0.01666666666666667 0  0.1156521739130435 0 0  0.1156521739130435 0.01666666666666667 0  0.1321739130434783 0 0  0.1321739130434783 0.01666666666666667 0  0.148695652173913 0 0  0.148695652173913 0.01666666666666667 0  0.1652173913043478 0 0  0.1652173913043478 0.01666666666666667 0  0.1817391304347826 0 0  0.1817391304347826 0.01666666666666667 0  0.1982608695652174 0 0  0.1982608695652174 0.01666666666666667 0  0.2147826086956522 0 0  0.2147826086956522 0.01666666666666667 0  0.2313043478260869 0 0  0.2313043478260869 0.01666666666666667 0  0.2478260869565218 0 0  0.2478260869565218 0.01666666666666667 0  0.2643478260869565 0 0  0.2643478260869565 0.01666666666666667 0  0.2808695652173913 0 0  0.2808695652173913 0.01666666666666667 0  0.2973913043478261 0 0  0.2973913043478261 0.01666666666666667 0  0.3139130434782609 0 0  0.3139130434782609 0.01666666666666667 0  0.3304347826086956 0 0  0.3304347826086956 0.01666666666666667 0  0.3469565217391304 0 0  0.3469565217391304 0.01666666666666667 0  0.3634782608695652 0 0  0.3634782608695652 0.01666666666666667 0  0.3799999999999999 0 0  0.3799999999999999 0.01666666666666667 0  0.3965217391304348 0 0  0.3965217391304348 0.01666666666666667 0  0.4130434782608696 0 0  0.4130434782608696 0.01666666666666667 0  0.4295652173913043 0.01666666666666667 0  0.1156521739130435 0.03333333333333333 0  0.1321739130434783 0.03333333333333333 0  0.148695652173913 0.03333333333333333 0  0.1652173913043478 0.03333333333333333 0  0.1817391304347826 0.03333333333333333 0  0.1982608695652174 0.03333333333333333 0  0.2147826086956522 0.03333333333333333 0  0.2313043478260869 0.03333333333333333 0  0.2478260869565218 0.03333333333333333 0  0.2643478260869565 0.03333333333333333 0  0.2808695652173913 0.03333333333333333 0  0.2973913043478261 0.03333333333333333 0  0.3139130434782609 0.03333333333333333 0  0.3304347826086956 0.03333333333333333 0  0.3469565217391304 0.03333333333333333 0  0.3634782608695652 0.03333333333333333 0  0.3799999999999999 0.03333333333333333 0  0.3965217391304348 0.03333333333333333 0  0.4130434782608696 0.03333333333333333 0  0.4295652173913043 0.03333333333333333 0  0.4460869565217391 0.03333333333333333 0  0.1321739130434783 0.05 0  0.148695652173913 0.05 0  0.1652173913043478 0.05 0  0.1817391304347826 0.05 0  0.1982608695652174 0.05 0  0.2147826086956522 0.05 0  0.2313043478260869 0.05 0  0.2478260869565218 0.05 0  0.2643478260869565 0.05 0  0.2808695652173913 0.05 0  0.2973913043478261 0.05 0  0.3139130434782609 0.05 0  0.3304347826086956 0.05 0  0.3469565217391304 0.05 0  0.3634782608695652 0.05 0  0.3799999999999999 0.05 0  0.3965217391304348 0.05 0  0.4130434782608696 0.05 0  0.4295652173913043 0.05 0  0.4460869565217391 0.05 0  0.4626086956521739 0.05 0  0.148695652173913 0.06666666666666667 0  0.1652173913043478 0.06666666666666667 0  0.1817391304347826 0.06666666666666667 0  0.1982608695652174 0.06666666666666667 0  0.2147826086956522 0.06666666666666667 0  0.2313043478260869 0.06666666666666667 0  0.2478260869565218 0.06666666666666667 0  0.2643478260869565 0.06666666666666667 0  0.2808695652173913 0.06666666666666667 0  0.2973913043478261 0.06666666666666667 0  0.3139130434782609 0.06666666666666667 0  0.3304347826086956 0.06666666666666667 0  0.3469565217391304 0.06666666666666667 0  0.3634782608695652 0.06666666666666667 0  0.3799999999999999 0.06666666666666667 0  0.3965217391304348 0.06666666666666667 0  0.4130434782608696 0.06666666666666667 0  0.4295652173913043 0.06666666666666667 0  0.4460869565217391 0.06666666666666667 0  0.4626086956521739 0.06666666666666667 0  0.4791304347826086 0.06666666666666667 0  0.1652173913043478 0.08333333333333333 0  0.1817391304347826 0.08333333333333333 0  0.1982608695652174 0.08333333333333333 0  0.2147826086956522 0.08333333333333333 0  0.2313043478260869 0.08333333333333333 0  0.2478260869565218 0.08333333333333333 0  0.2643478260869565 0.08333333333333333 0  0.2808695652173913 0.08333333333333333 0  0.2973913043478261 0.08333333333333333 0  0.3139130434782609 0.08333333333333333 0  0.3304347826086956 0.08333333333333333 0  0.3469565217391304 0.08333333333333333 0  0.3634782608695652 0.08333333333333333 0  0.3799999999999999 0.08333333333333333 0  0.3965217391304348 0.08333333333333333 0  0.4130434782608696 0.08333333333333333 0  0.4295652173913043 0.08333333333333333 0  0.4460869565217391 0.08333333333333333 0  0.4626086956521739 0.08333333333333333 0  0.4791304347826086 0.08333333333333333 0  0.4956521739130435 0.08333333333333333 0  0.1817391304347826 0.1 0  0.1982608695652174 0.1 0  0.2147826086956522 0.1 0  0.2313043478260869 0.1 0  0.2478260869565218 0.1 0  0.2643478260869565 0.1 0  0.2808695652173913 0.1 0  0.2973913043478261 0.1 0  0.3139130434782609 0.1 0  0.3304347826086956 0.1 0  0.3469565217391304 0.1 0  0.3634782608695652 0.1 0  0.3799999999999999 0.1 0  0.3965217391304348 0.1 0  0.4130434782608696 0.1 0  0.4295652173913043 0.1 0  0.4460869565217391 0.1 0  0.4626086956521739 0.1 0  0.4791304347826086 0.1 0  0.4956521739130435 0.1 0  0.5121739130434783 0.1 0  0.1982608695652174 0.1166666666666667 0  0.2147826086956522 0.1166666666666667 0  0.2313043478260869 0.1166666666666667 0  0.2478260869565218 0.1166666666666667 0  0.2643478260869565 0.1166666666666667 0  0.2808695652173913 0.1166666666666667 0  0.2973913043478261 0.1166666666666667 0  0.3139130434782609 0.1166666666666667 0  0.3304347826086956 0.1166666666666667 0  0.3469565217391304 0.1166666666666667 0  0.3634782608695652 0.1166666666666667 0  0.3799999999999999 0.1166666666666667 0  0.3965217391304348 0.1166666666666667 0  0.4130434782608696 0.1166666666666667 0  0.4295652173913043 0.1166666666666667 0  0.4460869565217391 0.1166666666666667 0  0.4626086956521739 0.1166666666666667 0  0.4791304347826086 0.1166666666666667 0  0.4956521739130435 0.1166666666666667 0  0.5121739130434783 0.1166666666666667 0  0.528695652173913 0.1166666666666667 0  0.2147826086956522 0.1333333333333333 0  0.2313043478260869 0.1333333333333333 0  0.2478260869565218 0.1333333333333333 0  0.2643478260869565 0.1333333333333333 0  0.2808695652173913 0.1333333333333333 0  0.2973913043478261 0.1333333333333333 0  0.3139130434782609 0.1333333333333333 0  0.3304347826086956 0.1333333333333333 0  0.3469565217391304 0.1333333333333333 0  0.3634782608695652 0.1333333333333333 0  0.3799999999999999 0.1333333333333333 0  0.3965217391304348 0.1333333333333333 0  0.4130434782608696 0.1333333333333333 0  0.4295652173913043 0.1333333333333333 0  0.4460869565217391 0.1333333333333333 0  0.4626086956521739 0.1333333333333333 0  0.4791304347826086 0.1333333333333333 0  0.4956521739130435 0.1333333333333333 0  0.5121739130434783 0.1333333333333333 0  0.528695652173913 0.1333333333333333 0  0.5452173913043478 0.1333333333333333 0  0.2313043478260869 0.15 0  0.2478260869565218 0.15 0  0.2643478260869565 0.15 0  0.2808695652173913 0.15 0  0.2973913043478261 0.15 0  0.3139130434782609 0.15 0  0.3304347826086956 0.15 0  0.3469565217391304 0.15 0  0.3634782608695652 0.15 0  0.3799999999999999 0.15 0  0.3965217391304348 0.15 0  0.4130434782608696 0.15 0  0.4295652173913043 0.15 0  0.4460869565217391 0.15 0  0.4626086956521739 0.15 0  0.4791304347826086 0.15 0  0.4956521739130435 0.15 0  0.5121739130434783 0.15 0  0.528695652173913 0.15 0  0.5452173913043478 0.15 0  0.5617391304347825 0.15 0  0.2478260869565218 0.1666666666666667 0  0.2643478260869565 0.1666666666666667 0  0.2808695652173913 0.1666666666666667 0  0.2973913043478261 0.1666666666666667 0  0.3139130434782609 0.1666666666666667 0  0.3304347826086956 0.1666666666666667 0  0.3469565217391304 0.1666666666666667 0  0.3634782608695652 0.1666666666666667 0  0.3799999999999999 0.1666666666666667 0  0.3965217391304348 0.1666666666666667 0  0.4130434782608696 0.1666666666666667 0  0.4295652173913043 0.1666666666666667 0  0.4460869565217391 0.1666666666666667 0  0.4626086956521739 0.1666666666666667 0  0.4791304347826086 0.1666666666666667 0  0.4956521739130435 0.1666666666666667 0  0.5121739130434783 0.1666666666666667 0  0.528695652173913 0.1666666666666667 0  0.5452173913043478 0.1666666666666667 0  0.5617391304347825 0.1666666666666667 0  0.5782608695652174 0.1666666666666667 0  0.2643478260869565 0.1833333333333333 0  0.2808695652173913 0.1833333333333333 0  0.2973913043478261 0.1833333333333333 0  0.3139130434782609 0.1833333333333333 0  0.3304347826086956 0.1833333333333333 0  0.3469565217391304 0.1833333333333333 0  0.3634782608695652 0.1833333333333333 0  0.3799999999999999 0.1833333333333333 0  0.3965217391304348 0.1833333333333333 0  0.4130434782608696 0.1833333333333333 0  0.4295652173913043 0.1833333333333333 0  0.4460869565217391 0.1833333333333333 0  0.4626086956521739 0.1833333333333333 0  0.4791304347826086 0.1833333333333333 0  0.4956521739130435 0.1833333333333333 0  0.5121739130434783 0.1833333333333333 0  0.528695652173913 0.1833333333333333 0  0.5452173913043478 0.1833333333333333 0  0.5617391304347825 0.1833333333333333 0  0.5782608695652174 0.1833333333333333 0  0.2808695652173913 0.2 0  0.2973913043478261 0.2 0  0.3139130434782609 0.2 0  0.3304347826086956 0.2 0  0.3469565217391304 0.2 0  0.3634782608695652 0.2 0  0.3799999999999999 0.2 0  0.3965217391304348 0.2 0  0.4130434782608696 0.2 0  0.4295652173913043 0.2 0  0.4460869565217391 0.2 0  0.4626086956521739 0.2 0  0.4791304347826086 0.2 0  0.4956521739130435 0.2 0  0.5121739130434783 0.2 0  0.528695652173913 0.2 0  0.5452173913043478 0.2 0  0.5617391304347825 0.2 0  0.5782608695652174 0.2 0  0.2973913043478261 0.2166666666666667 0  0.3139130434782609 0.2166666666666667 0  0.3304347826086956 0.2166666666666667 0  0.3469565217391304 0.2166666666666667 0  0.36347826086956
[...]
<PointData  Vectors="Displacement"> 
<DataArray  type="Float64"  Name="Displacement"  NumberOfComponents="3" format="ascii">3.6459582431312392e-05 4.1417676445043690e-05 0.0000000000000000e+00  4.3758208446584473e-05 5.8093152693939037e-05 0.0000000000000000e+00  2.5107222846620984e-05 5.6187153372869420e-05 0.0000000000000000e+00  5.1024454285625683e-05 7.8390388287548463e-05 0.0000000000000000e+00  2.8987770709954941e-05 7.6535973678765597e-05 0.0000000000000000e+00  5.8098720486335474e-05 1.0219917533929070e-04 0.0000000000000000e+00  3.2689887714170528e-05 1.0042646967036959e-04 0.0000000000000000e+00  6.4918969879149680e-05 1.2934419602752834e-04 0.0000000000000000e+00  3.6204797882154641e-05 1.2766563069059451e-04 0.0000000000000000e+00  7.1504346856497041e-05 1.5969204781338703e-04 0.0000000000000000e+00  3.9514567769492155e-05 1.5808569961335315e-04 0.0000000000000000e+00  7.7961332116556757e-05 1.9319089353600358e-04 0.0000000000000000e+00  4.2687249123909551e-05 1.9156597548438336e-04 0.0000000000000000e+00  8.4254510037086740e-05 2.3013260313644676e-04 0.0000000000000000e+00  4.5748165724870835e-05 2.2850134514954630e-04 0.0000000000000000e+00  9.0099609403914530e-05 2.7063217267508515e-04 0.0000000000000000e+00  4.8625109559107178e-05 2.6912736571763247e-04 0.0000000000000000e+00  9.5315400420394424e-05 3.1399773567953194e-04 0.0000000000000000e+00  5.1381982866178963e-05 3.1262268819658818e-04 0.0000000000000000e+00  9.9842936943521056e-05 3.5955300858983227e-04 0.0000000000000000e+00  5.4061241970120396e-05 3.5830614401273275e-04 0.0000000000000000e+00  1.0366198116420370e-04 4.0664041175932016e-04 0.0000000000000000e+00  5.6677138759178734e-05 4.0552349929758827e-04 0.0000000000000000e+00  1.0676612207609838e-04 4.5459736398345237e-04 0.0000000000000000e+00  5.9233753472658859e-05 4.5361191312692030e-04 0.0000000000000000e+00  1.0915341358681436e-04 5.0275553956682689e-04 0.0000000000000000e+00  6.1731706033348467e-05 5.0191193681537317e-04 0.0000000000000000e+00  1.1080705331946015e-04 5.5040955638321583e-04 0.0000000000000000e+00  6.4151363129185836e-05 5.4977537308296726e-04 0.0000000000000000e+00  1.1179528311563987e-04 5.9685687050243098e-04 0.0000000000000000e+00  6.6332542996137326e-05 5.9642538392658013e-04 0.0000000000000000e+00  1.1232968015075303e-04 6.4169402202458913e-04 0.0000000000000000e+00  6.8216020138295368e-05 6.4137183434074922e-04 0.0000000000000000e+00  1.1263015169115519e-04 6.8494982595067560e-04 0.0000000000000000e+00  6.9866362146177018e-05 6.8466369779573251e-04 0.0000000000000000e+00  1.1276029585239245e-04 7.2689869126060780e-04 0.0000000000000000e+00  7.1300028094125549e-05 7.2665895517118621e-04 0.0000000000000000e+00  1.1266867765868981e-04 7.6763951617464434e-04 0.0000000000000000e+00  7.2517932851034033e-05 7.6748923826050681e-04 0.0000000000000000e+00  1.1232643408787896e-04 8.0705387395723261e-04 0.0000000000000000e+00  7.3513104501752452e-05 8.0700572376109496e-04 0.0000000000000000e+00  7.4295966371334943e-05 8.4504132997754934e-04 0.0000000000000000e+00  7.3244917506898193e-06 7.5737016070480460e-05 0.0000000000000000e+00  7.6659968840198774e-06 9.9744328070037539e-05 0.0000000000000000e+00  7.8982470374707253e-06 1.2708528331882316e-04 0.0000000000000000e+00  8.0062289439950581e-06 1.5762647232736210e-04 0.0000000000000000e+00  7.9242677924996357e-06 1.9096960183658836e-04 0.0000000000000000e+00  7.6914128495423959e-06 2.2775215774695223e-04 0.0000000000000000e+00  7.4198246451964532e-06 2.6849364038857471e-04 0.0000000000000000e+00  7.6316057669328245e-06 3.1195791337298724e-04 0.0000000000000000e+00  8.4282755598418392e-06 3.5756427041220076e-04 0.0000000000000000e+00  9.8278976342303371e-06 4.0469713394694000e-04 0.0000000000000000e+00  1.1836126195395330e-05 4.5270001875292819e-04 0.0000000000000000e+00  1.4447235030366780e-05 5.0091198202834389e-04 0.0000000000000000e+00  1.7666102333115163e-05 5.4873404477380136e-04 0.0000000000000000e+00  2.1528386347444269e-05 5.9572793467923527e-04 0.0000000000000000e+00  2.4743270631389460e-05 6.4071712347206640e-04 0.0000000000000000e+00  2.7717556513122246e-05 6.8396688250157219e-04 0.0000000000000000e+00  3.0343575107637501e-05 7.2596923400679097e-04 0.0000000000000000e+00  3.2783557886805757e-05 7.6690453410985574e-04 0.0000000000000000e+00  3.5099677354661181e-05 8.0659145891268124e-04 0.0000000000000000e+00  3.7141747501833532e-05 8.4476965850512748e-04 0.0000000000000000e+00  3.8909136153267266e-05 8.8126870853607491e-04 0.0000000000000000e+00  -1.7147923533807463e-05 1.0009286590698640e-04 0.0000000000000000e+00  -2.0016065246731056e-05 1.2743876437723477e-04 0.0000000000000000e+00  -2.2662129071541931e-05 1.5786349952857056e-04 0.0000000000000000e+00  -2.4486774663747634e-05 1.9087265307116355e-04 0.0000000000000000e+00  -2.7705032064462755e-05 2.2757943165446949e-04 0.0000000000000000e+00  -3.2960068205678074e-05 2.6854997267276485e-04 0.0000000000000000e+00  -3.5910539032537505e-05 3.1190409387260647e-04 0.0000000000000000e+00  -3.7301039157115749e-05 3.5729933830044684e-04 0.0000000000000000e+00  -3.7439926809327057e-05 4.0420587981290063e-04 0.0000000000000000e+00  -3.6203288641050587e-05 4.5200118188587382e-04 0.0000000000000000e+00  -3.3652757685393006e-05 4.9999124491835727e-04 0.0000000000000000e+00  -3.0014355001333733e-05 5.4758311798925176e-04 0.0000000000000000e+00  -2.5093094201400371e-05 5.9432578942840745e-04 0.0000000000000000e+00  -1.8572152293611218e-05 6.3956909537260097e-04 0.0000000000000000e+00  -1.2938586604620973e-05 6.8320820423883096e-04 0.0000000000000000e+00  -1.0156947790795048e-05 7.2489509264662760e-04 0.0000000000000000e+00  -6.6786888077341529e-06 7.6593244661070576e-04 0.0000000000000000e+00  -3.1609210089265825e-06 8.0561835319409888e-04 0.0000000000000000e+00  7.5971369534906760e-07 8.4430491293247401e-04 0.0000000000000000e+00  3.5501335913705249e-06 8.8072350009899209e-04 0.0000000000000000e+00  5.8984453808673431e-06 9.1619972579554056e-04 0.0000000000000000e+00  -4.6469795275179564e-05 1.2829915225767089e-04 0.0000000000000000e+00  -5.3342232548939542e-05 1.5874467227183889e-04 0.0000000000000000e+00  -4.5985654617842457e-05 1.9472594739283075e-04 0.0000000000000000e+00  -4.4625000882578455e-05 2.3133940459747889e-04 0.0000000000000000e+00  -4.5714025631445882e-05 2.7095843351806120e-04 0.0000000000000000e+00  -4.7240900898853993e-05 3.1226972608410181e-04 0.0000000000000000e+00  -4.8335457837129954e-05 3.5548581127742957e-04 0.0000000000000000e+00  -4.8690296729873301e-05 4.0015849685667848e-04 0.0000000000000000e+00  -4.8176027243744716e-05 4.4571075259338896e-04 0.0000000000000000e+00  -4.6802464659698017e-05 4.9161580364306371e-04 0.0000000000000000e+00  -4.4731224099281974e-05 5.3741145618276572e-04 0.0000000000000000e+00  -4.2253958383200474e-05 5.8269488236396111e-04 0.0000000000000000e+00  -3.9940718753686059e-05 6.2722912322828032e-04 0.0000000000000000e+00  -3.9002117748204474e-05 6.7149177423128528e-04 0.0000000000000000e+00  -4.1161039315478845e-05 7.1601272000825682e-04 0.0000000000000000e+00  -4.8062040987210108e-05 7.6477077854658127e-04 0.0000000000000000e+00  -4.1367421626245119e-05 8.0440810936522158e-04 0.0000000000000000e+00  -3.6220026491363142e-05 8.4289192812006032e-04 0.0000000000000000e+00  -3.0170708651497639e-05 8.8016753218149056e-04 0.0000000000000000e+00  -2.7820557963882123e-05 9.1553136912110328e-04 0.0000000000000000e+00  -2.5150997064398870e-05 9.5065343045357934e-04 0.0000000000000000e+00  -5.0115269718122698e-05 1.6427542682683646e-04 0.0000000000000000e+00  -5.2124080220459051e-05 1.9610203239066318e-04 0.0000000000000000e+00  -5.3123893752860762e-05 2.3268779223491193e-04 0.0000000000000000e+00  -5.4656742987280519e-05 2.7142160842832713e-04 0.0000000000000000e+00  -5.6269962868325381e-05 3.1160630240686319e-04 0.0000000000000000e+00  -5.7656071367297805e-05 3.5325516428221974e-04 0.0000000000000000e+00  -5.8543691485643686e-05 3.9615110191823131e-04 0.0000000000000000e+00  -5.8826646700063349e-05 4.3990518541555057e-04 0.0000000000000000e+00  -5.8534832953439200e-05 4.8412579624464348e-04 0.0000000000000000e+00  -5.7815238977621154e-05 5.2847419716592966e-04 0.0000000000000000e+00  -5.6930413530883743e-05 5.7269117810968082e-04 0.0000000000000000e+00  -5.6263027196512288e-05 6.1670098025299160e-04 0.0000000000000000e+00  -5.6242418457791694e-05 6.6080322382701504e-04 0.0000000000000000e+00  -5.7033380734836807e-05 7.0528593297680730e-04 0.0000000000000000e+00  -5.7904353029884968e-05 7.5053188991420063e-04 0.0000000000000000e+00  -5.6905593218527901e-05 7.8950281535974823e-04 0.0000000000000000e+00  -5.6266377482848053e-05 8.2915560227510190e-04 0.0000000000000000e+00  -5.7675489663255417e-05 8.6915430467799878e-04 0.0000000000000000e+00  -6.2826274912873727e-05 9.1454085928992853e-04 0.0000000000000000e+00  -5.7040814017899503e-05 9.5020562804516739e-04 0.0000000000000000e+00  -5.4179998114148085e-05 9.8510084357911242e-04 0.0000000000000000e+00  -5.5300464894991978e-05 1.9974693572296303e-04 0.0000000000000000e+00  -5.8536067128986502e-05 2.3446780729746496e-04 0.0000000000000000e+00  -6.1178480046068207e-05 2.7176361309590944e-04 0.0000000000000000e+00  -6.3461231874597588e-05 3.1065938348176812e-04 0.0000000000000000e+00  -6.5403909360808304e-05 3.5091030060915775e-04 0.0000000000000000e+00  -6.6926929927254479e-05 3.9229027561733543e-04 0.0000000000000000e+00  -6.7986261015664414e-05 4.3451828384582781e-04 0.0000000000000000e+00  -6.8619576340926388e-05 4.7730412209213302e-04 0.0000000000000000e+00  -6.8940660164883480e-05 5.2039354239805536e-04 0.0000000000000000e+00  -6.9124469738369619e-05 5.6360031845580278e-04 0.0000000000000000e+00  -6.9375599851119764e-05 6.0685693926235606e-04 0.0000000000000000e+00  -6.9842649994987521e-05 6.5024013191583509e-04 0.0000000000000000e+00  -7.0476346478535892e-05 6.9370992689092646e-04 0.0000000000000000e+00  -7.0959176846376244e-05 7.3681050507471335e-04 0.0000000000000000e+00  -7.1155644681233113e-05 7.7682947194833061e-04 0.0000000000000000e+00  -7.2167846497085361e-05 8.1695296522207655e-04 0.0000000000000000e+00  -7.3992841118954440e-05 8.5785738958132777e-04 0.0000000000000000e+00  -7.6315399262824425e-05 9.0069917767202296e-04 0.0000000000000000e+00  -7.7944575309326652e-05 9.3898513400470331e-04 0.0000000000000000e+00  -8.1551048210566662e-05 9.8307131491257005e-04 0.0000000000000000e+00  -8.2237527879414177e-05 1.0193618988913848e-03 0.0000000000000000e+00  -6.2332196868235945e-05 2.3645034386909824e-04 0.0000000000000000e+00  -6.5959663520344323e-05 2.7219732441864257e-04 0.0000000000000000e+00  -6.9032397510067586e-05 3.0970153782225370e-04 0.0000000000000000e+00  -7.1650278894012153e-05 3.4859153599120767e-04 0.0000000000000000e+00  -7.3842066841332818e-05 3.8859665510942228e-04 0.0000000000000000e+00  -7.5626403454023578e-05 4.2946756040863259e-04 0.0000000000000000e+00  -7.7052567379637895e-05 4.7096940013501232e-04 0.0000000000000000e+00  -7.8208852729062472e-05 5.1289661322054714e-04 0.0000000000000000e+00  -7.9211559701959284e-05 5.5509097196413206e-04 0.0000000000000000e+00  -8.0178418675592937e-05 5.9745769258264555e-04 0.0000000000000000e+00  -8.1181689354636139e-05 6.3994226190134675e-04 0.0000000000000000e+00  -8.2206469470928663e-05 6.8237831297390090e-04 0.0000000000000000e+00  -8.3199932294838972e-05 7.2432337754601422e-04 0.0000000000000000e+00  -8.4332299161955833e-05 7.6480587062657162e-04 0.0000000000000000e+00  -8.6192628710242183e-05 8.0528411466877835e-04 0.0000000000000000e+00  -8.8751323473757265e-05 8.4630940969026192e-04 0.0000000000000000e+00  -9.1878535591285613e-05 8.8819810144555496e-04 0.0000000000000000e+00  -9.5702424647588617e-05 9.2899660754538203e-04 0.0000000000000000e+00  -1.0146230443243118e-04 9.7331851888476299e-04 0.0000000000000000e+00  -1.0887441364070847e-04 1.0207759532089007e-03 0.0000000000000000e+00  -1.0756082257341245e-04 1.0531318455555914e-03 0.0000000000000000e+00  -6.9532552781586805e-05 2.7258882575358355e-04 0.0000000000000000e+00  -7.3280364946032558e-05 3.0875206745523701e-04 0.0000000000000000e+00  -7.6541685589854105e-05 3.4633209056473678e-04 0.0000000000000000e+00  -7.9368482514430121e-05 3.8505212387985845e-04 0.0000000000000000e+00  -8.1808489089733462e-05 4.2467472212311070e-04 0.0000000000000000e+00  -8.3919752053140039e-05 4.6499075891777929e-04 0.0000000000000000e+00  -8.5777127032606252e-05 5.0581932450084613e-04 0.0000000000000000e+00  -8.7467249740450184e-05 5.4701214238427921e-04 0.0000000000000000e+00  -8.9073921139034182e-05 5.8845339615846699e-04 0.0000000000000000e+00  -9.0658730716062228e-05 6.3003338813400422e-04 0.0000000000000000e+00  -9.2257718817708868e-05 6.7157363507740892e-04 0.0000000000000000e+00  -9.3932069976772743e-05 7.1278064191347495e-04 0.0000000000000000e+00  -9.5882888404629011e-05 7.5333332595032155e-04 0.0000000000000000e+00  -9.8445902182413313e-05 7.9393256487645791e-04 0.0000000000000000e+00  -1.0165845797762268e-04 8.3495257162464641e-04 0.0000000000000000e+00  -1.0549935281984841e-04 8.7659616978557437e-04 0.0000000000000000e+00  -1.1009124988071809e-04 9.1852151448099236e-04 0.0000000000000000e+00  -1.1578681975474914e-04 9.6283964038955611e-04 0.0000000000000000e+00  -1.2206761389873235e-04 1.0094942431747667e-03 0.0000000000000000e+00  -1.2866257742753041e-04 1.0571959169974419e-03 0.0000000000000000e+00  -1.2878679609136507e-04 1.0834606409493659e-03 0.0000000000000000e+00  -7.6440891198318328e-05 3.0772603989040530e-04 0.0000000000000000e+00  -8.0238843855240364e-05 3.4408497748926768e-04 0.0000000000000000e+00  -8.3617625766678230e-05 3.8160391922499039e-04 0.0000000000000000e+00  -8.6627136078596575e-05 4.2006243407445630e-04 0.0000000000000000e+00  -8.9325796404582055e-05 4.5926765756891427e-04 0.0000000000000000e+00  -9.1780842397288080e-05 4.9905242995099141e-04 0.0000000000000000e+00  -9.4065484501444662e-05 5.3927385319217842e-04 0.0000000000000000e+00  -9.6252515332685365e-05 5.7980806852738073e-04 0.0000000000000000e+00  -9.8408737502416488e-05 6.2053242529051529e-04 0.0000000000000000e+00  -1.0060192352402060e-04 6.6129537662008614e-04 0.0000000000000000e+00  -1.0293282514783366e-04 7.0192190751783832e-04 0.0000000000000000e+00  -1.0557698823795065e-04 7.4232219176189685e-04 0.0000000000000000e+00  -1.0874450058029042e-04 7.8285439632365416e-04 0.0000000000000000e+00  -1.1249707199135665e-04 8.2377180715936815e-04 0.0000000000000000e+00  -1.1684283702702014e-04 8.6526106086869505e-04 0.0000000000000000e+00  -1.2180290271286907e-04 9.0743546115951254e-04 0.0000000000000000e+00  -1.2734088733625516e-04 9.5130133529625310e-04 0.0000000000000000e+00  -1.3290214634904349e-04 9.9696822955056908e-04 0.0000000000000000e+00  -1.3798289759772112e-04 1.0440701557930814e-03 0.0000000000000000e+00  -1.4574194202786537e-04 1.0863937540583606e-03 0.0000000000000000e+00  -1.4571717753187601e-04 1.1064874854790066e-03 0.0000000000000000e+00  -8.2872825847138561e-05 3.4177227977357096e-04 0.0000000000000000e+00  -8.6698421853524798e-05 3.7817872911088799e-04 0.0000000000000000e+00  -9.0179503370110315e-05 4.1555110643179519e-04 0.0000000000000000e+00  -9.3368582247889393e-05 4.5371261870051058e-04 0.0000000000000000e+00  -9.6326315104388233e-05 4.9250753770600385e-04 0.0000000000000000e+00  -9.9118949438992916e-05 5.3179933452253197e-04 0.0000000000000000e+00  -1.0181576579717670e-04 5.7146595075156900e-04 0.0000000000000000e+00  -1.0448885973764366e-04 6.1139053844788574e-04 0.0000000000000000e+00  -1.0722039615741826e-04 6.5145345947966696e-04 0.0000000000000000e+00  -1.1011934141111361e-04 6.9155151312491104e-04 0.0000000000000000e+00  -1.1333292724337758e-04 7.3167069224447194e-04 0.0000000000000000e+00  -1.1701337576556959e-04 7.7200733300368399e-04 0.0000000000000000e+00  -1.2124196497206327e-04 8.1273958741149839e-04 0.0000000000000000e+00  -1.2607177695528584e-04 8.5404000735444564e-04 0.0000000000000000e+00  -1.3156336670531909e-04 8.9612056165586486e-04 0.0000000000000000e+00  -1.3777004911613591e-04 9.3954196377171934e-04 0.0000000000000000e+00  -1.4466029216558081e-04 9.8460821357734059e-04 0.0000000000000000e+00  -1.5241398272333408e-04 1.0321625016057705e-03 0.0000000000000000e+00  -1.6052681168897347e-04 1.0883715126950336e-03 0.0000000000000000e+00  -1.5977119096588041e-04 1.1079295346978085e-03 0.0000000000000000e+00  -1.5896903837735995e-04 1.1240043711588075e-03 0.0000000000000000e+00  -8.8700600851885080e-05 3.7469802020891047e-04 0.0000000000000000e+00  -9.2551073781130689e-05 4.1106039003981272e-04 0.0000000000000000e+00  -9.6132073722262135e-05 4.4824280282121858e-04 0.0000000000000000e+00  -9.9497236157120727e-05 4.8610184704999141e-04 0.0000000000000000e+00  -1.0270719965940452e-04 5.2450976061145451e-04 0.0000000000000000e+00  -1.0582836210136040e-04 5.6335190648003559e-04 0.0000000000000000e+00  -1.0893383223519114e-04 6.0252339394472893e-04 0.0000000000000000e+00  -1.1210820048990363e-04 6.4193027421713758e-04 0.0000000000000000e+00  -1.1545475914220234e-04 6.8150774150953989e-04 0.0000000000000000e+00  -1.1909555455550527e-04 7.2126118707218528e-04 0.0000000000000000e+00  -1.2314907274992389e-04 7.6130451239365309e-04 0.0000000000000000e+00  -1.2769685072894506e-04 8.0176480663244839e-04 0.0000000000000000e+00  -1.3279935036950347e-04 8.4278727061641568e-04 0.0000000000000000e+00  -1.3850532863871257e-04 8.8456616738239499e-04 0.0000000000000000e+00  -1.4482924494598384e-04 9.2743593468367724e-04 0.0000000000000000e+00  -1.5168902891419083e-04 9.7165473184447897e-04 0.0000000000000000e+00  -1.5887313079535412e-04 1.0177057441584274e-03 0.0000000000000000e+00  -1.6550949509694282e-04 1.0665899496454924e-03 0.0000000000000000e+00  -1.7037029669292930e-04 1.1094125153663173e-03 0.0000000000000000e+00  -1.6921540865619966e-04 1.1247871243971689e-03 0.0000000000000000e+00  -9.3811922918365606e-05 4.0651244574698662e-04 0.0000000000000000e+00  -9.7686370234302308e-05 4.4277797027821427e-04 0.0000000000000000e+00  -1.0136216764969967e-04 4.7975359161049575e-04 0.0000000000000000e+00  -1.0489378401512137e-04 5.1732215461033080e-04 0.0000000000000000e+00  -1.0834295590261431e-04 5.5537884548415928e-04 0.0000000000000000e+00  -1.1177913129368286e-04 5.9383105277694532e-04 0.0000000000000000e+00  -1.1528151920896542e-04 6.3260237706010039e-04 0.0000000000000000e+00  -1.1894084869149764e-04 6.7164593783460686e-04 0.0000000000000000e+00  -1.2285540051124900e-04 7.1096562393873079e-04 0.0000000000000000e+00  -1.2711603332716189e-04 7.5062654925671856e-04 0.0000000000000000e+00  -1.3178864001548560e-04 7.9071365163644941e-04 0.0000000000000000e+00  -1.3691561633118510e-04 8.3133088519160548e-04 0.0000000000000000e+00  -1.4251056109060260e-04 8.7261056846205803e-04 0.0000000000000000e+00  -1.4853266435793625e-04 9.1472367447630748e-04 0.0000000000000000e+00  -1.5483891281457178e-04 9.5776826788646747e-04 0.0000000000000000e+00  -1.6113409597573976e-04 1.0017766467392668e-03 0.0000000000000000e+00  -1.6682999875533108e-04 1.0463093788443034e-03 0.0000000000000000e+00  -1.7148148488546532e-04 1.0874122390565632e-03 0.0000000000000000e+00  -1.7612688718601926e-04 1.1258409794165439e-03 0.0000000000000000e+00  -9.8090585282093127e-05 4.3724136743923821e-04 0.0000000000000000e+00  -1.0198067339751151e-04 4.7338254018939403e-04 0.0000000000000000e+00  -1.0573633183278637e-04 5.1015221773041762e-04 0.0000000000000000e+00  -1.0941264100848813e-04 5.4745576389225237e-04 0.0000000000000000e+00  -1.1307179962761055e-04 5.8521088232451452e-04 0.0000000000000000e+00  -1.1678298632101413e-04 6.2335166700185443e-04 0.0000000000000000e+00  -1.2062110854727475e-04 6.6183715409865243e-04 0.0000000000000000e+00  -1.2466160322815358e-04 7.0066147948077430e-04 0.0000000000000000e+00  -1.2896971631946093e-04 7.3985492322587863e-04 0.0000000000000000e+00  -1.3358911287995141e-04 7.7946366096801111e-04 0.0000000000000000e+00  -1.3853726084360338e-04 8.1954412857419010e-04 0.0000000000000