<?xml version="1.0"?>
<VTKFile type="UnstructuredGrid"  version="0.1"  >
<UnstructuredGrid>
<Piece  NumberOfPoints="629" NumberOfCells="1162">
<Points>
<DataArray  type="Float64"  NumberOfComponents="3"  format="ascii">0.7104347826086956 0 0  0.7269565217391304 0 0  0.7269565217391304 0.01666666666666667 0  0.7104347826086956 0.01666666666666667 0  0.7434782608695653 0 0  0.7434782608695653 0.01666666666666667 0  0.7599999999999999 0 0  0.7599999999999999 0.01666666666666667 0  0.7765217391304348 0 0  0.7765217391304348 0.01666666666666667 0  0.7930434782608695 0 0  0.7930434782608695 0.01666666666666667 0  0.8095652173913043 0 0  0.8095652173913043 0.01666666666666667 0  0.8260869565217391 0 0  0.8260869565217391 0.01666666666666667 0  0.8426086956521739 0 0  0.8426086956521739 0.01666666666666667 0  0.8591304347826086 0 0  0.8591304347826086 0.01666666666666667 0  0.8756521739130434 0 0  0.8756521739130434 0.01666666666666667 0  0.8921739130434783 0 0  0.8921739130434783 0.01666666666666667 0  0.908695652173913 0 0  0.908695652173913 0.01666666666666667 0  0.9252173913043478 0 0  0.9252173913043478 0.01666666666666667 0  0.9417391304347826 0 0  0.9417391304347826 0.01666666666666667 0  0.9582608695652173 0 0  0.9582608695652173 0.01666666666666667 0  0.9747826086956521 0 0  0.9747826086956521 0.01666666666666667 0  0.991304347826087 0 0  0.991304347826087 0.01666666666666667 0  1.007826086956522 0 0  1.007826086956522 0.01666666666666667 0  1.024347826086957 0 0  1.024347826086957 0.01666666666666667 0  0.7269565217391304 0.03333333333333333 0  0.7104347826086956 0.03333333333333333 0  0.7434782608695653 0.03333333333333333 0  0.7599999999999999 0.03333333333333333 0  0.7765217391304348 0.03333333333333333 0  0.7930434782608695 0.03333333333333333 0  0.8095652173913043 0.03333333333333333 0  0.8260869565217391 0.03333333333333333 0  0.8426086956521739 0.03333333333333333 0  0.8591304347826086 0.03333333333333333 0  0.8756521739130434 0.03333333333333333 0  0.8921739130434783 0.03333333333333333 0  0.908695652173913 0.03333333333333333 0  0.9252173913043478 0.03333333333333333 0  0.9417391304347826 0.03333333333333333 0  0.9582608695652173 0.03333333333333333 0  0.9747826086956521 0.03333333333333333 0  0.991304347826087 0.03333333333333333 0  1.007826086956522 0.03333333333333333 0  1.024347826086957 0.03333333333333333 0  1.040869565217391 0.03333333333333333 0  0.7269565217391304 0.05 0  0.7434782608695653 0.05 0  0.7599999999999999 0.05 0  0.7765217391304348 0.05 0  0.7930434782608695 0.05 0  0.8095652173913043 0.05 0  0.8260869565217391 0.05 0  0.8426086956521739 0.05 0  0.8591304347826086 0.05 0  0.8756521739130434 0.05 0  0.8921739130434783 0.05 0  0.908695652173913 0.05 0  0.9252173913043478 0.05 0  0.9417391304347826 0.05 0  0.9582608695652173 0.05 0  0.9747826086956521 0.05 0  0.991304347826087 0.05 0  1.007826086956522 0.05 0  1.024347826086957 0.05 0  1.040869565217391 0.05 0  1.057391304347826 0.05 0  0.7434782608695653 0.06666666666666667 0  0.7599999999999999 0.06666666666666667 0  0.7765217391304348 0.06666666666666667 0  0.7930434782608695 0.06666666666666667 0  0.8095652173913043 0.06666666666666667 0  0.8260869565217391 0.06666666666666667 0  0.8426086956521739 0.06666666666666667 0  0.8591304347826086 0.06666666666666667 0  0.8756521739130434 0.06666666666666667 0  0.8921739130434783 0.06666666666666667 0  0.908695652173913 0.06666666666666667 0  0.9252173913043478 0.06666666666666667 0  0.9417391304347826 0.06666666666666667 0  0.9582608695652173 0.06666666666666667 0  0.9747826086956521 0.06666666666666667 0  0.991304347826087 0.06666666666666667 0  1.007826086956522 0.06666666666666667 0  1.024347826086957 0.06666666666666667 0  1.040869565217391 0.06666666666666667 0  1.057391304347826 0.06666666666666667 0  1.073913043478261 0.06666666666666667 0  0.7599999999999999 0.08333333333333333 0  0.7765217391304348 0.08333333333333333 0  0.7930434782608695 0.08333333333333333 0  0.8095652173913043 0.08333333333333333 0  0.8260869565217391 0.08333333333333333 0  0.8426086956521739 0.08333333333333333 0  0.8591304347826086 0.08333333333333333 0  0.8756521739130434 0.08333333333333333 0  0.8921739130434783 0.08333333333333333 0  0.908695652173913 0.08333333333333333 0  0.9252173913043478 0.08333333333333333 0  0.9417391304347826 0.08333333333333333 0  0.9582608695652173 0.08333333333333333 0  0.9747826086956521 0.08333333333333333 0  0.991304347826087 0.08333333333333333 0  1.007826086956522 0.08333333333333333 0  1.024347826086957 0.08333333333333333 0  1.040869565217391 0.08333333333333333 0  1.057391304347826 0.08333333333333333 0  1.073913043478261 0.08333333333333333 0  1.090434782608696 0.08333333333333333 0  0.7765217391304348 0.1 0  0.7930434782608695 0.1 0  0.8095652173913043 0.1 0  0.8260869565217391 0.1 0  0.8426086956521739 0.1 0  0.8591304347826086 0.1 0  0.8756521739130434 0.1 0  0.8921739130434783 0.1 0  0.908695652173913 0.1 0  0.9252173913043478 0.1 0  0.9417391304347826 0.1 0  0.9582608695652173 0.1 0  0.9747826086956521 0.1 0  0.991304347826087 0.1 0  1.007826086956522 0.1 0  1.024347826086957 0.1 0  1.040869565217391 0.1 0  1.057391304347826 0.1 0  1.073913043478261 0.1 0  1.090434782608696 0.1 0  1.10695652173913 0.1 0  0.7930434782608695 0.1166666666666667 0  0.8095652173913043 0.1166666666666667 0  0.8260869565217391 0.1166666666666667 0  0.8426086956521739 0.1166666666666667 0  0.8591304347826086 0.1166666666666667 0  0.8756521739130434 0.1166666666666667 0  0.8921739130434783 0.1166666666666667 0  0.908695652173913 0.1166666666666667 0  0.9252173913043478 0.1166666666666667 0  0.9417391304347826 0.1166666666666667 0  0.9582608695652173 0.1166666666666667 0  0.9747826086956521 0.1166666666666667 0  0.991304347826087 0.1166666666666667 0  1.007826086956522 0.1166666666666667 0  1.024347826086957 0.1166666666666667 0  1.040869565217391 0.1166666666666667 0  1.057391304347826 0.1166666666666667 0  1.073913043478261 0.1166666666666667 0  1.090434782608696 0.1166666666666667 0  1.10695652173913 0.1166666666666667 0  1.123478260869565 0.1166666666666667 0  0.8095652173913043 0.1333333333333333 0  0.8260869565217391 0.1333333333333333 0  0.8426086956521739 0.1333333333333333 0  0.8591304347826086 0.1333333333333333 0  0.8756521739130434 0.1333333333333333 0  0.8921739130434783 0.1333333333333333 0  0.908695652173913 0.1333333333333333 0  0.9252173913043478 0.1333333333333333 0  0.9417391304347826 0.1333333333333333 0  0.9582608695652173 0.1333333333333333 0  0.9747826086956521 0.1333333333333333 0  0.991304347826087 0.1333333333333333 0  1.007826086956522 0.1333333333333333 0  1.024347826086957 0.1333333333333333 0  1.040869565217391 0.1333333333333333 0  1.057391304347826 0.1333333333333333 0  1.073913043478261 0.1333333333333333 0  1.090434782608696 0.1333333333333333 0  1.10695652173913 0.1333333333333333 0  1.123478260869565 0.1333333333333333 0  1.14 0.1333333333333333 0  0.8260869565217391 0.15 0  0.8426086956521739 0.15 0  0.8591304347826086 0.15 0  0.8756521739130434 0.15 0  0.8921739130434783 0.15 0  0.908695652173913 0.15 0  0.9252173913043478 0.15 0  0.9417391304347826 0.15 0  0.9582608695652173 0.15 0  0.9747826086956521 0.15 0  0.991304347826087 0.15 0  1.007826086956522 0.15 0  1.024347826086957 0.15 0  1.040869565217391 0.15 0  1.057391304347826 0.15 0  1.073913043478261 0.15 0  1.090434782608696 0.15 0  1.10695652173913 0.15 0  1.123478260869565 0.15 0  1.14 0.15 0  1.156521739130435 0.15 0  0.8426086956521739 0.1666666666666667 0  0.8591304347826086 0.1666666666666667 0  0.8756521739130434 0.1666666666666667 0  0.8921739130434783 0.1666666666666667 0  0.908695652173913 0.1666666666666667 0  0.9252173913043478 0.1666666666666667 0  0.9417391304347826 0.1666666666666667 0  0.9582608695652173 0.1666666666666667 0  0.9747826086956521 0.1666666666666667 0  0.991304347826087 0.1666666666666667 0  1.007826086956522 0.1666666666666667 0  1.024347826086957 0.1666666666666667 0  1.040869565217391 0.1666666666666667 0  1.057391304347826 0.1666666666666667 0  1.073913043478261 0.1666666666666667 0  1.090434782608696 0.1666666666666667 0  1.10695652173913 0.1666666666666667 0  1.123478260869565 0.1666666666666667 0  1.14 0.1666666666666667 0  1.156521739130435 0.1666666666666667 0  1.17304347826087 0.1666666666666667 0  0.8591304347826086 0.1833333333333333 0  0.8756521739130434 0.1833333333333333 0  0.8921739130434783 0.1833333333333333 0  0.908695652173913 0.1833333333333333 0  0.9252173913043478 0.1833333333333333 0  0.9417391304347826 0.1833333333333333 0  0.9582608695652173 0.1833333333333333 0  0.9747826086956521 0.1833333333333333 0  0.991304347826087 0.1833333333333333 0  1.007826086956522 0.1833333333333333 0  1.024347826086957 0.1833333333333333 0  1.040869565217391 0.1833333333333333 0  1.057391304347826 0.1833333333333333 0  1.073913043478261 0.1833333333333333 0  1.090434782608696 0.1833333333333333 0  1.10695652173913 0.1833333333333333 0  1.123478260869565 0.1833333333333333 0  1.14 0.1833333333333333 0  1.156521739130435 0.1833333333333333 0  1.17304347826087 0.1833333333333333 0  1.189565217391304 0.1833333333333333 0  0.8756521739130434 0.2 0  0.8921739130434783 0.2 0  0.908695652173913 0.2 0  0.9252173913043478 0.2 0  0.9417391304347826 0.2 0  0.9582608695652173 0.2 0  0.9747826086956521 0.2 0  0.991304347826087 0.2 0  1.007826086956522 0.2 0  1.024347826086957 0.2 0  1.040869565217391 0.2 0  1.057391304347826 0.2 0  1.073913043478261 0.2 0  1.090434782608696 0.2 0  1.10695652173913 0.2 0  1.123478260869565 0.2 0  1.14 0.2 0  1.156521739130435 0.2 0  1.17304347826087 0.2 0  1.189565217391304 0.2 0  1.206086956521739 0.2 0  0.8921739130434783 0.2166666666666667 0  0.908695652173913 0.2166666666666667 0  0.9252173913043478 0.2166666666666667 0  0.9417391304347826 0.2166666666666667 0  0.9582608695652173 0.2166666666666667 0  0.9747826086956521 0.2166666666666667 0  0.991304347826087 0.2166666666666667 0  1.007826086956522 0.2166666666666667 0  1.02434782608
[...]
<CellData  Scalars="rho"> 
<DataArray  type="Float64"  Name="rho"  format="ascii">8.8212195638715807e-01   8.6234104991765337e-01   8.9872885421711701e-01   8.8075193568640553e-01   9.1599700080371171e-01   8.9592746029254611e-01   9.3151612296769482e-01   9.1176682733353565e-01   9.4328503393011565e-01   9.2560798778695885e-01   1.0000000000000000e+00   9.3550217442315509e-01   1.0000000000000000e+00   1.0000000000000000e+00   1.0000000000000000e+00   1.0000000000000000e+00   1.0000000000000000e+00   1.0000000000000000e+00   1.0000000000000000e+00   1.0000000000000000e+00   1.0000000000000000e+00   1.0000000000000000e+00   1.0000000000000000e+00   1.0000000000000000e+00   1.0000000000000000e+00   1.0000000000000000e+00   1.0000000000000000e+00   1.0000000000000000e+00   1.0000000000000000e+00   9.5708825890616323e-01   1.0000000000000000e+00   9.5574097227816535e-01   1.0000000000000000e+00   9.5396940654439133e-01   1.0000000000000000e+00   9.5167986283952755e-01   1.0000000000000000e+00   9.4884586887621503e-01   8.1537654532968806e-01   7.7035796874566542e-01   8.3374239101766401e-01   7.8757351096701234e-01   8.4940036510183914e-01   8.0431950481716052e-01   8.6138456771873673e-01   8.1824677243144528e-01   8.7342023289186665e-01   8.3032807992589353e-01   8.8315096188966813e-01   8.3829548853181723e-01   8.9054690109630585e-01   8.4565281674961490e-01   8.9421813259872185e-01   8.5073669315441902e-01   8.9741754275030916e-01   8.5379976649745259e-01   8.9911990567582112e-01   8.5520546292829425e-01   8.9970226609794268e-01   8.5538020209552768e-01   8.9705361594935573e-01   8.5475846929158139e-01   8.9623304768171108e-01   8.5373164712144556e-01   8.9521496216391916e-01   8.5260513371268787e-01   8.9411080972464363e-01   8.5335331297582329e-01   8.9403949580665110e-01   8.5005541947117935e-01   8.9272544351496574e-01   8.4778398047085224e-01   8.9112312468874266e-01   8.4680171970168094e-01   8.8908790780912506e-01   8.4564841777735766e-01   8.4414492726396395e-01   6.8139177965382691e-01   6.9765095250775533e-01   6.3409818024477305e-01   7.1347136027151248e-01   6.4797993483914129e-01   7.2575870645228235e-01   6.6160365752240324e-01   7.3430871606550641e-01   6.7293035893719633e-01   7.4135834794297129e-01   6.8137034039546573e-01   7.4641930399607470e-01   6.8385537697839416e-01   7.4905760997574844e-01   6.8589054226431412e-01   7.4963534759525630e-01   6.8542566606009525e-01   7.4648606726425271e-01   6.8241794672721712e-01   7.4421664859781089e-01   6.8151705337315693e-01   7.4451200271256968e-01   6.7716184685755521e-01   7.4216457556358406e-01   6.7321335691394435e-01   7.4025086379070704e-01   6.7024423284407364e-01   7.3898805861494055e-01   6.6639826673075586e-01   7.3845063023488489e-01   6.6614094751658970e-01   7.3858981601515261e-01   6.6739125360911011e-01   7.3837541132238294e-01   6.6996368690968167e-01   7.3905674073080274e-01   6.7177883970115138e-01   7.3977478434257216e-01   6.7394428218178726e-01   6.7545790080470280e-01   5.1378217480655974e-01   5.2726088929008363e-01   4.5697532308251820e-01   5.3909707677637031e-01   4.6881036606302967e-01   5.4629629122063372e-01   4.7800971890171184e-01   5.5109570240300843e-01   4.8228494653139364e-01   5.5207962318137127e-01   4.8308126460519935e-01   5.4769950104586396e-01   4.7860019464267661e-01   5.4190196771985943e-01   4.7155822184980511e-01   5.3875773974134900e-01   4.6703888726806464e-01   5.3067864544282584e-01   4.5681383649495477e-01   5.2281224232489176e-01   4.4652606079412210e-01   5.1603786862924261e-01   4.3580952217630703e-01   5.1103854507734103e-01   4.2825527541210645e-01   5.0634971861540146e-01   4.2321194183212729e-01   5.0581382656539819e-01   4.2100086315575358e-01   5.0762730903195685e-01   4.2166293006354411e-01   5.1154882876277119e-01   4.2501194748474586e-01   5.1719993403915410e-01   4.3069333698222595e-01   5.2410099898707563e-01   4.2904111894789593e-01   5.3170953426583856e-01   4.3898719539728437e-01   4.4965219204890100e-01   3.3928467387635519e-01   3.4792214186990089e-01   2.9818680842686135e-01   3.5297899275613037e-01   3.0345556134176693e-01   3.5337502881038918e-01   3.0393124314714598e-01   3.4874706719213988e-01   2.9895046120071267e-01   3.3941265985338137e-01   2.8862154315205907e-01   3.3148983438718038e-01   2.7371879543375244e-01   3.1641537009981341e-01   2.6135759747135517e-01   3.0027848210101016e-01   2.4219739787382807e-01   2.8450122015151602e-01   2.2293815563287375e-01   2.7038074683074820e-01   2.0507485943930046e-01   2.5898393252260160e-01   1.8988887202408916e-01   2.5107506353921338e-01   1.7835818770343190e-01   2.0127650786280768e-01   1.0742144924677779e-01   2.0177424010772047e-01   1.0474344804374484e-01   2.0641128669379383e-01   1.0691999761819641e-01   2.1482752741963895e-01   1.1367989912989555e-01   2.2646504582467966e-01   1.2451746584165392e-01   1.7148776150205533e-01   5.2411708016218535e-02   1.9570291315622135e-01   8.0013629705896969e-02   1.0732195335014916e-01   2.2045591043382440e-01   2.2147831119873157e-01   1.8979075859729563e-01   2.1641716277549666e-01   1.8518512977067883e-01   2.0483006691538208e-01   1.7354453946260034e-01   1.8714592196564647e-01   1.5502995402282116e-01   1.6450402650151444e-01   1.3063326511619133e-01   1.4469622267645396e-01   1.0195693797939544e-01   1.1830944678528638e-01   7.7704760892705449e-02   9.2385463431972251e-02   4.7618469068203106e-02   6.8627542508265790e-02   1.9222381771598664e-02   4.8464679454437262e-02   1.4460816805569063e-03   3.2960616413202547e-02   9.7543779911422673e-04   2.2752345762108887e-02   5.9593391604704257e-04   2.7523452857116954e-04   2.7885096129466049e-04   0.0000000000000000e+00   2.6173516937496404e-06   0.0000000000000000e+00   0.0000000000000000e+00   0.0000000000000000e+00   0.0000000000000000e+00   0.0000000000000000e+00   0.0000000000000000e+00   0.0000000000000000e+00   0.0000000000000000e+00   0.0000000000000000e+00   0.0000000000000000e+00   0.0000000000000000e+00   1.5130194261339400e-01   1.4060403861189052e-01   1.3273330605949935e-01   1.2174541167063009e-01   1.1445604378987799e-01   9.5246545226066959e-02   8.7739192355557410e-02   6.2478858498027250e-02   5.3736420233398648e-02   2.5400448334896571e-02   1.4321304637191933e-02   3.3698157894050027e-03   3.7450445158276791e-03   2.4191199245239881e-03   2.6840991533033675e-03   1.6854840277765505e-03   1.8678789162984658e-03   1.1219284401430911e-03   1.2459564331127834e-03   6.8525066553124056e-04   7.7083930087953043e-04   3.3931381845932537e-04   4.0224399268668458e-04   5.5882197227576154e-05   1.0829226257339734e-04   0.0000000000000000e+00   0.0000000000000000e+00   0.0000000000000000e+00   0.0000000000000000e+00   0.0000000000000000e+00   0.0000000000000000e+00   0.0000000000000000e+00   0.0000000000000000e+00   0.0000000000000000e+00   0.0000000000000000e+00   0.0000000000000000e+00   0.0000000000000000e+00   0.0000000000000000e+00   0.0000000000000000e+00   0.0000000000000000e+00   1.2374322412694046e-01   9.6336396730254098e-02   1.0487314889311738e-01   6.4351603550241290e-02   6.8385048356895822e-02   2.2295529188808370e-02   3.5004549647213286e-02   4.6859930214908424e-03   5.2574161428072374e-03   3.3697132745269293e-03   3.7951659583395927e-03   2.3553067923553273e-03   2.6646112083908687e-03   1.5877714413682848e-03   1.8097160810959785e-03   1.0114302462193563e-03   1.1707865788587667e-03   5.7722888610211578e-04   6.9401552059395713e-04   2.4530773605102672e-04   3.3509093842581917e-04   0.0000000000000000e+00   5.9636146691434949e-05   0.0000000000000000e+00   0.0000000000000000e+00   0.0000000000000000e+00   0.0000000000000000e+00   0.0000000000000000e+00   0.0000000000000000e+00   0.0000000000000000e+00   0.0000000000000000e+00   0.0000000000000000e+00   0.0000000000000000e+00   0.0000000000000000e+00   0.0000000000000000e+00   0.0000000000000000e+00   0.0000000000000000e+00   0.0000000000000000e+00   0.0000000000000000e+00   0.0000000000000000e+00   1.0721068515708382e-01   6.6715507072394001e-02   9.5246676820093301e-02   1.8738535527872646e-02   4.3040744855834409e-02   4.8221391601319698e-03   5.4240672464527890e-03   3.4255992212051459e-03   3.8788738473008646e-03   2.3634626997054492e-03   2.6974706087713246e-03   1.5710391571668988e-03   1.8146019080475600e-03   9.8559467412992832e-04   1.1634772171743193e-03   5.5345252716379944e-04   6.8553050906704628e-04   2.3188935080670217e-04   3.3347514606423331e-04   0.0000000000000000e+00   7.1119394287265606e-05   0.0000000000000000e+00   0.0000000000000000e+00   0.0000000000000000e+00   0.0000000000000000e+00   0.0000000000000000e+00   0.0000000000000000e+00   0.0000000000000000e+00   0.0000000000000000e+00   0.0000000000000000e+00   0.0000000000000000e+00   0.0000000000000000e+00   0.0000000000000000e+00   0.0000000000000000e+00   0.0000000000000000e+00   0.0000000000000000e+00   0.0000000000000000e+00   0.0000000000000000e+00   0.0000000000000000e+00   0.0000000000000000e+00   1.1911932976745397e-01   5.9522898426600766e-02   8.8898290014188044e-02   4.9508130821123405e-03   3.2426168624862084e-02   3.5003632547788775e-03   3.9676361210903375e-03   2.4055411412538196e-03   2.7533628356248892e-03   1.5956483024068930e-03   1.8515153223797084e-03   1.0033894678246258e-03   1.1914153058562224e-03   5.7207153315742918e-04   7.1175227566366340e-04   2.5709060778474215e-04   3.6347122721435912e-04   2.4930560610913821e-05   1.0925749541018408e-04   0.0000000000000000e+00   0.0000000000000000e+00   0.0000000000000000e+00   0.0000000000000000e+00   0.0000000000000000e+00   0.0000000000000000e+00   0.0000000000000000e+00   0.0000000000000000e+00   0.0000000000000000e+00   0.0000000000000000e+00   0.0000000000000000e+00   0.0000000000000000e+00   0.0000000000000000e+00   0.0000000000000000e+00   0.0000000000000000e+00   0.0000000000000000e+00   0.0000000000000000e+00   0.0000000000000000e+00   0.0000000000000000e+00   0.0000000000000000e+00   0.0000000000000000e+00   9.9228871440591088e-02   3.8236445847395648e-02   7.1079496839982950e-02   3.5822737469028156e-03   8.2639974959032685e-03   2.4667863107275386e-03   2.8265059996293814e-03   1.6440698340802903e-03   1.9103884859157031e-03   1.0453009565132578e-03   1.2414569038111394e-03   6.1250803273535945e-04   7.5768958342837200e-04   3.0015017579276571e-04   4.0932382152936229e-04   7.4025754849077054e-05   1.5843743564178362e-04   0.0000000000000000e+00   0.0000000000000000e+00   0.0000000000000000e+00   0.0000000000000000e+00   0.0000000000000000e+00   0.0000000000000000e+00   0.0000000000000000e+00   0.0000000000000000e+00   0.0000000000000000e+00   0.0000000000000000e+00   0.0000000000000000e+00   0.0000000000000000e+00   0.0000000000000000e+00   0.0000000000000000e+00   0.0000000000000000e+00   0.0000000000000000e+00   0.0000000000000000e+00   0.0000000000000000e+00   0.0000000000000000e+00   0.0000000000000000e+00   2.0959405645593998e-04   1.5952663416940631e-04   5.3634363125267925e-04   7.3422848972800381e-02   1.2352013609614172e-02   4.6011801571192515e-02   2.5525129178204046e-03   2.9309534733177253e-03   1.7154916758697143e-03   1.9967682056258517e-03   1.1065601197846307e-03   1.3136433729799813e-03   6.6774492094443547e-04   8.2011341695430780e-04   3.5309531907338874e-04   4.6614602350338957e-04   1.2788668869301293e-04   2.1326463525138810e-04   0.0000000000000000e+00   3.3029566026007415e-05   0.0000000000000000e+00   0.0000000000000000e+00   0.0000000000000000e+00   0.0000000000000000e+00   0.0000000000000000e+00   0.0000000000000000e+00   0.0000000000000000e+00   0.0000000000000000e+00   0.0000000000000000e+00   0.0000000000000000e+00   0.0000000000000000e+00   0.0000000000000000e+00   0.0000000000000000e+00   0.0000000000000000e+00   0.0000000000000000e+00   0.0000000000000000e+00   7.3871707700740185e-05   3.9631086902975464e-05   3.6265643038116776e-04   2.9211776294706278e-04   7.9697102898528699e-04   6.7350525970549054e-04   1.2364196810065958e-03   4.8237365902233167e-02   2.6819098144759269e-03   1.2801481228885213e-02   1.8197153527908935e-03   2.1253336279405482e-03   1.1912113326995424e-03   1.4153929149442557e-03   7.3853350299076187e-04   9.0221068160279479e-04   4.1503473244939725e-04   5.3486982605436271e-04   1.8508564159286974e-04   2.7370303096213306e-04   2.2518152002659337e-05   8.9136315175393279e-05   0.0000000000000000e+00   0.0000000000000000e+00   0.0000000000000000e+00   0.0000000000000000e+00   0.0000000000000000e+00   0.0000000000000000e+00   0.0000000000000000e+00   0.0000000000000000e+00   0.0000000000000000e+00   0.0000000000000000e+00   0.0000000000000000e+00   0.0000000000000000e+00   0.0000000000000000e+00   0.0000000000000000e+00   0.0000000000000000e+00   0.0000000000000000e+00   1.7339502022772690e-04   1.2572013240404005e-04   4.6551023534161076e-04   3.8110097418840767e-04   9.0029842302504902e-04   7.6305381870531174e-04   1.5350072371822100e-03   1.3228487004613876e-03   2.1291464260836290e-03   4.1776369648013701e-03   1.9709488974351853e-03   2.3131931864279142e-03   1.3071368865058394e-03   1.5564867709832769e-03   8.2919433055619700e-04   1.0096128491183136e-03   4.8844981910850559e-04   6.1892029949925831e-04   2.4733926562426576e-04   3.4215505811166703e-04   7.8091939849986880e-05   1.4762381157652839e-04   0.0000000000000000e+00   1.2467944437765906e-05   0.0000000000000000e+00   0.0000000000000000e+00   0.0000000000000000e+00   0.0000000000000000e+00   0.0000000000000000e+00   0.0000000000000000e+00   0.0000000000000000e+00   0.0000000000000000e+00   0.0000000000000000e+00   0.0000000000000000e+00   0.0000000000000000e+00   0.0000000000000000e+00   4.6381701436633774e-05   1.5202304367501041e-05   2.3965011020218914e-04   1.8269820766551336e-04   5.3260084261071334e-04   4.3892814963744875e-04   9.6611462627145712e-04   8.2031821189976445e-04   1.5961846698142248e-03   1.3772319607204837e-03   2.4966824414704445e-03   2.1769696969104785e-03   8.7418177427799164e-03   2.1822053375453675e-03   1.4621695913269788e-03   1.7450774273315970e-03   9.4475239801502717e-04   1.1476414108591076e-03   5.7694585263258393e-04   7.2218841199472449e-04   3.1764372562434977e-04   4.2187388178071828e-04   1.3640121038178873e-04   2.1155753923734637e-04   1.1536429883451630e-05   6.5911308927595635e-05   0.0000000000000000e+00   0.0000000000000000e+00   0.0000000000000000e+00   0.0000000000000000e+00   0.0000000000000000e+00   0.0000000000000000e+00   0.0000000000000000e+00   0.0000000000000000e+00   0.0000000000000000e+00   0.0000000000000000e+00   0.0000000000000000e+00   0.0000000000000000e+00   8.7924025373866223e-05   5.0580741691993670e-05   2.8158110776663268e-04   2.1803672227052752e-04   5.7462503965015604e-04   4.7435293509439551e-04   1.0076311514982048e-03   8.5588381710117914e-04   1.6361629635230719e-03   1.4129309332480539e-03   2.5334441218111139e-03   2.2127321225348627e-03   3.1760419625524935e-02   1.3197955925929327e-02   7.2393014612910700e-02   1.6613377495071761e-03   1.0891895315266623e-03   1.3196584200738473e-03   6.8408037067333512e-04   8.4802390819481812e-04   3.9944012158233896e-04   5.1631887751536927e-04   2.0091931961910861e-04   2.8452968951510403e-04   6.4138208999221211e-05   1.2396898299861048e-04   0.0000000000000000e+00   1.4869296266052772e-05   0.0000000000000000e+00   0.0000000000000000e+00   0.0000000000000000e+00   0.0000000000000000e+00   0.0000000000000000e+00   0.0000000000000000e+00   0.0000000000000000e+00   0.0000000000000000e+00   0.0000000000000000e+00   0.0000000000000000e+00   1.1199612352512202e-04   7.0282817115956890e-05   3.0484981831610590e-04   2.3621388686189432e-04   5.9797278434759664e-04   4.9215240161994296e-04   1.0323449345480383e-03   8.7500285521258190e-04   1.6642063742235960e-03   1.4359808233261838e-03   2.5678663274830093e-03   2.2437907557397636e-03   3.2297260590300685e-02   1.3026734121014247e-02   8.8597193615779557e-02   7.0011544144034904e-02   1.2798726416221859e-01   1.2647469847882544e-03   8.1308048718369593e-04   9.9916287557908043e-04   4.9655475117704859e-04   6.2929186108274398e-04   2.7578925489780027e-04   3.7089962867451154e-04   1.2301949108505273e-04   1.9121434170116047e-04   1.9465161248427534e-05   6.7778660403941440e-05   0.0000000000000000e+00   0.0000000000000000e+00   0.0000000000000000e+00   0.0000000000000000e+00   0.0000000000000000e+00   0.0000000000000000e+00   0.0000000000000000e+00   0.0000000000000000e+00   3.5541387305042795e-06   0.0000000000000000e+00   1.2142148902210542e-04   7.6612507418587472e-05   3.1192762145540080e-04   2.3891968494582985e-04   6.0469768027724010e-04   4.9326204900969014e-04   1.0417683508527190e-03   8.7760604638888488e-04   1.6810722027369265e-03   1.4448639412629662e-03   2.5995822369053140e-03   2.2664074883893682e-03   2.1841045324146373e-02   3.4340032387011367e-03   8.0059809791699937e-02   5.7307927965145347e-02   1.4292271946359109e-01   1.1757998104071139e-01   1.7336081734915432e-01   9.6744954779260641e-04   6.1385478074142328e-04   7.6585253830771007e-04   3.6648468138932879e-04   4.7667340895262610e-04   1.9376474083886700e-04   2.7391571398497694e-04   7.4446796845165994e-05   1.3223695717430963e-04   0.0000000000000000e+00   3.5233300027622761e-05   0.0000000000000000e+00   0.0000000000000000e+00   0.0000000000000000e+00   0.0000000000000000e+00   0.0000000000000000e+00   0.0000000000000000e+00   6.1692208442842795e-06   0.0000000000000000e+00   1.1706804791779958e-04   7.0341950759821156e-05   3.0244870199774647e-04   2.2548893610813473e-04   5.9285786178061358e-04   4.7522337455060834e-04   1.0317918032212395e-03   8.5883178730572875e-04   1.6794405771848756e-03   1.4312493063283369e-03   2.6162403422921097e-03   2.2669132663987440e-03   3.9440727940441194e-03   3.4622346662373038e-03   6.3737311795578289e-02   3.5821960371087022e-02   1.2594195231546529e-01   9.6432706667143792e-02   1.8334963958539766e-01   1.5520333271747513e-01   2.1591144227374368e-01   7.5867588609728170e-04   4.8111053562172192e-04   6.1109104151616596e-04   2.8447436402713271e-04   3.8147533387622787e-04   1.4507370565648307e-04   2.1716146825838885e-04   4.7979436852530423e-05   1.0003381904623090e-04   0.0000000000000000e+00   1.9526569206599375e-05   0.0000000000000000e+00   0.0000000000000000e+00   0.0000000000000000e+00   0.0000000000000000e+00   0.0000000000000000e+00   0.0000000000000000e+00   9.8441178107792012e-05   5.1409361147588711e-05   2.7381386239599281e-04   1.9359291311835613e-04   5.5722527697767360e-04   4.3297135700244365e-04   9.9365529265187124e-04   8.1007347907236502e-04   1.6454657873216862e-03   1.3816126386920931e-03   2.5962193941869941e-03   2.2245054685530183e-03   3.9523441339448118e-03   3.4386130478633783e-03   3.8923774959777280e-02   5.1446341386861948e-03   9.3722586279837969e-02   5.5431884735083967e-02   1.4555643629336582e-01   1.0893788915512093e-01   2.1723900643927552e-01   1.6014999329052337e-01   2.0492372972950168e-01   6.3245884960406616e-04   4.0762748333082917e-04   5.2861819427057024e-04   2.4284278855257632e-04   3.3630130683504549e-04   1.2191507967989952e-04   1.9263441512369612e-04   3.5975148092764275e-05   8.6314234285706464e-05   0.0000000000000000e+00   1.2472519304002464e-05   0.0000000000000000e+00   0.0000000000000000e+00   0.0000000000000000e+00   0.0000000000000000e+00   6.4636300569755834e-05   2.0055226417945777e-05   2.2217771691325326e-04   1.4038386161192775e-04   4.9045494151951055e-04   3.6011747947037787e-04   9.1556343780009575e-04   7.2064114431073497e-04   1.5612917983879532e-03   1.2796759563279180e-03   2.5129170300691676e-03   2.1151958151410426e-03   3.8788486588027180e-03   3.3279540376054293e-03   5.7858268647930288e-03   5.0393320400666424e-03   5.0259948177578152e-02   2.9011037982034582e-02   1.0815165606633860e-01   8.2963923433937256e-02   1.5772982954042450e-01   1.3493129430126286e-01   1.9740398489065850e-01   1.7317929203444937e-01   2.5097149723966272