<?xml version="1.0"?>
<VTKFile type="UnstructuredGrid"  version="0.1"  >
<UnstructuredGrid>
<Piece  NumberOfPoints="629" NumberOfCells="1162">
<Points>
<DataArray  type="Float64"  NumberOfComponents="3"  format="ascii">0.7104347826086956 0 0  0.7269565217391304 0 0  0.7269565217391304 0.01666666666666667 0  0.7104347826086956 0.01666666666666667 0  0.7434782608695653 0 0  0.7434782608695653 0.01666666666666667 0  0.7599999999999999 0 0  0.7599999999999999 0.01666666666666667 0  0.7765217391304348 0 0  0.7765217391304348 0.01666666666666667 0  0.7930434782608695 0 0  0.7930434782608695 0.01666666666666667 0  0.8095652173913043 0 0  0.8095652173913043 0.01666666666666667 0  0.8260869565217391 0 0  0.8260869565217391 0.01666666666666667 0  0.8426086956521739 0 0  0.8426086956521739 0.01666666666666667 0  0.8591304347826086 0 0  0.8591304347826086 0.01666666666666667 0  0.8756521739130434 0 0  0.8756521739130434 0.01666666666666667 0  0.8921739130434783 0 0  0.8921739130434783 0.01666666666666667 0  0.908695652173913 0 0  0.908695652173913 0.01666666666666667 0  0.9252173913043478 0 0  0.9252173913043478 0.01666666666666667 0  0.9417391304347826 0 0  0.9417391304347826 0.01666666666666667 0  0.9582608695652173 0 0  0.9582608695652173 0.01666666666666667 0  0.9747826086956521 0 0  0.9747826086956521 0.01666666666666667 0  0.991304347826087 0 0  0.991304347826087 0.01666666666666667 0  1.007826086956522 0 0  1.007826086956522 0.01666666666666667 0  1.024347826086957 0 0  1.024347826086957 0.01666666666666667 0  0.7269565217391304 0.03333333333333333 0  0.7104347826086956 0.03333333333333333 0  0.7434782608695653 0.03333333333333333 0  0.7599999999999999 0.03333333333333333 0  0.7765217391304348 0.03333333333333333 0  0.7930434782608695 0.03333333333333333 0  0.8095652173913043 0.03333333333333333 0  0.8260869565217391 0.03333333333333333 0  0.8426086956521739 0.03333333333333333 0  0.8591304347826086 0.03333333333333333 0  0.8756521739130434 0.03333333333333333 0  0.8921739130434783 0.03333333333333333 0  0.908695652173913 0.03333333333333333 0  0.9252173913043478 0.03333333333333333 0  0.9417391304347826 0.03333333333333333 0  0.9582608695652173 0.03333333333333333 0  0.9747826086956521 0.03333333333333333 0  0.991304347826087 0.03333333333333333 0  1.007826086956522 0.03333333333333333 0  1.024347826086957 0.03333333333333333 0  1.040869565217391 0.03333333333333333 0  0.7269565217391304 0.05 0  0.7434782608695653 0.05 0  0.7599999999999999 0.05 0  0.7765217391304348 0.05 0  0.7930434782608695 0.05 0  0.8095652173913043 0.05 0  0.8260869565217391 0.05 0  0.8426086956521739 0.05 0  0.8591304347826086 0.05 0  0.8756521739130434 0.05 0  0.8921739130434783 0.05 0  0.908695652173913 0.05 0  0.9252173913043478 0.05 0  0.9417391304347826 0.05 0  0.9582608695652173 0.05 0  0.9747826086956521 0.05 0  0.991304347826087 0.05 0  1.007826086956522 0.05 0  1.024347826086957 0.05 0  1.040869565217391 0.05 0  1.057391304347826 0.05 0  0.7434782608695653 0.06666666666666667 0  0.7599999999999999 0.06666666666666667 0  0.7765217391304348 0.06666666666666667 0  0.7930434782608695 0.06666666666666667 0  0.8095652173913043 0.06666666666666667 0  0.8260869565217391 0.06666666666666667 0  0.8426086956521739 0.06666666666666667 0  0.8591304347826086 0.06666666666666667 0  0.8756521739130434 0.06666666666666667 0  0.8921739130434783 0.06666666666666667 0  0.908695652173913 0.06666666666666667 0  0.9252173913043478 0.06666666666666667 0  0.9417391304347826 0.06666666666666667 0  0.9582608695652173 0.06666666666666667 0  0.9747826086956521 0.06666666666666667 0  0.991304347826087 0.06666666666666667 0  1.007826086956522 0.06666666666666667 0  1.024347826086957 0.06666666666666667 0  1.040869565217391 0.06666666666666667 0  1.057391304347826 0.06666666666666667 0  1.073913043478261 0.06666666666666667 0  0.7599999999999999 0.08333333333333333 0  0.7765217391304348 0.08333333333333333 0  0.7930434782608695 0.08333333333333333 0  0.8095652173913043 0.08333333333333333 0  0.8260869565217391 0.08333333333333333 0  0.8426086956521739 0.08333333333333333 0  0.8591304347826086 0.08333333333333333 0  0.8756521739130434 0.08333333333333333 0  0.8921739130434783 0.08333333333333333 0  0.908695652173913 0.08333333333333333 0  0.9252173913043478 0.08333333333333333 0  0.9417391304347826 0.08333333333333333 0  0.9582608695652173 0.08333333333333333 0  0.9747826086956521 0.08333333333333333 0  0.991304347826087 0.08333333333333333 0  1.007826086956522 0.08333333333333333 0  1.024347826086957 0.08333333333333333 0  1.040869565217391 0.08333333333333333 0  1.057391304347826 0.08333333333333333 0  1.073913043478261 0.08333333333333333 0  1.090434782608696 0.08333333333333333 0  0.7765217391304348 0.1 0  0.7930434782608695 0.1 0  0.8095652173913043 0.1 0  0.8260869565217391 0.1 0  0.8426086956521739 0.1 0  0.8591304347826086 0.1 0  0.8756521739130434 0.1 0  0.8921739130434783 0.1 0  0.908695652173913 0.1 0  0.9252173913043478 0.1 0  0.9417391304347826 0.1 0  0.9582608695652173 0.1 0  0.9747826086956521 0.1 0  0.991304347826087 0.1 0  1.007826086956522 0.1 0  1.024347826086957 0.1 0  1.040869565217391 0.1 0  1.057391304347826 0.1 0  1.073913043478261 0.1 0  1.090434782608696 0.1 0  1.10695652173913 0.1 0  0.7930434782608695 0.1166666666666667 0  0.8095652173913043 0.1166666666666667 0  0.8260869565217391 0.1166666666666667 0  0.8426086956521739 0.1166666666666667 0  0.8591304347826086 0.1166666666666667 0  0.8756521739130434 0.1166666666666667 0  0.8921739130434783 0.1166666666666667 0  0.908695652173913 0.1166666666666667 0  0.9252173913043478 0.1166666666666667 0  0.9417391304347826 0.1166666666666667 0  0.9582608695652173 0.1166666666666667 0  0.9747826086956521 0.1166666666666667 0  0.991304347826087 0.1166666666666667 0  1.007826086956522 0.1166666666666667 0  1.024347826086957 0.1166666666666667 0  1.040869565217391 0.1166666666666667 0  1.057391304347826 0.1166666666666667 0  1.073913043478261 0.1166666666666667 0  1.090434782608696 0.1166666666666667 0  1.10695652173913 0.1166666666666667 0  1.123478260869565 0.1166666666666667 0  0.8095652173913043 0.1333333333333333 0  0.8260869565217391 0.1333333333333333 0  0.8426086956521739 0.1333333333333333 0  0.8591304347826086 0.1333333333333333 0  0.8756521739130434 0.1333333333333333 0  0.8921739130434783 0.1333333333333333 0  0.908695652173913 0.1333333333333333 0  0.9252173913043478 0.1333333333333333 0  0.9417391304347826 0.1333333333333333 0  0.9582608695652173 0.1333333333333333 0  0.9747826086956521 0.1333333333333333 0  0.991304347826087 0.1333333333333333 0  1.007826086956522 0.1333333333333333 0  1.024347826086957 0.1333333333333333 0  1.040869565217391 0.1333333333333333 0  1.057391304347826 0.1333333333333333 0  1.073913043478261 0.1333333333333333 0  1.090434782608696 0.1333333333333333 0  1.10695652173913 0.1333333333333333 0  1.123478260869565 0.1333333333333333 0  1.14 0.1333333333333333 0  0.8260869565217391 0.15 0  0.8426086956521739 0.15 0  0.8591304347826086 0.15 0  0.8756521739130434 0.15 0  0.8921739130434783 0.15 0  0.908695652173913 0.15 0  0.9252173913043478 0.15 0  0.9417391304347826 0.15 0  0.9582608695652173 0.15 0  0.9747826086956521 0.15 0  0.991304347826087 0.15 0  1.007826086956522 0.15 0  1.024347826086957 0.15 0  1.040869565217391 0.15 0  1.057391304347826 0.15 0  1.073913043478261 0.15 0  1.090434782608696 0.15 0  1.10695652173913 0.15 0  1.123478260869565 0.15 0  1.14 0.15 0  1.156521739130435 0.15 0  0.8426086956521739 0.1666666666666667 0  0.8591304347826086 0.1666666666666667 0  0.8756521739130434 0.1666666666666667 0  0.8921739130434783 0.1666666666666667 0  0.908695652173913 0.1666666666666667 0  0.9252173913043478 0.1666666666666667 0  0.9417391304347826 0.1666666666666667 0  0.9582608695652173 0.1666666666666667 0  0.9747826086956521 0.1666666666666667 0  0.991304347826087 0.1666666666666667 0  1.007826086956522 0.1666666666666667 0  1.024347826086957 0.1666666666666667 0  1.040869565217391 0.1666666666666667 0  1.057391304347826 0.1666666666666667 0  1.073913043478261 0.1666666666666667 0  1.090434782608696 0.1666666666666667 0  1.10695652173913 0.1666666666666667 0  1.123478260869565 0.1666666666666667 0  1.14 0.1666666666666667 0  1.156521739130435 0.1666666666666667 0  1.17304347826087 0.1666666666666667 0  0.8591304347826086 0.1833333333333333 0  0.8756521739130434 0.1833333333333333 0  0.8921739130434783 0.1833333333333333 0  0.908695652173913 0.1833333333333333 0  0.9252173913043478 0.1833333333333333 0  0.9417391304347826 0.1833333333333333 0  0.9582608695652173 0.1833333333333333 0  0.9747826086956521 0.1833333333333333 0  0.991304347826087 0.1833333333333333 0  1.007826086956522 0.1833333333333333 0  1.024347826086957 0.1833333333333333 0  1.040869565217391 0.1833333333333333 0  1.057391304347826 0.1833333333333333 0  1.073913043478261 0.1833333333333333 0  1.090434782608696 0.1833333333333333 0  1.10695652173913 0.1833333333333333 0  1.123478260869565 0.1833333333333333 0  1.14 0.1833333333333333 0  1.156521739130435 0.1833333333333333 0  1.17304347826087 0.1833333333333333 0  1.189565217391304 0.1833333333333333 0  0.8756521739130434 0.2 0  0.8921739130434783 0.2 0  0.908695652173913 0.2 0  0.9252173913043478 0.2 0  0.9417391304347826 0.2 0  0.9582608695652173 0.2 0  0.9747826086956521 0.2 0  0.991304347826087 0.2 0  1.007826086956522 0.2 0  1.024347826086957 0.2 0  1.040869565217391 0.2 0  1.057391304347826 0.2 0  1.073913043478261 0.2 0  1.090434782608696 0.2 0  1.10695652173913 0.2 0  1.123478260869565 0.2 0  1.14 0.2 0  1.156521739130435 0.2 0  1.17304347826087 0.2 0  1.189565217391304 0.2 0  1.206086956521739 0.2 0  0.8921739130434783 0.2166666666666667 0  0.908695652173913 0.2166666666666667 0  0.9252173913043478 0.2166666666666667 0  0.9417391304347826 0.2166666666666667 0  0.9582608695652173 0.2166666666666667 0  0.9747826086956521 0.2166666666666667 0  0.991304347826087 0.2166666666666667 0  1.007826086956522 0.2166666666666667 0  1.02434782608
[...]
<PointData  Vectors="Displacement"> 
<DataArray  type="Float64"  Name="Displacement"  NumberOfComponents="3" format="ascii">1.1517691589502075e-04 1.0098805228232191e-03 0.0000000000000000e+00  1.1734925398643895e-04 1.0281803767601433e-03 0.0000000000000000e+00  9.9212632657564369e-05 1.0274730643839570e-03 0.0000000000000000e+00  9.6139944772031274e-05 1.0090423035888369e-03 0.0000000000000000e+00  1.1954797972317318e-04 1.0457797622544663e-03 0.0000000000000000e+00  1.0170697933665556e-04 1.0450619332346490e-03 0.0000000000000000e+00  1.2184951335061738e-04 1.0632474915679127e-03 0.0000000000000000e+00  1.0398231773325360e-04 1.0625271570810315e-03 0.0000000000000000e+00  1.2424692385067245e-04 1.0809259735412866e-03 0.0000000000000000e+00  1.0608840251494903e-04 1.0801999646926060e-03 0.0000000000000000e+00  1.2671532949151974e-04 1.0990490710155116e-03 0.0000000000000000e+00  1.0808074709065337e-04 1.0983159481074323e-03 0.0000000000000000e+00  1.2922678927543480e-04 1.1177501590567867e-03 0.0000000000000000e+00  1.1001298122246937e-04 1.1170126294606365e-03 0.0000000000000000e+00  1.3175928391301683e-04 1.1370842662913902e-03 0.0000000000000000e+00  1.1191962024168925e-04 1.1363441807428459e-03 0.0000000000000000e+00  1.3429908223566741e-04 1.1570656333909630e-03 0.0000000000000000e+00  1.1381988364232361e-04 1.1563239469395946e-03 0.0000000000000000e+00  1.3683848831234590e-04 1.1776889729763114e-03 0.0000000000000000e+00  1.1572378486986534e-04 1.1769466375219555e-03 0.0000000000000000e+00  1.3937375329965395e-04 1.1989394967930609e-03 0.0000000000000000e+00  1.1763524461940018e-04 1.1981975649224010e-03 0.0000000000000000e+00  1.4190405463770036e-04 1.2208003887683159e-03 0.0000000000000000e+00  1.1955360119377010e-04 1.2200597099406888e-03 0.0000000000000000e+00  1.4443072329217260e-04 1.2432593770746259e-03 0.0000000000000000e+00  1.2147509143038354e-04 1.2425203415207535e-03 0.0000000000000000e+00  1.4695624490232269e-04 1.2663128485504620e-03 0.0000000000000000e+00  1.2339474344689552e-04 1.2655753391907635e-03 0.0000000000000000e+00  1.4948315734117208e-04 1.2899663419215950e-03 0.0000000000000000e+00  1.2530830051180863e-04 1.2892298827365508e-03 0.0000000000000000e+00  1.5201320229434325e-04 1.3142318369924882e-03 0.0000000000000000e+00  1.2721352659193861e-04 1.3134958110962069e-03 0.0000000000000000e+00  1.5454696581502605e-04 1.3391235900751734e-03 0.0000000000000000e+00  1.2911053491303391e-04 1.3383873661871656e-03 0.0000000000000000e+00  1.5708395206810629e-04 1.3646543768406801e-03 0.0000000000000000e+00  1.3100141937827316e-04 1.3639172687344946e-03 0.0000000000000000e+00  1.5962282129550364e-04 1.3908329937081024e-03 0.0000000000000000e+00  1.3288981918761812e-04 1.3900940631809003e-03 0.0000000000000000e+00  1.6216146438593877e-04 1.4176626769831699e-03 0.0000000000000000e+00  1.3478095935445656e-04 1.4169204535090199e-03 0.0000000000000000e+00  8.0886439479898963e-05 1.0264419996849758e-03 0.0000000000000000e+00  7.6359429134692468e-05 1.0077955505155480e-03 0.0000000000000000e+00  8.4494321945826804e-05 1.0442850694120517e-03 0.0000000000000000e+00  8.6728738746375352e-05 1.0618787930450088e-03 0.0000000000000000e+00  8.8343397894168762e-05 1.0796223047203012e-03 0.0000000000000000e+00  8.9669460162364591e-05 1.0977628646593491e-03 0.0000000000000000e+00  9.0909544235182236e-05 1.1164710470600685e-03 0.0000000000000000e+00  9.2134285662732722e-05 1.1358061484319068e-03 0.0000000000000000e+00  9.3368863173539580e-05 1.1557829008237057e-03 0.0000000000000000e+00  9.4627582022163809e-05 1.1763995791634107e-03 0.0000000000000000e+00  9.5916739519958787e-05 1.1976452529913648e-03 0.0000000000000000e+00  9.7232149032738658e-05 1.2195054261452086e-03 0.0000000000000000e+00  9.8560221321786410e-05 1.2419681581957000e-03 0.0000000000000000e+00  9.9883444152140812e-05 1.2650285227436258e-03 0.0000000000000000e+00  1.0118729387136965e-04 1.2886898468306624e-03 0.0000000000000000e+00  1.0246510677268774e-04 1.3129620455256221e-03 0.0000000000000000e+00  1.0371841860228792e-04 1.3378580021841233e-03 0.0000000000000000e+00  1.0495419238646337e-04 1.3633895607658975e-03 0.0000000000000000e+00  1.0618216085865706e-04 1.3895644192479543e-03 0.0000000000000000e+00  1.0741399735488729e-04 1.4163839278869283e-03 0.0000000000000000e+00  1.0866478966699858e-04 1.4438409299552749e-03 0.0000000000000000e+00  6.1359394194800750e-05 1.0145663872579394e-03 0.0000000000000000e+00  6.5852645347712775e-05 1.0328478528597706e-03 0.0000000000000000e+00  6.9648551078278802e-05 1.0510012297185751e-03 0.0000000000000000e+00  7.2862146913523754e-05 1.0691677163292114e-03 0.0000000000000000e+00  7.5679989317986791e-05 1.0876217497499644e-03 0.0000000000000000e+00  7.8244383179546718e-05 1.1065538077890983e-03 0.0000000000000000e+00  8.0650736486359497e-05 1.1260710341970954e-03 0.0000000000000000e+00  8.2952728008199366e-05 1.1462173775636509e-03 0.0000000000000000e+00  8.5180139110517560e-05 1.1670053704189373e-03 0.0000000000000000e+00  8.7349271954729441e-05 1.1884330387519262e-03 0.0000000000000000e+00  8.9467170063251041e-05 1.2104924956657639e-03 0.0000000000000000e+00  9.1534300696124651e-05 1.2331754369172636e-03 0.0000000000000000e+00  9.3547749088581845e-05 1.2564764093988972e-03 0.0000000000000000e+00  9.5504758180053014e-05 1.2803940755433400e-03 0.0000000000000000e+00  9.7405547886942500e-05 1.3049308320970967e-03 0.0000000000000000e+00  9.9254643420539567e-05 1.3300911617598564e-03 0.0000000000000000e+00  1.0106083949141972e-04 1.3558790247732884e-03 0.0000000000000000e+00  1.0283666575616529e-04 1.3822948870172924e-03 0.0000000000000000e+00  1.0459814923869606e-04 1.4093329172080178e-03 0.0000000000000000e+00  1.0636526834322792e-04 1.4369781556206702e-03 0.0000000000000000e+00  1.0816323705317138e-04 1.4652029298515825e-03 0.0000000000000000e+00  4.8661495200425025e-05 1.0208185735474584e-03 0.0000000000000000e+00  5.3467372148509290e-05 1.0392005066308912e-03 0.0000000000000000e+00  5.7858432398045382e-05 1.0576761183651996e-03 0.0000000000000000e+00  6.1876786911882798e-05 1.0764309106885100e-03 0.0000000000000000e+00  6.5592912421958644e-05 1.0956324341380196e-03 0.0000000000000000e+00  6.9072139400461801e-05 1.1153919780344643e-03 0.0000000000000000e+00  7.2363954336510897e-05 1.1357687273221861e-03 0.0000000000000000e+00  7.5501911721008539e-05 1.1567868275589868e-03 0.0000000000000000e+00  7.8508322301419617e-05 1.1784511393238982e-03 0.0000000000000000e+00  8.1398060876120573e-05 1.2007575655788594e-03 0.0000000000000000e+00  8.4181103772222599e-05 1.2236992568680439e-03 0.0000000000000000e+00  8.6864628844752733e-05 1.2472699859321622e-03 0.0000000000000000e+00  8.9454973484056184e-05 1.2714655460855586e-03 0.0000000000000000e+00  9.1959305706131204e-05 1.2962837555728212e-03 0.0000000000000000e+00  9.4386801602452738e-05 1.3217233898544572e-03 0.0000000000000000e+00  9.6749295528814600e-05 1.3477822140578661e-03 0.0000000000000000e+00  9.9061570375115891e-05 1.3744544274052006e-03 0.0000000000000000e+00  1.0134156187278767e-04 1.4017279007937334e-03 0.0000000000000000e+00  1.0361066727074746e-04 1.4295812827027749e-03 0.0000000000000000e+00  1.0589406307608419e-04 1.4579808186825716e-03 0.0000000000000000e+00  1.0822056254533597e-04 1.4868772186967789e-03 0.0000000000000000e+00  3.8150091761399286e-05 1.0267263712851358e-03 0.0000000000000000e+00  4.3443658590431774e-05 1.0453691140241163e-03 0.0000000000000000e+00  4.8431826856659941e-05 1.0643573242523586e-03 0.0000000000000000e+00  5.3125195507806203e-05 1.0838172242079492e-03 0.0000000000000000e+00  5.7550396530901880e-05 1.1038425036992863e-03 0.0000000000000000e+00  6.1737072517658933e-05 1.1244887414055369e-03 0.0000000000000000e+00  6.5711881464558078e-05 1.1457812850378844e-03 0.0000000000000000e+00  6.9497298752242714e-05 1.1677262533227363e-03 0.0000000000000000e+00  7.3112257487798133e-05 1.1903198700309444e-03 0.0000000000000000e+00  7.6573005430311013e-05 1.2135547210718588e-03 0.0000000000000000e+00  7.9893904901446122e-05 1.2374232120473338e-03 0.0000000000000000e+00  8.3088240867391789e-05 1.2619189622128082e-03 0.0000000000000000e+00  8.6169050434139362e-05 1.2870367850068068e-03 0.0000000000000000e+00  8.9149918549033449e-05 1.3127716658709219e-03 0.0000000000000000e+00  9.2045669438543286e-05 1.3391169777662859e-03 0.0000000000000000e+00  9.4872909222321384e-05 1.3660621846869217e-03 0.0000000000000000e+00  9.7650425124214737e-05 1.3935903034664357e-03 0.0000000000000000e+00  1.0039944747883631e-04 1.4216752790912406e-03 0.0000000000000000e+00  1.0314367482556272e-04 1.4502793673911868e-03 0.0000000000000000e+00  1.0590884468201184e-04 1.4793508499189763e-03 0.0000000000000000e+00  1.0872169441204477e-04 1.5088225804638241e-03 0.0000000000000000e+00  2.9630155963015864e-05 1.0323719804197086e-03 0.0000000000000000e+00  3.5422227697389020e-05 1.0515190842486609e-03 0.0000000000000000e+00  4.0946090089826865e-05 1.0712051389359890e-03 0.0000000000000000e+00  4.6195198120110230e-05 1.0914973828604437e-03 0.0000000000000000e+00  5.1176898831558315e-05 1.1124352086373085e-03 0.0000000000000000e+00  5.5906196019928387e-05 1.1340344221124300e-03 0.0000000000000000e+00  6.0401813380047499e-05 1.1562951781997942e-03 0.0000000000000000e+00  6.4683915811346507e-05 1.1792096495830545e-03 0.0000000000000000e+00  6.8772763974812230e-05 1.2027675316010672e-03 0.0000000000000000e+00  7.2687940329213058e-05 1.2269590536042485e-03 0.0000000000000000e+00  7.6448032442648310e-05 1.2517759713497514e-03 0.0000000000000000e+00  8.0070710807765726e-05 1.2772111680221761e-03 0.0000000000000000e+00  8.3573107510196052e-05 1.3032573496452825e-03 0.0000000000000000e+00  8.6972364165182473e-05 1.3299051578689229e-03 0.0000000000000000e+00  9.0286205698534563e-05 1.3571409529326253e-03 0.0000000000000000e+00  9.3533420470136140e-05 1.3849444833593989e-03 0.0000000000000000e+00  9.6734151594899190e-05 1.4132865990587537e-03 0.0000000000000000e+00  9.9909893641581871e-05 1.4421271532423295e-03 0.0000000000000000e+00  1.0308308197494154e-04 1.4714133384037388e-03 0.0000000000000000e+00  1.0627623373901902e-04 1.5010787367194763e-03 0.0000000000000000e+00  1.0951072159111122e-04 1.5310431889607697e-03 0.0000000000000000e+00  2.2874260346008510e-05 1.0379876472462386e-03 0.0000000000000000e+00  2.9113127246477539e-05 1.0578674704481796e-03 0.0000000000000000e+00  3.5078866517656895e-05 1.0784214244649781e-03 0.0000000000000000e+00  4.0759413371723875e-05 1.0996650029385757e-03 0.0000000000000000e+00  4.6158144666960954e-05 1.1215958845544451e-03 0.0000000000000000e+00  5.1289046082173027e-05 1.1442013696598286e-03 0.0000000000000000e+00  5.6172391713654403e-05 1.1674650967560471e-03 0.0000000000000000e+00  6.0831338763360667e-05 1.1913715174157460e-03 0.0000000000000000e+00  6.5289540248111375e-05 1.2159079198096820e-03 0.0000000000000000e+00  6.9569718962727878e-05 1.2410645131485656e-03 0.0000000000000000e+00  7.3693058717437244e-05 1.2668332511587997e-03 0.0000000000000000e+00  7.7679216318924890e-05 1.2932059469969069e-03 0.0000000000000000e+00  8.1546728618015485e-05 1.3201720573713233e-03 0.0000000000000000e+00  8.5313588530149908e-05 1.3477163896869172e-03 0.0000000000000000e+00  8.8997795549347267e-05 1.3758169051878986e-03 0.0000000000000000e+00  9.2617730399273071e-05 1.4044427362428110e-03 0.0000000000000000e+00  9.6192239075812549e-05 1.4335525296369151e-03 0.0000000000000000e+00  9.9740350073566832e-05 1.4630932689237684e-03 0.0000000000000000e+00  1.0328061302265637e-04 1.4929997245391813e-03 0.0000000000000000e+00  1.0683011331869281e-04 1.5231945760445134e-03 0.0000000000000000e+00  1.1040322850844890e-04 1.5535891224105493e-03 0.0000000000000000e+00  1.7654420047948214e-05 1.0438503644594321e-03 0.0000000000000000e+00  2.4245649630138931e-05 1.0646654012928588e-03 0.0000000000000000e+00  3.0536183134628461e-05 1.0862297520829922e-03 0.0000000000000000e+00  3.6520266471377369e-05 1.1085158674665739e-03 0.0000000000000000e+00  4.2208581570949940e-05 1.1314922173527480e-03 0.0000000000000000e+00  4.7622199770543633e-05 1.1551300123981271e-03 0.0000000000000000e+00  5.2787288622481900e-05 1.1794066001343023e-03 0.0000000000000000e+00  5.7731213685937129e-05 1.2043060034096827e-03 0.0000000000000000e+00  6.2480116846082802e-05 1.2298175475510382e-03 0.0000000000000000e+00  6.7057756463365396e-05 1.2559334699395446e-03 0.0000000000000000e+00  7.1485284988842323e-05 1.2826461515501222e-03 0.0000000000000000e+00  7.5781620797685798e-05 1.3099453731747902e-03 0.0000000000000000e+00  7.9964099217613762e-05 1.3378158232393057e-03 0.0000000000000000e+00  8.4049147342428075e-05 1.3662349661249765e-03 0.0000000000000000e+00  8.8052798294042649e-05 1.3951713176885185e-03 0.0000000000000000e+00  9.1990925226475802e-05 1.4245831679722651e-03 0.0000000000000000e+00  9.5879133667200363e-05 1.4544178144451161e-03 0.0000000000000000e+00  9.9732308633267963e-05 1.4846113665590356e-03 0.0000000000000000e+00  1.0356385784684655e-04 1.5150891326822513e-03 0.0000000000000000e+00  1.0738470506431666e-04 1.5457665542328003e-03 0.0000000000000000e+00  1.1120208001522160e-04 1.5765507121942468e-03 0.0000000000000000e+00  1.3720222552224729e-05 1.0502667911094915e-03 0.0000000000000000e+00  2.0539482862231425e-05 1.0721749336137446e-03 0.0000000000000000e+00  2.7027167384619756e-05 1.0948437674494194e-03 0.0000000000000000e+00  3.3193822181073846e-05 1.1182176157236076e-03 0.0000000000000000e+00  3.9063574132923138e-05 1.1422523255615272e-03 0.0000000000000000e+00  4.4666846028418602e-05 1.1669172818886742e-03 0.0000000000000000e+00  5.0035058001249472e-05 1.1921938045807944e-03 0.0000000000000000e+00  5.5197423042162194e-05 1.2180716828048424e-03 0.0000000000000000e+00  6.0179475533039955e-05 1.2445451027680179e-03 0.0000000000000000e+00  6.5002837744287148e-05 1.2716086989623264e-03 0.0000000000000000e+00  6.9685739746455750e-05 1.2992541179780816e-03 0.0000000000000000e+00  7.4243879213350915e-05 1.3274672511186291e-03 0.0000000000000000e+00  7.8691310303076673e-05 1.3562261402371237e-03 0.0000000000000000e+00  8.3041157715658262e-05 1.3854994958670925e-03 0.0000000000000000e+00  8.7306041116180807e-05 1.4152457725552365e-03 0.0000000000000000e+00  9.1498163054794314e-05 1.4454127794299968e-03 0.0000000000000000e+00  9.5629064788845108e-05 1.4759378209842672e-03 0.0000000000000000e+00  9.9709087907521449e-05 1.5067483510804024e-03 0.0000000000000000e+00  1.0374659461411742e-04 1.5377631101984545e-03 0.0000000000000000e+00  1.0774701248518038e-04 1.5688937448195656e-03 0.0000000000000000e+00  1.1171182230535987e-04 1.6000469634863145e-03 0.0000000000000000e+00  1.0786657895000845e-05 1.0575412623660034e-03 0.0000000000000000e+00  1.7698254153730294e-05 1.0806287000944617e-03 0.0000000000000000e+00  2.4263546239235435e-05 1.1044298202774071e-03 0.0000000000000000e+00  3.0513306262043880e-05 1.1288834269284774e-03 0.0000000000000000e+00  3.6484371549683176e-05 1.1539515950657509e-03 0.0000000000000000e+00  4.2213060216698263e-05 1.1796148524198279e-03 0.0000000000000000e+00  4.7731509364775376e-05 1.2058658161194840e-03 0.0000000000000000e+00  5.3066251502186810e-05 1.2327029446141749e-03 0.0000000000000000e+00  5.8238288498614694e-05 1.2601251450047553e-03 0.0000000000000000e+00  6.3264008964614542e-05 1.2881275433049167e-03 0.0000000000000000e+00  6.8156429080781637e-05 1.3166984411259550e-03 0.0000000000000000e+00  7.2926399485699050e-05 1.3458172993155990e-03 0.0000000000000000e+00  7.7583573861924267e-05 1.3754535359799215e-03 0.0000000000000000e+00  8.2137047004818159e-05 1.4055659702723225e-03 0.0000000000000000e+00  8.6595640884702275e-05 1.4361028104035085e-03 0.0000000000000000e+00  9.0967858216140730e-05 1.4670021312351530e-03 0.0000000000000000e+00  9.5261544228892049e-05 1.4981928021565196e-03 0.0000000000000000e+00  9.9483307590006101e-05 1.5295958252416670e-03 0.0000000000000000e+00  1.0363776496110380e-04 1.5611260460905083e-03 0.0000000000000000e+00  1.0772670916141739e-04 1.5926941867305060e-03 0.0000000000000000e+00  1.1174835621472035e-04 1.6242090328242691e-03 0.0000000000000000e+00  8.5397951963786041e-06 1.0659214419876906e-03 0.0000000000000000e+00  1.5423220613882263e-05 1.0901843681671889e-03 0.0000000000000000e+00  2.1975626594509554e-05 1.1150781572282049e-03 0.0000000000000000e+00  2.8243052202467596e-05 1.1405603880942556e-03 0.0000000000000000e+00  3.4267756074793176e-05 1.1666145519678658e-03 0.0000000000000000e+00  4.0084602920380964e-05 1.1932397799775283e-03 0.0000000000000000e+00  4.5720187570181456e-05 1.2204419397268953e-03 0.0000000000000000e+00  5.1193628792508841e-05 1.2482266134602250e-03 0.0000000000000000e+00  5.6518186710777762e-05 1.2765940798620402e-03 0.0000000000000000e+00  6.1703074607638185e-05 1.3055361072760159e-03 0.0000000000000000e+00  6.6755080010744090e-05 1.3350341508313753e-03 0.0000000000000000e+00  7.1679822015356800e-05 1.3650585341591023e-03 0.0000000000000000e+00  7.6482603467728659e-05 1.3955683203919183e-03 0.0000000000000000e+00  8.1168880061892847e-05 1.4265117035491691e-03 0.0000000000000000e+00  8.5744390660836333e-05 1.4578268364060080e-03 0.0000000000000000e+00  9.0214996015107576e-05 1.4894430467819913e-03 0.0000000000000000e+00  9.4586271539918594e-05 1.5212823956437496e-03 0.0000000000000000e+00  9.8862904690855287e-05 1.5532615139651137e-03 0.0000000000000000e+00  1.0304796519805239e-04 1.5852936147196944e-03 0.0000000000000000e+00  1.0714213930955467e-04 1.6172904808571514e-03 0.0000000000000000e+00  1.1114301528697309e-04 1.6491640983787624e-03 0.0000000000000000e+00  6.6658290571362745e-06 1.0755417411753869e-03 0.0000000000000000e+00  1.3443043871790718e-05 1.1008951732434942e-03 0.0000000000000000e+00  1.9935861460845859e-05 1.1267967331931577e-03 0.0000000000000000e+00  2.6193320844709702e-05 1.1532390175095812e-03 0.0000000000000000e+00  3.2252457715890081e-05 1.1802329272224338e-03 0.0000000000000000e+00  3.8138630117625022e-05 1.2077957627854594e-03 0.0000000000000000e+00  4.3867525891526668e-05 1.2359425332784313e-03 0.0000000000000000e+00  4.9447816137232661e-05 1.2646803170502003e-03 0.0000000000000000e+00  5.4883719441609846e-05 1.2940051664701046e-03 0.0000000000000000e+00  6.0177098759199844e-05 1.3239007787358339e-03 0.0000000000000000e+00  6.5329001749557351e-05 1.3543382377980420e-03 0.0000000000000000e+00  7.0340695319664483e-05 1.3852764066075924e-03 0.0000000000000000e+00  7.5214283006697858e-05 1.4166627610416266e-03 0.0000000000000000e+00  7.9952983169014879e-05 1.4484345844204089e-03 0.0000000000000000e+00  8.4561121897078008e-05 1.4805204892708119e-03 0.0000000000000000e+00  8.9043876283884235e-05 1.5128422269634013e-03 0.0000000000000000e+00  9.3406797296509745e-05 1.5453167125749295e-03 0.0000000000000000e+00  9.7655145067664234e-05 1.5778581390047319e-03 0.0000000000000000e+00  1.0179307454368128e-04 1.6103799744285430e-03 0.0000000000000000e+00  1.0582270131839560e-04 1.6427965542342520e-03 0.0000000000000000e+00  1.0974305664508209e-04 1.6750239608062621e-03 0.0000000000000000e+00  4.8973317974904818e-06 1.0863973059280644e-03 0.0000000000000000e+00  1.1547029718862387e-05 1.1127151688090195e-03 0.0000000000000000e+00  1.7977332968730412e-05 1.1395337170108182e-03 0.0000000000000000e+00  2.4226219583807071e-05 1.1668825738634463e-03 0.0000000000000000e+00  3.0315971550339379e-05 1.1947953365390401e-03 0.0000000000000000e+00  3.6256940401105999e-05 1.2232993944748351e-03 0.0000000000000000e+00  4.2051581132752794e-05 1.2524100650742427e-03 0.0000000000000000e+00  4.7697908853044250e-05 1.2821281123739775e-03 0.0000000000000000e+00  5.3192064686077250e-05 1.3124393064327827e-03 0.0000000000000000e+00  5.8530071104241964e-05 1.3433149690562246e-03 0.0000000000000000e+00  6.3708975685746017e-05 1.3747129972878796e-03 0.0000000000000000e+00  6.8727562484336324e-05 1.4065791716829101e-03 0.0000000000000000e+00  7.3586745868347008e-05 1.4388487215633229e-03 0.0000000000000000e+