<?xml version="1.0"?>
<VTKFile type="UnstructuredGrid"  version="0.1"  >
<UnstructuredGrid>
<Piece  NumberOfPoints="621" NumberOfCells="1125">
<Points>
<DataArray  type="Float64"  NumberOfComponents="3"  format="ascii">1.883478260869565 0 0  1.9 0 0  1.9 0.01666666666666667 0  1.883478260869565 0.01666666666666667 0  1.916521739130435 0 0  1.916521739130435 0.01666666666666667 0  1.933043478260869 0 0  1.933043478260869 0.01666666666666667 0  1.949565217391304 0 0  1.949565217391304 0.01666666666666667 0  1.966086956521739 0 0  1.966086956521739 0.01666666666666667 0  1.982608695652174 0 0  1.982608695652174 0.01666666666666667 0  1.999130434782608 0 0  1.999130434782608 0.01666666666666667 0  2.015652173913043 0 0  2.015652173913043 0.01666666666666667 0  2.032173913043478 0 0  2.032173913043478 0.01666666666666667 0  2.048695652173913 0 0  2.048695652173913 0.01666666666666667 0  2.065217391304348 0 0  2.065217391304348 0.01666666666666667 0  2.081739130434782 0 0  2.081739130434782 0.01666666666666667 0  2.098260869565217 0 0  2.098260869565217 0.01666666666666667 0  2.114782608695652 0 0  2.114782608695652 0.01666666666666667 0  2.131304347826087 0 0  2.131304347826087 0.01666666666666667 0  2.147826086956522 0 0  2.147826086956522 0.01666666666666667 0  2.164347826086956 0 0  2.164347826086956 0.01666666666666667 0  2.180869565217391 0 0  2.180869565217391 0.01666666666666667 0  2.197391304347826 0 0  2.197391304347826 0.01666666666666667 0  2.213913043478261 0 0  2.213913043478261 0.01666666666666667 0  2.230434782608695 0 0  2.230434782608695 0.01666666666666667 0  2.24695652173913 0 0  2.24695652173913 0.01666666666666667 0  2.263478260869565 0 0  2.263478260869565 0.01666666666666667 0  2.28 0 0  2.28 0.01666666666666667 0  2.296521739130434 0 0  2.296521739130434 0.01666666666666667 0  2.31304347826087 0 0  2.31304347826087 0.01666666666666667 0  2.329565217391304 0 0  2.329565217391304 0.01666666666666667 0  2.346086956521739 0 0  2.346086956521739 0.01666666666666667 0  2.362608695652174 0 0  2.362608695652174 0.01666666666666667 0  2.379130434782609 0 0  2.379130434782609 0.01666666666666667 0  2.395652173913044 0 0  2.395652173913044 0.01666666666666667 0  2.412173913043478 0 0  2.412173913043478 0.01666666666666667 0  2.428695652173913 0 0  2.428695652173913 0.01666666666666667 0  2.445217391304348 0 0  2.445217391304348 0.01666666666666667 0  2.461739130434782 0 0  2.461739130434782 0.01666666666666667 0  2.478260869565217 0 0  2.478260869565217 0.01666666666666667 0  2.494782608695652 0 0  2.494782608695652 0.01666666666666667 0  2.511304347826087 0 0  2.511304347826087 0.01666666666666667 0  2.527826086956522 0 0  2.527826086956522 0.01666666666666667 0  2.544347826086956 0 0  2.544347826086956 0.01666666666666667 0  2.560869565217391 0 0  2.560869565217391 0.01666666666666667 0  2.577391304347826 0 0  2.577391304347826 0.01666666666666667 0  1.916521739130435 0.03333333333333333 0  1.933043478260869 0.03333333333333333 0  1.949565217391304 0.03333333333333333 0  1.966086956521739 0.03333333333333333 0  1.982608695652174 0.03333333333333333 0  1.999130434782608 0.03333333333333333 0  2.015652173913043 0.03333333333333333 0  2.032173913043478 0.03333333333333333 0  2.048695652173913 0.03333333333333333 0  2.065217391304348 0.03333333333333333 0  2.081739130434782 0.03333333333333333 0  2.098260869565217 0.03333333333333333 0  2.114782608695652 0.03333333333333333 0  2.131304347826087 0.03333333333333333 0  2.147826086956522 0.03333333333333333 0  2.164347826086956 0.03333333333333333 0  2.180869565217391 0.03333333333333333 0  2.197391304347826 0.03333333333333333 0  2.213913043478261 0.03333333333333333 0  2.230434782608695 0.03333333333333333 0  2.24695652173913 0.03333333333333333 0  2.263478260869565 0.03333333333333333 0  2.28 0.03333333333333333 0  2.296521739130434 0.03333333333333333 0  2.31304347826087 0.03333333333333333 0  2.329565217391304 0.03333333333333333 0  2.346086956521739 0.03333333333333333 0  2.362608695652174 0.03333333333333333 0  2.379130434782609 0.03333333333333333 0  2.395652173913044 0.03333333333333333 0  2.412173913043478 0.03333333333333333 0  2.428695652173913 0.03333333333333333 0  2.445217391304348 0.03333333333333333 0  2.461739130434782 0.03333333333333333 0  2.478260869565217 0.03333333333333333 0  2.494782608695652 0.03333333333333333 0  2.511304347826087 0.03333333333333333 0  2.527826086956522 0.03333333333333333 0  2.544347826086956 0.03333333333333333 0  2.560869565217391 0.03333333333333333 0  2.577391304347826 0.03333333333333333 0  2.593913043478261 0.03333333333333333 0  1.933043478260869 0.05 0  1.949565217391304 0.05 0  1.966086956521739 0.05 0  1.982608695652174 0.05 0  1.999130434782608 0.05 0  2.015652173913043 0.05 0  2.032173913043478 0.05 0  2.048695652173913 0.05 0  2.065217391304348 0.05 0  2.081739130434782 0.05 0  2.098260869565217 0.05 0  2.114782608695652 0.05 0  2.131304347826087 0.05 0  2.147826086956522 0.05 0  2.164347826086956 0.05 0  2.180869565217391 0.05 0  2.197391304347826 0.05 0  2.213913043478261 0.05 0  2.230434782608695 0.05 0  2.24695652173913 0.05 0  2.263478260869565 0.05 0  2.28 0.05 0  2.296521739130434 0.05 0  2.31304347826087 0.05 0  2.329565217391304 0.05 0  2.346086956521739 0.05 0  2.362608695652174 0.05 0  2.379130434782609 0.05 0  2.395652173913044 0.05 0  2.412173913043478 0.05 0  2.428695652173913 0.05 0  2.445217391304348 0.05 0  2.461739130434782 0.05 0  2.478260869565217 0.05 0  2.494782608695652 0.05 0  2.511304347826087 0.05 0  2.527826086956522 0.05 0  2.544347826086956 0.05 0  2.560869565217391 0.05 0  2.577391304347826 0.05 0  2.593913043478261 0.05 0  2.610434782608696 0.05 0  1.949565217391304 0.06666666666666667 0  1.966086956521739 0.06666666666666667 0  1.982608695652174 0.06666666666666667 0  1.999130434782608 0.06666666666666667 0  2.015652173913043 0.06666666666666667 0  2.032173913043478 0.06666666666666667 0  2.048695652173913 0.06666666666666667 0  2.065217391304348 0.06666666666666667 0  2.081739130434782 0.06666666666666667 0  2.098260869565217 0.06666666666666667 0  2.114782608695652 0.06666666666666667 0  2.131304347826087 0.06666666666666667 0  2.147826086956522 0.06666666666666667 0  2.164347826086956 0.06666666666666667 0  2.180869565217391 0.06666666666666667 0  2.197391304347826 0.06666666666666667 0  2.213913043478261 0.06666666666666667 0  2.230434782608695 0.06666666666666667 0  2.24695652173913 0.06666666666666667 0  2.263478260869565 0.06666666666666667 0  2.28 0.06666666666666667 0  2.296521739130434 0.06666666666666667 0  2.31304347826087 0.06666666666666667 0  2.329565217391304 0.06666666666666667 0  2.346086956521739 0.06666666666666667 0  2.362608695652174 0.06666666666666667 0  2.379130434782609 0.06666666666666667 0  2.395652173913044 0.06666666666666667 0  2.412173913043478 0.06666666666666667 0  2.428695652173913 0.06666666666666667 0  2.445217391304348 0.06666666666666667 0  2.461739130434782 0.06666666666666667 0  2.478260869565217 0.06666666666666667 0  2.494782608695652 0.06666666666666667 0  2.511304347826087 0.06666666666666667 0  2.527826086956522 0.06666666666666667 0  2.544347826086956 0.06666666666666667 0  2.560869565217391 0.06666666666666667 0  2.577391304347826 0.06666666666666667 0  2.593913043478261 0.06666666666666667 0  2.610434782608696 0.06666666666666667 0  2.62695652173913 0.06666666666666667 0  1.966086956521739 0.08333333333333333 0  1.982608695652174 0.08333333333333333 0  1.999130434782608 0.08333333333333333 0  2.015652173913043 0.08333333333333333 0  2.032173913043478 0.08333333333333333 0  2.048695652173913 0.08333333333333333 0  2.065217391304348 0.08333333333333333 0  2.081739130434782 0.08333333333333333 0  2.098260869565217 0.08333333333333333 0  2.114782608695652 0.08333333333333333 0  2.131304347826087 0.08333333333333333 0  2.147826086956522 0.08333333333333333 0  2.164347826086956 0.08333333333333333 0  2.180869565217391 0.08333333333333333 0  2.197391304347826 0.08333333333333333 0  2.213913043478261 0.08333333333333333 0  2.230434782608695 0.08333333333333333 0  2.24695652173913 0.08333333333333333 0  2.263478260869565 0.08333333333333333 0  2.28 0.08333333333333333 0  2.296521739130434 0.08333333333333333 0  2.31304347826087 0.08333333333333333 0  2.329565217391304 0.08333333333333333 0  2.346086956521739 0.08333333333333333 0  2.362608695652174 0.08333333333333333 0  2.379130434782609 0.08333333333333333 0  2.395652173913044 0.08333333333333333 0  2.412173913043478 0.08333333333333333 0  2.428695652173913 0.08333333333333333 0  2.445217391304348 0.08333333333333333 0  2.461739130434782 0.08333333333333333 0  2.478260869565217 0.08333333333333333 0  2.494782608695652 0.08333333333333333 0  2.511304347826087 0.08333333333333333 0  2.527826086956522 0.08333333333333333 0  2.544347826086956 0.08333333333333333 0  2.560869565217391 0.08333333333333333 0  2.577391304347826 0.08333333333333333 0  2.593913043478261 0.08333333333333333 0  2.610434782608696 0.08333333333333333 0  2.62695652173913 0.08333333333333333 0  2.643478260869565 0.08333333333333333 0  1.982608695652174 0.1 0  1.999130434782608 0.1 0  2.015652173913043 0.1 0  2.032173913043478 0.1 0  2.048695652173913 0.1 0  2.065217391304348 0.1 0  2.081739130434782 0.1 0  2.098260869565217 0.1 0  2.114782608695652 0.1 0  2.131304347826087 0.1 0  2.147826086956522 0.1 0  2.164347826086956 0.1 0  2.180869565217391 0.1 0  2.197391304347826 0.1 0  2.213913043478261 0.1 0  2.230434782608695 0.1 0  2.24695652173913 0.1 0  2.263478260869565 0.1 0  2.28 0.1 0  2.296521739130434 0.1 0  2.31304347826087 0.1 0  2.329565217391304 0.1 0  2.346086956521739 0.1 0  2.362608695652174 0.1 0  2.379130434782609 0.1 0  2.395652173913044 0.1 0  2.412173913043478 0.1 0  2.428695652173913 0.1 0  2.445217391304348 0.1 0  2.461739130434782 0.1 0  2.478260869565217 0.1 0  2.494782608695652 0.1 0  2.511304347826087 0.1 0  2.527826086956522 0.1 0  2.544347826086956 0.1 0  2.560869565217391 0.1 0  2.5773
[...]
<PointData  Vectors="Displacement"> 
<DataArray  type="Float64"  Name="Displacement"  NumberOfComponents="3" format="ascii">2.3820077934732115e-04 1.9781175642129604e-03 0.0000000000000000e+00  2.3853655583044463e-04 2.0084197558197349e-03 0.0000000000000000e+00  2.0924296322924805e-04 2.0081495001850105e-03 0.0000000000000000e+00  2.0791055422473062e-04 1.9777202350348966e-03 0.0000000000000000e+00  2.3835151496195991e-04 2.0373987480437161e-03 0.0000000000000000e+00  2.1046127358019276e-04 2.0373122959677931e-03 0.0000000000000000e+00  2.3777423208240411e-04 2.0646150787634924e-03 0.0000000000000000e+00  2.1141577841365358e-04 2.0646703113470638e-03 0.0000000000000000e+00  2.3708063848945708e-04 2.0899827675075521e-03 0.0000000000000000e+00  2.1212761656528363e-04 2.0900504538916803e-03 0.0000000000000000e+00  2.3641310188071343e-04 2.1139802697148027e-03 0.0000000000000000e+00  2.1263002923170991e-04 2.1140622744308230e-03 0.0000000000000000e+00  2.3582209206569419e-04 2.1368934005301702e-03 0.0000000000000000e+00  2.1297012919567438e-04 2.1369811740905818e-03 0.0000000000000000e+00  2.3535981963075515e-04 2.1589286951008489e-03 0.0000000000000000e+00  2.1321495039508878e-04 2.1590015640604106e-03 0.0000000000000000e+00  2.3509394901533146e-04 2.1802856342104456e-03 0.0000000000000000e+00  2.1343789040551502e-04 2.1803186859199364e-03 0.0000000000000000e+00  2.3510501773039457e-04 2.2011711276128309e-03 0.0000000000000000e+00  2.1371644140793757e-04 2.2011332104104530e-03 0.0000000000000000e+00  2.3546410045025814e-04 2.2218363027086472e-03 0.0000000000000000e+00  2.1411684602393484e-04 2.2217009324602376e-03 0.0000000000000000e+00  2.3619759346971207e-04 2.2425776550932600e-03 0.0000000000000000e+00  2.1467303527135072e-04 2.2423361317601260e-03 0.0000000000000000e+00  2.3725921192570574e-04 2.2637032342604133e-03 0.0000000000000000e+00  2.1536866036486147e-04 2.2633709203189385e-03 0.0000000000000000e+00  2.3850087949072973e-04 2.2854892366469845e-03 0.0000000000000000e+00  2.1612248075283461e-04 2.2851300429779426e-03 0.0000000000000000e+00  2.3979772695102903e-04 2.3079331785288947e-03 0.0000000000000000e+00  2.1689615134648762e-04 2.3075596290673865e-03 0.0000000000000000e+00  2.4107761320403466e-04 2.3309533366246940e-03 0.0000000000000000e+00  2.1771822494784791e-04 2.3305756752555317e-03 0.0000000000000000e+00  2.4230692742164704e-04 2.3543728500174722e-03 0.0000000000000000e+00  2.1862537524162381e-04 2.3540078533182043e-03 0.0000000000000000e+00  2.4349780497499401e-04 2.3779902945229338e-03 0.0000000000000000e+00  2.1960285998747384e-04 2.3776404288167884e-03 0.0000000000000000e+00  2.4467063567980740e-04 2.4017908117139669e-03 0.0000000000000000e+00  2.2055276699259530e-04 2.4014463401434848e-03 0.0000000000000000e+00  2.4583859716079538e-04 2.4258167380873425e-03 0.0000000000000000e+00  2.2147158027360157e-04 2.4254745410469255e-03 0.0000000000000000e+00  2.4700478304498074e-04 2.4501054817375910e-03 0.0000000000000000e+00  2.2236612419654147e-04 2.4497637563805769e-03 0.0000000000000000e+00  2.4816686899186368e-04 2.4746803309904177e-03 0.0000000000000000e+00  2.2324624297696596e-04 2.4743373826839991e-03 0.0000000000000000e+00  2.4931902264807175e-04 2.4995463520709475e-03 0.0000000000000000e+00  2.2412446434243351e-04 2.4992018361707927e-03 0.0000000000000000e+00  2.5045382229464138e-04 2.5246847370712397e-03 0.0000000000000000e+00  2.2501310361117182e-04 2.5243396175289434e-03 0.0000000000000000e+00  2.5156507927970659e-04 2.5500552385118191e-03 0.0000000000000000e+00  2.2592074738285711e-04 2.5497106210703121e-03 0.0000000000000000e+00  2.5264931760437561e-04 2.5756054440719605e-03 0.0000000000000000e+00  2.2685160093465886e-04 2.5752625034488955e-03 0.0000000000000000e+00  2.5370616591117941e-04 2.6012791274510048e-03 0.0000000000000000e+00  2.2780563804172932e-04 2.6009388904590165e-03 0.0000000000000000e+00  2.5473801603747496e-04 2.6270248074520990e-03 0.0000000000000000e+00  2.2877877523354198e-04 2.6266878571900207e-03 0.0000000000000000e+00  2.5574886278195371e-04 2.6528025904287321e-03 0.0000000000000000e+00  2.2976421102726194e-04 2.6524690658341061e-03 0.0000000000000000e+00  2.5674295830109431e-04 2.6785862688132114e-03 0.0000000000000000e+00  2.3075473591282469e-04 2.6782559569177205e-03 0.0000000000000000e+00  2.5772381815799736e-04 2.7043613746018311e-03 0.0000000000000000e+00  2.3174467993995282e-04 2.7040338573277108e-03 0.0000000000000000e+00  2.5869368165129704e-04 2.7301211646731066e-03 0.0000000000000000e+00  2.3273074743641742e-04 2.7297960061924359e-03 0.0000000000000000e+00  2.5965343253145086e-04 2.7558621311565275e-03 0.0000000000000000e+00  2.3371192764718997e-04 2.7555390049856959e-03 0.0000000000000000e+00  2.6060288794592336e-04 2.7815803900012662e-03 0.0000000000000000e+00  2.3468885443970946e-04 2.7812590925538430e-03 0.0000000000000000e+00  2.6154121440561507e-04 2.8072695898862391e-03 0.0000000000000000e+00  2.3566305945392577e-04 2.8069500261821236e-03 0.0000000000000000e+00  2.6246730734635096e-04 2.8329200554177312e-03 0.0000000000000000e+00  2.3663637225857106e-04 2.8326022185596596e-03 0.0000000000000000e+00  2.6338008138588492e-04 2.8585188014691202e-03 0.0000000000000000e+00  2.3761049670959332e-04 2.8582027436910881e-03 0.0000000000000000e+00  2.6427865156924740e-04 2.8840500945267467e-03 0.0000000000000000e+00  2.3858676655541991e-04 2.8837359183153900e-03 0.0000000000000000e+00  2.6516243770392372e-04 2.9094962311038107e-03 0.0000000000000000e+00  2.3956602421666879e-04 2.9091840918981683e-03 0.0000000000000000e+00  2.6603124587030005e-04 2.9348384488574993e-03 0.0000000000000000e+00  2.4054853458655085e-04 2.9345285363569589e-03 0.0000000000000000e+00  2.6688532468006871e-04 2.9600580391904285e-03 0.0000000000000000e+00  2.4153392626067132e-04 2.9597505401045615e-03 0.0000000000000000e+00  2.6772536793662340e-04 2.9851375838831928e-03 0.0000000000000000e+00  2.4252121298601318e-04 2.9848326200271448e-03 0.0000000000000000e+00  2.6855242909813699e-04 3.0100621756580523e-03 0.0000000000000000e+00  2.4350894197684158e-04 3.0097596967266901e-03 0.0000000000000000e+00  1.8281574062386388e-04 2.0367203270216308e-03 0.0000000000000000e+00  1.8570832590318435e-04 2.0644504941051121e-03 0.0000000000000000e+00  1.8771862493635803e-04 2.0897749861062916e-03 0.0000000000000000e+00  1.8922937740194456e-04 2.1138663744564822e-03 0.0000000000000000e+00  1.9033886125131266e-04 2.1368814506178102e-03 0.0000000000000000e+00  1.9112477636421761e-04 2.1589647172680750e-03 0.0000000000000000e+00  1.9168249684565212e-04 2.1803085018191146e-03 0.0000000000000000e+00  1.9211195721088105e-04 2.2010933368936032e-03 0.0000000000000000e+00  1.9250155133944006e-04 2.2215779757771901e-03 0.0000000000000000e+00  1.9291082834933771e-04 2.2421057003345034e-03 0.0000000000000000e+00  1.9334456296082100e-04 2.2630609609970097e-03 0.0000000000000000e+00  1.9366154759621368e-04 2.2848676954767507e-03 0.0000000000000000e+00  1.9395290145441510e-04 2.3073463696422244e-03 0.0000000000000000e+00  1.9421966069076751e-04 2.3302740762575895e-03 0.0000000000000000e+00  1.9480872149674157e-04 2.3536959374358263e-03 0.0000000000000000e+00  1.9575240154905707e-04 2.3773229521589531e-03 0.0000000000000000e+00  1.9659463174870198e-04 2.4011517458789144e-03 0.0000000000000000e+00  1.9727643312476714e-04 2.4252015366132487e-03 0.0000000000000000e+00  1.9786307643295054e-04 2.4494991696256234e-03 0.0000000000000000e+00  1.9841788918507181e-04 2.4740723364697287e-03 0.0000000000000000e+00  1.9897731704111033e-04 2.4989273548739165e-03 0.0000000000000000e+00  1.9958269984600942e-04 2.5240531448954273e-03 0.0000000000000000e+00  2.0026062369294016e-04 2.5494125395871723e-03 0.0000000000000000e+00  2.0102170494248764e-04 2.5749534828031864e-03 0.0000000000000000e+00  2.0186910778518887e-04 2.6006207454300902e-03 0.0000000000000000e+00  2.0279189475566975e-04 2.6263629940971229e-03 0.0000000000000000e+00  2.0376713095918730e-04 2.6521401537862735e-03 0.0000000000000000e+00  2.0476982514341927e-04 2.6779255507039207e-03 0.0000000000000000e+00  2.0578021628771435e-04 2.7037038157165516e-03 0.0000000000000000e+00  2.0678692854448824e-04 2.7294671498965823e-03 0.0000000000000000e+00  2.0778731849442275e-04 2.7552112481829438e-03 0.0000000000000000e+00  2.0878491903478854e-04 2.7809318441499621e-03 0.0000000000000000e+00  2.0978576178611613e-04 2.8066224892890059e-03 0.0000000000000000e+00  2.1079629515018383e-04 2.8322736093709115e-03 0.0000000000000000e+00  2.1182219574760513e-04 2.8578724233550897e-03 0.0000000000000000e+00  2.1286770979119505e-04 2.8834034287146355e-03 0.0000000000000000e+00  2.1393566074470185e-04 2.9088491867924572e-03 0.0000000000000000e+00  2.1502740135963082e-04 2.9341912239682810e-03 0.0000000000000000e+00  2.1614238884076981e-04 2.9594110859264291e-03 0.0000000000000000e+00  2.1727797965505861e-04 2.9844915285672726e-03 0.0000000000000000e+00  2.1842944375267932e-04 3.0094176445058110e-03 0.0000000000000000e+00  2.1959032314427640e-04 3.0341776049144457e-03 0.0000000000000000e+00  1.5987778388515647e-04 2.0634060271607062e-03 0.0000000000000000e+00  1.6490759366337378e-04 2.0893792989310732e-03 0.0000000000000000e+00  1.6675182989523343e-04 2.1134972836630564e-03 0.0000000000000000e+00  1.6846323632898496e-04 2.1367282434758047e-03 0.0000000000000000e+00  1.6958627279622994e-04 2.1589423046539987e-03 0.0000000000000000e+00  1.7031144336139339e-04 2.1803645471824753e-03 0.0000000000000000e+00  1.7077676098739710e-04 2.2011279853668556e-03 0.0000000000000000e+00  1.7109837479564068e-04 2.2214943104091130e-03 0.0000000000000000e+00  1.7135753007200942e-04 2.2418335475883873e-03 0.0000000000000000e+00  1.7162803428962686e-04 2.2626134319319491e-03 0.0000000000000000e+00  1.7175163811612072e-04 2.2845467276918102e-03 0.0000000000000000e+00  1.7160227658343530e-04 2.3071259800383011e-03 0.0000000000000000e+00  1.7111266431837438e-04 2.3301743133255096e-03 0.0000000000000000e+00  1.7234648711821806e-04 2.3509497968249205e-03 0.0000000000000000e+00  1.7371884521140234e-04 2.3735964431784353e-03 0.0000000000000000e+00  1.7494533751289730e-04 2.3968849380211293e-03 0.0000000000000000e+00  1.7603355992526688e-04 2.4205398239528072e-03 0.0000000000000000e+00  1.7703677960744101e-04 2.4444886234311031e-03 0.0000000000000000e+00  1.7800850209264503e-04 2.4687258307767384e-03 0.0000000000000000e+00  1.7899137281304024e-04 2.4932523728063661e-03 0.0000000000000000e+00  1.8001694930337296e-04 2.5180561427745724e-03 0.0000000000000000e+00  1.8110657246247979e-04 2.5431104021640945e-03 0.0000000000000000e+00  1.8226983443288145e-04 2.5683761626089825e-03 0.0000000000000000e+00  1.8350575706506113e-04 2.5938093424887178e-03 0.0000000000000000e+00  1.8480418455774498e-04 2.6193686305877682e-03 0.0000000000000000e+00  1.8614801727723926e-04 2.6450190867022653e-03 0.0000000000000000e+00  1.8751756259528994e-04 2.6707329265380818e-03 0.0000000000000000e+00  1.8889486409697382e-04 2.6964890590061370e-03 0.0000000000000000e+00  1.9026646024672690e-04 2.7222715395290053e-03 0.0000000000000000e+00  1.9162437429768773e-04 2.7480674618564011e-03 0.0000000000000000e+00  1.9296558827462150e-04 2.7738650855693983e-03 0.0000000000000000e+00  1.9429061458183232e-04 2.7996523518880509e-03 0.0000000000000000e+00  1.9560196062278786e-04 2.8254158164604899e-03 0.0000000000000000e+00  1.9690287878135757e-04 2.8511403010352959e-03 0.0000000000000000e+00  1.9819644385755820e-04 2.8768090566956622e-03 0.0000000000000000e+00  1.9948494363595395e-04 2.9024041993507186e-03 0.0000000000000000e+00  2.0076948317518668e-04 2.9279073842447328e-03 0.0000000000000000e+00  2.0204972522532556e-04 2.9533006091201426e-03 0.0000000000000000e+00  2.0332384975942379e-04 2.9785669632219577e-03 0.0000000000000000e+00  2.0458885049104563e-04 3.0036912305812864e-03 0.0000000000000000e+00  2.0584126272766396e-04 3.0286600732421691e-03 0.0000000000000000e+00  2.0707838498302400e-04 3.0534613455995641e-03 0.0000000000000000e+00  1.4328359472092780e-04 2.0869357424149171e-03 0.0000000000000000e+00  1.4510569591325343e-04 2.1130427431079101e-03 0.0000000000000000e+00  1.4767961471272699e-04 2.1366004174184590e-03 0.0000000000000000e+00  1.4902425626846675e-04 2.1590890189280144e-03 0.0000000000000000e+00  1.4971284642261318e-04 2.1806122784910733e-03 0.0000000000000000e+00  1.5010880811368508e-04 2.2013141296985377e-03 0.0000000000000000e+00  1.5034650858523956e-04 2.2214714202452800e-03 0.0000000000000000e+00  1.5051998195693691e-04 2.2414679629872763e-03 0.0000000000000000e+00  1.5077130782010638e-04 2.2616870421061849e-03 0.0000000000000000e+00  1.5088377082909073e-04 2.2835936402137796e-03 0.0000000000000000e+00  1.5114884048030906e-04 2.3045489362579930e-03 0.0000000000000000e+00  1.5176388227400040e-04 2.3264853372279093e-03 0.0000000000000000e+00  1.5270300732936421e-04 2.3475041803688182e-03 0.0000000000000000e+00  1.5361422836249663e-04 2.3695616490719677e-03 0.0000000000000000e+00  1.5467880655735064e-04 2.3923465112979424e-03 0.0000000000000000e+00  1.5582017821177274e-04 2.4155801476363906e-03 0.0000000000000000e+00  1.5700659471066698e-04 2.4391535291319244e-03 0.0000000000000000e+00  1.5823621238064239e-04 2.4630400064078496e-03 0.0000000000000000e+00  1.5951973931099077e-04 2.4872323793830673e-03 0.0000000000000000e+00  1.6086871548388142e-04 2.5117213889203609e-03 0.0000000000000000e+00  1.6229051994535746e-04 2.5364863591063372e-03 0.0000000000000000e+00  1.6378684074032081e-04 2.5614962631901697e-03 0.0000000000000000e+00  1.6535252434034313e-04 2.5867156378120461e-03 0.0000000000000000e+00  1.6697590603708662e-04 2.6121095181490307e-03 0.0000000000000000e+00  1.6864075259094753e-04 2.6376459462638811e-03 0.0000000000000000e+00  1.7032880396841311e-04 2.6632967701549072e-03 0.0000000000000000e+00  1.7202232872146452e-04 2.6890375031807094e-03 0.0000000000000000e+00  1.7370622043133980e-04 2.7148466248247878e-03 0.0000000000000000e+00  1.7536922917957618e-04 2.7407046330483868e-03 0.0000000000000000e+00  1.7700423574789056e-04 2.7665931854702649e-03 0.0000000000000000e+00  1.7860777746750930e-04 2.7924943811653310e-03 0.0000000000000000e+00  1.8017913098031176e-04 2.8183901858810484e-03 0.0000000000000000e+00  1.8171923963778328e-04 2.8442621743948195e-03 0.0000000000000000e+00  1.8322971998902126e-04 2.8700915618136303e-03 0.0000000000000000e+00  1.8471206017550858e-04 2.8958594126860492e-03 0.0000000000000000e+00  1.8616705082698229e-04 2.9215469941218605e-03 0.0000000000000000e+00  1.8759447734163686e-04 2.9471361956318288e-03 0.0000000000000000e+00  1.8899309827591731e-04 2.9726098806072240e-03 0.0000000000000000e+00  1.9036092198977892e-04 2.9979520709528234e-03 0.0000000000000000e+00  1.9169576413196037e-04 3.0231478085163510e-03 0.0000000000000000e+00  1.9299596203498580e-04 3.0481825326185673e-03 0.0000000000000000e+00  1.9426096597004687e-04 3.0730412265992132e-03 0.0000000000000000e+00  1.2652699479033253e-04 2.1110206831315885e-03 0.0000000000000000e+00  1.2833632402949139e-04 2.1353075643692947e-03 0.0000000000000000e+00  1.2950215037456711e-04 2.1596484033779089e-03 0.0000000000000000e+00  1.3006681586059352e-04 2.1811973291002017e-03 0.0000000000000000e+00  1.3032852940761809e-04 2.2017345858209919e-03 0.0000000000000000e+00  1.3049048436583429e-04 2.2215470406773200e-03 0.0000000000000000e+00  1.3061755199310793e-04 2.2410527474040218e-03 0.0000000000000000e+00  1.3087949483748520e-04 2.2604413882330817e-03 0.0000000000000000e+00  1.3128606166800660e-04 2.2801681348994592e-03 0.0000000000000000e+00  1.3191822606611442e-04 2.3015038568134196e-03 0.0000000000000000e+00  1.3251706996067879e-04 2.3227811307576247e-03 0.0000000000000000e+00  1.3332951430945818e-04 2.3438268267723847e-03 0.0000000000000000e+00  1.3417071239528225e-04 2.3654559424805136e-03 0.0000000000000000e+00  1.3516855248772505e-04 2.3877044323426075e-03 0.0000000000000000e+00  1.3632474896963184e-04 2.4104533801677310e-03 0.0000000000000000e+00  1.3761087392317279e-04 2.4335942890735605e-03 0.0000000000000000e+00  1.3900733843667942e-04 2.4570914403208321e-03 0.0000000000000000e+00  1.4050540039051198e-04 2.4809282473141629e-03 0.0000000000000000e+00  1.4209935322959290e-04 2.5050961328997538e-03 0.0000000000000000e+00  1.4378337697481787e-04 2.5295765088152173e-03 0.0000000000000000e+00  1.4555067236334473e-04 2.5543411011501116e-03 0.0000000000000000e+00  1.4739105910452604e-04 2.5793593735809737e-03 0.0000000000000000e+00  1.4929010603311285e-04 2.6046004796205545e-03 0.0000000000000000e+00  1.5123024025782801e-04 2.6300342137202995e-03 0.0000000000000000e+00  1.5319234138948013e-04 2.6556320323201724e-03 0.0000000000000000e+00  1.5515746540626475e-04 2.6813669445297050e-03 0.0000000000000000e+00  1.5710855431440453e-04 2.7072130287811398e-03 0.0000000000000000e+00  1.5903173684692884e-04 2.7331451325213895e-03 0.0000000000000000e+00  1.6091695538451400e-04 2.7591387997957322e-03 0.0000000000000000e+00  1.6275791081142688e-04 2.7851702994079429e-03 0.0000000000000000e+00  1.6455146593703676e-04 2.8112166526169588e-03 0.0000000000000000e+00  1.6629672498193407e-04 2.8372556757178236e-03 0.0000000000000000e+00  1.6799403682578963e-04 2.8632660273044831e-03 0.0000000000000000e+00  1.6964411053789895e-04 2.8892272460632833e-03 0.0000000000000000e+00  1.7124735483577911e-04 2.9151197946861319e-03 0.0000000000000000e+00  1.7280350237765696e-04 2.9409250960305789e-03 0.0000000000000000e+00  1.7431153326035413e-04 2.9666255076653079e-03 0.0000000000000000e+00  1.7576986848570107e-04 2.9922041805798584e-03 0.0000000000000000e+00  1.7717676545800471e-04 3.0176447318811242e-03 0.0000000000000000e+00  1.7853078749750521e-04 3.0429307043596068e-03 0.0000000000000000e+00  1.7983117382983858e-04 3.0680449977155007e-03 0.0000000000000000e+00  1.8107799691398669e-04 3.0929695631761104e-03 0.0000000000000000e+00  1.0986816290955050e-04 2.1341936229830358e-03 0.0000000000000000e+00  1.1121033724295757e-04 2.1588835363970512e-03 0.0000000000000000e+00  1.1162767681144880e-04 2.1825219998069861e-03 0.0000000000000000e+00  1.1154542193947258e-04 2.2024799183979109e-03 0.0000000000000000e+00  1.1160970649818627e-04 2.2217636928642671e-03 0.0000000000000000e+00  1.1170381780595315e-04 2.2407460451079908e-03 0.0000000000000000e+00  1.1181453779076045e-04 2.2592231515519245e-03 0.0000000000000000e+00  1.1223150228787815e-04 2.2772511900623241e-03 0.0000000000000000e+00  1.1284215789408835e-04 2.2983291412393223e-03 0.0000000000000000e+00  1.1351980383484140e-04 2.3191727261482435e-03 0.0000000000000000e+00  1.1429819140368611e-04 2.3399802704629304e-03 0.0000000000000000e+00  1.1517756298629120e-04 2.3611535522607479e-03 0.0000000000000000e+00  1.1620230693912347e-04 2.3829053517526043e-03 0.0000000000000000e+00  1.1738467713676380e-04 2.4051669016719309e-03 0.0000000000000000e+00  1.1873376209923710e-04 2.4278436415064325e-03 0.0000000000000000e+00  1.2023910480100733e-04 2.4509205413639329e-03 0.0000000000000000e+00  1.2188796428564453e-04 2.4743783697724615e-03 0.0000000000000000e+00  1.2366354547220008e-04 2.4982144881626873e-03 0.0000000000000000e+00  1.2554937963654472e-04 2.5224095817155071e-03 0.0000000000000000e+00  1.2753203065921255e-04 2.5469333241163439e-03 0.0000000000000000e+00  1.2959675121585607e-04 2.5717578999484222e-03 0.0000000000000000e+00  1.3172567566142667e-04 2.5968551893064554e-03 0.0000000000000000e+00  1.3389871898803981e-04 2.6221958240710999e-03 0.0000000000000000e+00  1.3609451196338300e-04 2.6477507983374573e-03 0.0000000000000000e+00  1.3829170457408611e-04 2.6734909595439618e-03 0.0000000000000000e+00  1.4047065495525612e-04 2.6993863421374258e-03 0.0000000000000000e+00  1.4261488764605906e-04 2.7254063317014208e-03 0.0000000000000000e+00  1.4471192176983437e-04 2.7515203407321547e-03 0.0000000000000000e+00  1.4675337697713504e-04 2.7776986223412774e-03 0.0000000000000000e+00  1.4873445754778390e-04 2.8039129544779771e-03 0.0000000000000000e+