<?xml version="1.0"?>
<VTKFile type="UnstructuredGrid"  version="0.1"  >
<UnstructuredGrid>
<Piece  NumberOfPoints="611" NumberOfCells="1123">
<Points>
<DataArray  type="Float64"  NumberOfComponents="3"  format="ascii">1.883478260869565 0.01666666666666667 0  1.9 0.01666666666666667 0  1.9 0.03333333333333333 0  1.883478260869565 0.03333333333333333 0  1.916521739130435 0.03333333333333333 0  1.9 0.05 0  1.883478260869565 0.05 0  1.916521739130435 0.05 0  1.933043478260869 0.05 0  1.9 0.06666666666666667 0  1.883478260869565 0.06666666666666667 0  1.916521739130435 0.06666666666666667 0  1.933043478260869 0.06666666666666667 0  1.949565217391304 0.06666666666666667 0  1.9 0.08333333333333333 0  1.883478260869565 0.08333333333333333 0  1.916521739130435 0.08333333333333333 0  1.933043478260869 0.08333333333333333 0  1.949565217391304 0.08333333333333333 0  1.966086956521739 0.08333333333333333 0  1.9 0.1 0  1.883478260869565 0.1 0  1.916521739130435 0.1 0  1.933043478260869 0.1 0  1.949565217391304 0.1 0  1.966086956521739 0.1 0  1.982608695652174 0.1 0  1.9 0.1166666666666667 0  1.883478260869565 0.1166666666666667 0  1.916521739130435 0.1166666666666667 0  1.933043478260869 0.1166666666666667 0  1.949565217391304 0.1166666666666667 0  1.966086956521739 0.1166666666666667 0  1.982608695652174 0.1166666666666667 0  1.999130434782608 0.1166666666666667 0  1.9 0.1333333333333333 0  1.883478260869565 0.1333333333333333 0  1.916521739130435 0.1333333333333333 0  1.933043478260869 0.1333333333333333 0  1.949565217391304 0.1333333333333333 0  1.966086956521739 0.1333333333333333 0  1.982608695652174 0.1333333333333333 0  1.999130434782608 0.1333333333333333 0  2.015652173913043 0.1166666666666667 0  2.015652173913043 0.1333333333333333 0  2.032173913043478 0.1166666666666667 0  2.032173913043478 0.1333333333333333 0  2.048695652173913 0.1166666666666667 0  2.048695652173913 0.1333333333333333 0  2.065217391304348 0.1166666666666667 0  2.065217391304348 0.1333333333333333 0  2.081739130434782 0.1166666666666667 0  2.081739130434782 0.1333333333333333 0  2.098260869565217 0.1333333333333333 0  1.9 0.15 0  1.883478260869565 0.15 0  1.916521739130435 0.15 0  1.933043478260869 0.15 0  1.949565217391304 0.15 0  1.966086956521739 0.15 0  1.982608695652174 0.15 0  1.999130434782608 0.15 0  2.015652173913043 0.15 0  2.032173913043478 0.15 0  2.048695652173913 0.15 0  2.065217391304348 0.15 0  2.081739130434782 0.15 0  2.098260869565217 0.15 0  2.114782608695652 0.15 0  1.9 0.1666666666666667 0  1.883478260869565 0.1666666666666667 0  1.916521739130435 0.1666666666666667 0  1.933043478260869 0.1666666666666667 0  1.949565217391304 0.1666666666666667 0  1.966086956521739 0.1666666666666667 0  1.982608695652174 0.1666666666666667 0  1.999130434782608 0.1666666666666667 0  2.015652173913043 0.1666666666666667 0  2.032173913043478 0.1666666666666667 0  2.048695652173913 0.1666666666666667 0  2.065217391304348 0.1666666666666667 0  2.081739130434782 0.1666666666666667 0  2.098260869565217 0.1666666666666667 0  2.114782608695652 0.1666666666666667 0  2.131304347826087 0.1666666666666667 0  1.9 0.1833333333333333 0  1.883478260869565 0.1833333333333333 0  1.916521739130435 0.1833333333333333 0  1.933043478260869 0.1833333333333333 0  1.949565217391304 0.1833333333333333 0  1.966086956521739 0.1833333333333333 0  1.982608695652174 0.1833333333333333 0  1.999130434782608 0.1833333333333333 0  2.015652173913043 0.1833333333333333 0  2.032173913043478 0.1833333333333333 0  2.048695652173913 0.1833333333333333 0  2.065217391304348 0.1833333333333333 0  2.081739130434782 0.1833333333333333 0  2.098260869565217 0.1833333333333333 0  2.114782608695652 0.1833333333333333 0  2.131304347826087 0.1833333333333333 0  2.147826086956522 0.1833333333333333 0  1.9 0.2 0  1.883478260869565 0.2 0  1.916521739130435 0.2 0  1.933043478260869 0.2 0  1.949565217391304 0.2 0  1.966086956521739 0.2 0  1.982608695652174 0.2 0  1.999130434782608 0.2 0  2.015652173913043 0.2 0  2.032173913043478 0.2 0  2.048695652173913 0.2 0  2.065217391304348 0.2 0  2.081739130434782 0.2 0  2.098260869565217 0.2 0  2.114782608695652 0.2 0  2.131304347826087 0.2 0  2.147826086956522 0.2 0  2.164347826086956 0.2 0  1.9 0.2166666666666667 0  1.883478260869565 0.2166666666666667 0  1.916521739130435 0.2166666666666667 0  1.933043478260869 0.2166666666666667 0  1.949565217391304 0.2166666666666667 0  1.966086956521739 0.2166666666666667 0  1.982608695652174 0.2166666666666667 0  1.999130434782608 0.2166666666666667 0  2.015652173913043 0.2166666666666667 0  2.032173913043478 0.2166666666666667 0  2.048695652173913 0.2166666666666667 0  2.065217391304348 0.2166666666666667 0  2.081739130434782 0.2166666666666667 0  2.098260869565217 0.2166666666666667 0  2.114782608695652 0.2166666666666667 0  2.131304347826087 0.2166666666666667 0  2.147826086956522 0.2166666666666667 0  2.164347826086956 0.2166666666666667 0  2.180869565217391 0.2166666666666667 0  1.9 0.2333333333333333 0  1.883478260869565 0.2333333333333333 0  1.916521739130435 0.2333333333333333 0  1.933043478260869 0.2333333333333333 0  1.949565217391304 0.2333333333333333 0  1.966086956521739 0.2333333333333333 0  1.982608695652174 0.2333333333333333 0  1.999130434782608 0.2333333333333333 0  2.015652173913043 0.2333333333333333 0  2.032173913043478 0.2333333333333333 0  2.048695652173913 0.2333333333333333 0  2.065217391304348 0.2333333333333333 0  2.081739130434782 0.2333333333333333 0  2.098260869565217 0.2333333333333333 0  2.114782608695652 0.2333333333333333 0  2.131304347826087 0.2333333333333333 0  2.147826086956522 0.2333333333333333 0  2.164347826086956 0.2333333333333333 0  2.180869565217391 0.2333333333333333 0  2.197391304347826 0.2333333333333333 0  1.9 0.25 0  1.916521739130435 0.25 0  1.933043478260869 0.25 0  1.949565217391304 0.25 0  1.966086956521739 0.25 0  1.982608695652174 0.25 0  1.999130434782608 0.25 0  2.015652173913043 0.25 0  2.032173913043478 0.25 0  2.048695652173913 0.25 0  2.065217391304348 0.25 0  2.081739130434782 0.25 0  2.098260869565217 0.25 0  2.114782608695652 0.25 0  2.131304347826087 0.25 0  2.147826086956522 0.25 0  2.164347826086956 0.25 0  2.180869565217391 0.25 0  2.197391304347826 0.25 0  2.213913043478261 0.25 0  1.916521739130435 0.2666666666666667 0  1.9 0.2666666666666667 0  1.933043478260869 0.2666666666666667 0  1.949565217391304 0.2666666666666667 0  1.966086956521739 0.2666666666666667 0  1.982608695652174 0.2666666666666667 0  1.999130434782608 0.2666666666666667 0  2.015652173913043 0.2666666666666667 0  2.032173913043478 0.2666666666666667 0  2.048695652173913 0.2666666666666667 0  2.065217391304348 0.2666666666666667 0  2.081739130434782 0.2666666666666667 0  2.098260869565217 0.2666666666666667 0  2.114782608695652 0.2666666666666667 0  2.131304347826087 0.2666666666666667 0  2.147826086956522 0.2666666666666667 0  2.164347826086956 0.2666666666666667 0  2.180869565217391 0.2666666666666667 0  2.197391304347826 0.2666666666666667 0  2.213913043478261 0.2666666666666667 0  2.230434782608695 0.25 0  2.230434782608695 0.2666666666666667 0  2.24695652173913 0.2666666666666667 0  1.916521739130435 0.2833333333333333 0  1.9 0.2833333333333333 0  1.933043478260869 0.2833333333333333 0  1.949565217391304 0.2833333333333333 0  1.966086956521739 0.2833333333333333 0  1.982608695652174 0.2833333333333333 0  1.999130434782608 0.2833333333333333 0  2.015652173913043 0.2833333333333333 0  2.032173913043478 0.2833333333333333 0  2.048695652173913 0.2833333333333333 0  2.065217391304348 0.2833333333333333 0  2.081739130434782 0.2833333333333333 0  2.098260869565217 0.2833333333333333 0  2.114782608695652 0.2833333333333333 0  2.131304347826087 0.2833333333333333 0  2.147826086956522 0.2833333333333333 0  2.164347826086956 0.2833333333333333 0  2.180869565217391 0.2833333333333333 0  2.197391304347826 0.2833333333333333 0  2.213913043478261 0.2833333333333333 0  2.230434782608695 0.2833333333333333 0  2.24695652173913 0.2833333333333333 0  2.263478260869565 0.2833333333333333 0  1.916521739130435 0.3 0  1.9 0.3 0  1.933043478260869 0.3 0  1.949565217391304 0.3 0  1.966086956521739 0.3 0  1.982608695652174 0.3 0  1.999130434782608 0.3 0  2.015652173913043 0.3 0  2.032173913043478 0.3 0  2.048695652173913 0.3 0  2.065217391304348 0.3 0  2.081739130434782 0.3 0  2.098260869565217 0.3 0  2.114782608695652 0.3 0  2.131304347826087 0.3 0  2.147826086956522 0.3 0  2.164347826086956 0.3 0  2.180869565217391 0.3 0  2.197391304347826 0.3 0  2.213913043478261 0.3 0  2.230434782608695 0.3 0  2.24695652173913 0.3 0  2.263478260869565 0.3 0  2.28 0.3 0  1.916521739130435 0.3166666666666667 0  1.9 0.3166666666666667 0  1.933043478260869 0.3166666666666667 0  1.949565217391304 0.3166666666666667 0  1.966086956521739 0.3166666666666667 0  1.982608695652174 0.3166666666666667 0  1.999130434782608 0.3166666666666667 0  2.015652173913043 0.3166666666666667 0  2.032173913043478 0.3166666666666667 0  2.048695652173913 0.3166666666666667 0  2.065217391304348 0.3166666666666667 0  2.081739130434782 0.3166666666666667 0  2.098260869565217 0.3166666666666667 0  2.114782608695652 0.3166666666666667 0  2.131304347826087 0.3166666666666667 0  2.147826086956522 0.3166666666666667 0  2.164347826086956 0.3166666666666667 0  2.180869565217391 0.3166666666666667 0  2.197391304347826 0.3166666666666667 0  2.213913043478261 0.3166666666666667 0  2.230434782608695 0.3166666666666667 0  2.24695652173913 0.3166666666666667 0  2.263478260869565 0.3166666666666667 0  2.28 0.3166666666666667 0  2.296521739130434 0.3166666666666667 0  1.916521739130435 0.3333333333333333 0  1.9 0.3333333333333333 0  1.933043478260869 0.3333333333333333 0  1.949565217391304 0.3333333333333333 0  1.966086956521739 0.3333333333333333 0  1.982608695652174 0.3333333333333333 0  1.999130434782608 0.3333333333333333 0  2.015652173913043 0.3333333333333333 0  2.032173913043478 0.3333333333333333 0  2.048695652173913 0.3333333333333333 0  2.06521739
[...]
<PointData  Vectors="Displacement"> 
<DataArray  type="Float64"  Name="Displacement"  NumberOfComponents="3" format="ascii">3.1721183596740752e-04 3.5340044687294380e-03 0.0000000000000000e+00  3.2094913258388317e-04 3.6003234782612113e-03 0.0000000000000000e+00  2.5474015257525093e-04 3.5990118096912620e-03 0.0000000000000000e+00  2.4831658290301210e-04 3.5329315633890446e-03 0.0000000000000000e+00  2.6544600020909958e-04 3.6613523418323937e-03 0.0000000000000000e+00  2.1695255021938318e-04 3.6003644649095336e-03 0.0000000000000000e+00  2.1403314642378128e-04 3.5378819647398372e-03 0.0000000000000000e+00  2.2082542661117630e-04 3.6602946543746353e-03 0.0000000000000000e+00  2.2362725190672498e-04 3.7181279234281212e-03 0.0000000000000000e+00  1.8174471421191038e-04 3.6045646439387949e-03 0.0000000000000000e+00  1.8111041269455069e-04 3.5448817248865299e-03 0.0000000000000000e+00  1.8322630253432307e-04 3.6626232768414671e-03 0.0000000000000000e+00  1.8489648731109728e-04 3.7191036238476039e-03 0.0000000000000000e+00  1.8645994566293558e-04 3.7733783804119649e-03 0.0000000000000000e+00  1.4873274214207761e-04 3.6106224620338638e-03 0.0000000000000000e+00  1.4972587414538246e-04 3.5533826202905584e-03 0.0000000000000000e+00  1.4861198401812197e-04 3.6667169560015297e-03 0.0000000000000000e+00  1.4901527745549045e-04 3.7215155789575554e-03 0.0000000000000000e+00  1.4967004134589713e-04 3.7746210400071336e-03 0.0000000000000000e+00  1.5020887678691289e-04 3.8257730824957630e-03 0.0000000000000000e+00  1.1747868962093249e-04 3.6180454774563044e-03 0.0000000000000000e+00  1.1975221220889403e-04 3.5630375329889948e-03 0.0000000000000000e+00  1.1607929335908110e-04 3.6721806173508754e-03 0.0000000000000000e+00  1.1531758145402170e-04 3.7252744169425389e-03 0.0000000000000000e+00  1.1494454167110682e-04 3.7771178642841841e-03 0.0000000000000000e+00  1.1463831706169280e-04 3.8277290775084725e-03 0.0000000000000000e+00  1.1410498973825867e-04 3.8779103214830052e-03 0.0000000000000000e+00  8.7726603319828361e-05 3.6265487373916432e-03 0.0000000000000000e+00  9.1054160348883219e-05 3.5736433991126327e-03 0.0000000000000000e+00  8.5274073642542934e-05 3.6787636618051778e-03 0.0000000000000000e+00  8.3512081805022022e-05 3.7301568195391233e-03 0.0000000000000000e+00  8.2225093379405058e-05 3.7806360518855575e-03 0.0000000000000000e+00  8.1154003463019492e-05 3.8303030088329649e-03 0.0000000000000000e+00  8.0060443715563101e-05 3.8796304346022750e-03 0.0000000000000000e+00  7.8803022029674659e-05 3.9289856128842523e-03 0.0000000000000000e+00  5.9316575583467586e-05 3.6359257130932432e-03 0.0000000000000000e+00  6.3507021758875626e-05 3.5850473392972288e-03 0.0000000000000000e+00  5.6014920211442442e-05 3.6862481063280597e-03 0.0000000000000000e+00  5.3453865913348150e-05 3.7359223107113213e-03 0.0000000000000000e+00  5.1463220933683483e-05 3.7849159585887052e-03 0.0000000000000000e+00  4.9860677407063711e-05 3.8333369718526623e-03 0.0000000000000000e+00  4.8505544681462494e-05 3.8814885593124308e-03 0.0000000000000000e+00  4.7368685839818942e-05 3.9297081423638478e-03 0.0000000000000000e+00  7.7168065160700095e-05 3.9792597864756066e-03 0.0000000000000000e+00  4.6572453725292656e-05 3.9786120792551253e-03 0.0000000000000000e+00  7.5648064555300658e-05 4.0347837392472859e-03 0.0000000000000000e+00  4.6672477492128888e-05 4.0291077964456036e-03 0.0000000000000000e+00  7.4540415909187571e-05 4.0696803376017139e-03 0.0000000000000000e+00  4.6514214422510667e-05 4.0721480178250056e-03 0.0000000000000000e+00  7.4404866997002878e-05 4.1024653618479913e-03 0.0000000000000000e+00  4.6421595795127049e-05 4.1023991209301405e-03 0.0000000000000000e+00  7.4962106942150182e-05 4.1306196674200726e-03 0.0000000000000000e+00  4.6709997812286799e-05 4.1291330873680695e-03 0.0000000000000000e+00  4.6708854905978672e-05 4.1533851628950715e-03 0.0000000000000000e+00  3.2122220529718762e-05 3.6460032839594377e-03 0.0000000000000000e+00  3.6995934118699845e-05 3.5971072461159948e-03 0.0000000000000000e+00  2.8159797936527294e-05 3.6944419762479750e-03 0.0000000000000000e+00  2.4991603318796602e-05 3.7423595147931176e-03 0.0000000000000000e+00  2.2489086612193259e-05 3.7897475801350685e-03 0.0000000000000000e+00  2.0527336526003257e-05 3.8366911993282589e-03 0.0000000000000000e+00  1.9022664419781741e-05 3.8833805602977592e-03 0.0000000000000000e+00  1.7977273191852598e-05 3.9300443155680749e-03 0.0000000000000000e+00  1.7516800276489225e-05 3.9770100343296221e-03 0.0000000000000000e+00  1.8005513171722965e-05 4.0246187920216780e-03 0.0000000000000000e+00  2.0265969243425279e-05 4.0731626263568336e-03 0.0000000000000000e+00  2.1214196085791898e-05 4.1030798846735869e-03 0.0000000000000000e+00  2.1781783569595592e-05 4.1290183088390124e-03 0.0000000000000000e+00  2.2116469915836264e-05 4.1533035286906968e-03 0.0000000000000000e+00  2.2248484170418745e-05 4.1759074954266957e-03 0.0000000000000000e+00  6.0347201639664709e-06 3.6566301508945613e-03 0.0000000000000000e+00  1.1423961083579815e-05 3.6096890695493157e-03 0.0000000000000000e+00  1.5827383183847810e-06 3.7031809331774649e-03 0.0000000000000000e+00  -2.0201151170880445e-06 3.7492960889833012e-03 0.0000000000000000e+00  -4.8661631685638905e-06 3.7949724773483282e-03 0.0000000000000000e+00  -7.0368245977641324e-06 3.8402641734307879e-03 0.0000000000000000e+00  -8.5760369567090643e-06 3.8852772173219676e-03 0.0000000000000000e+00  -9.4597456387333526e-06 3.9301279482872086e-03 0.0000000000000000e+00  -9.5656730476322558e-06 3.9749229448460500e-03 0.0000000000000000e+00  -8.6201806879957245e-06 4.0196194563544762e-03 0.0000000000000000e+00  -6.1773006863278918e-06 4.0636362228857791e-03 0.0000000000000000e+00  -2.1016855559457957e-06 4.1036897717114220e-03 0.0000000000000000e+00  -1.5154040026096209e-06 4.1291672141482976e-03 0.0000000000000000e+00  -6.0463147708078031e-07 4.1533706239428947e-03 0.0000000000000000e+00  -1.3609646223801984e-08 4.1760439270069382e-03 0.0000000000000000e+00  4.2005902467542796e-07 4.1969581376197669e-03 0.0000000000000000e+00  -1.9041431600904456e-05 3.6676771476081729e-03 0.0000000000000000e+00  -1.3285688660393795e-05 3.6226743830187497e-03 0.0000000000000000e+00  -2.3833763886466208e-05 3.7123292433104593e-03 0.0000000000000000e+00  -2.7724738100156780e-05 3.7565970222522074e-03 0.0000000000000000e+00  -3.0776471050505342e-05 3.8004742493609775e-03 0.0000000000000000e+00  -3.3038081803659561e-05 3.8439854196418389e-03 0.0000000000000000e+00  -3.4527226294502847e-05 3.8871736705456766e-03 0.0000000000000000e+00  -3.5210819293123229e-05 3.9300665201894274e-03 0.0000000000000000e+00  -3.4989303757456254e-05 3.9726309791938037e-03 0.0000000000000000e+00  -3.3687450027632250e-05 4.0146515279602972e-03 0.0000000000000000e+00  -3.1104122731744891e-05 4.0554811269092475e-03 0.0000000000000000e+00  -2.7271258907231582e-05 4.0935936234505650e-03 0.0000000000000000e+00  -2.2558424733646867e-05 4.1296066537231096e-03 0.0000000000000000e+00  -2.1749301274742897e-05 4.1533224856212005e-03 0.0000000000000000e+00  -2.0200317021493370e-05 4.1762284135386865e-03 0.0000000000000000e+00  -1.8989413089051305e-05 4.1973615466002834e-03 0.0000000000000000e+00  -1.7479131125686623e-05 4.2179799190765598e-03 0.0000000000000000e+00  -4.3189571588858272e-05 3.6790393359302457e-03 0.0000000000000000e+00  -3.7192904855399429e-05 3.6359656573053839e-03 0.0000000000000000e+00  -4.8198698877028286e-05 3.7217799973140128e-03 0.0000000000000000e+00  -5.2260415755079423e-05 3.7641615711750389e-03 0.0000000000000000e+00  -5.5413022831250866e-05 3.8061725074030146e-03 0.0000000000000000e+00  -5.7682701240596001e-05 3.8478135129832677e-03 0.0000000000000000e+00  -5.9071245591982153e-05 3.8890837513730564e-03 0.0000000000000000e+00  -5.9545302294897027e-05 3.9299520088932356e-03 0.0000000000000000e+00  -5.9031879954958899e-05 3.9703135090347471e-03 0.0000000000000000e+00  -5.7428624084301842e-05 4.0099076178075265e-03 0.0000000000000000e+00  -5.4659108825882638e-05 4.0482008681936412e-03 0.0000000000000000e+00  -5.0813357577507971e-05 4.0843394309600968e-03 0.0000000000000000e+00  -4.6234144223211490e-05 4.1179983180256756e-03 0.0000000000000000e+00  -4.1673576685374047e-05 4.1464006950275448e-03 0.0000000000000000e+00  -3.7657408102106886e-05 4.1766603366942554e-03 0.0000000000000000e+00  -3.6090920207659328e-05 4.1975434794421958e-03 0.0000000000000000e+00  -3.3537754382124566e-05 4.2186165348516288e-03 0.0000000000000000e+00  -3.1330085302960963e-05 4.2360991255681532e-03 0.0000000000000000e+00  -6.6480495788386379e-05 3.6906359824484128e-03 0.0000000000000000e+00  -6.0343919670878828e-05 3.6494870624469624e-03 0.0000000000000000e+00  -7.1609240787702641e-05 3.7314534824154982e-03 0.0000000000000000e+00  -7.5753244685173833e-05 3.7719189341409790e-03 0.0000000000000000e+00  -7.8933258383403416e-05 3.8120163734695080e-03 0.0000000000000000e+00  -8.1160192061908534e-05 3.8517300226704023e-03 0.0000000000000000e+00  -8.2427438573483359e-05 3.8910314738994077e-03 0.0000000000000000e+00  -8.2705763172131869e-05 3.9298569286070235e-03 0.0000000000000000e+00  -8.1944761841791855e-05 3.9680745439579813e-03 0.0000000000000000e+00  -8.0087521849973452e-05 4.0054368740916665e-03 0.0000000000000000e+00  -7.7111681872735251e-05 4.0415373176358174e-03 0.0000000000000000e+00  -7.3100820445792659e-05 4.0758459924230411e-03 0.0000000000000000e+00  -6.8282345870366453e-05 4.1080004849354474e-03 0.0000000000000000e+00  -6.3047166846574284e-05 4.1371880786158048e-03 0.0000000000000000e+00  -5.7840299825014475e-05 4.1658603428614610e-03 0.0000000000000000e+00  -5.2204078468731171e-05 4.1912887129298051e-03 0.0000000000000000e+00  -4.6487593554681890e-05 4.2190488329753254e-03 0.0000000000000000e+00  -4.4391643082204725e-05 4.2362664720211095e-03 0.0000000000000000e+00  -4.3064458836755191e-05 4.2518835987684286e-03 0.0000000000000000e+00  -8.8971371363847618e-05 3.7024082531170385e-03 0.0000000000000000e+00  -8.2773155392922408e-05 3.6631824409585107e-03 0.0000000000000000e+00  -9.4146965964598392e-05 3.7412937975581507e-03 0.0000000000000000e+00  -9.8310927057673086e-05 3.7798230716494636e-03 0.0000000000000000e+00  -1.0147221057636088e-04 3.8179779978418588e-03 0.0000000000000000e+00  -1.0363275063583783e-04 3.8557335295812509e-03 0.0000000000000000e+00  -1.0478317232041331e-04 3.8930470578905029e-03 0.0000000000000000e+00  -1.0490133240903326e-04 3.9298417926043674e-03 0.0000000000000000e+00  -1.0395662479737756e-04 3.9659853062526612e-03 0.0000000000000000e+00  -1.0192408111438998e-04 4.0012657424558940e-03 0.0000000000000000e+00  -9.8812951798639566e-05 4.0353829265756640e-03 0.0000000000000000e+00  -9.4705329992255142e-05 4.0679938862436824e-03 0.0000000000000000e+00  -8.9774594828615018e-05 4.0988459438347554e-03 0.0000000000000000e+00  -8.4277412028903434e-05 4.1277184301525775e-03 0.0000000000000000e+00  -7.8455091241983472e-05 4.1555482066080512e-03 0.0000000000000000e+00  -7.2167097028110619e-05 4.1816926989218300e-03 0.0000000000000000e+00  -6.5474588787152921e-05 4.2085913324594196e-03 0.0000000000000000e+00  -5.7099862321770308e-05 4.2368117180256520e-03 0.0000000000000000e+00  -5.6340964306918170e-05 4.2519638371700053e-03 0.0000000000000000e+00  -5.5173361449841407e-05 4.2673050972251532e-03 0.0000000000000000e+00  -1.1070407578057248e-04 3.7143154193662615e-03 0.0000000000000000e+00  -1.1587437031946605e-04 3.7512643107910559e-03 0.0000000000000000e+00  -1.2001755228017329e-04 3.7878470307499742e-03 0.0000000000000000e+00  -1.2313563969070681e-04 3.8240461106051858e-03 0.0000000000000000e+00  -1.2522646362618886e-04 3.8598335638862849e-03 0.0000000000000000e+00  -1.2628182932591890e-04 3.8951628571231951e-03 0.0000000000000000e+00  -1.2628831326476223e-04 3.9299577236927528e-03 0.0000000000000000e+00  -1.2523265631141000e-04 3.9640997385205498e-03 0.0000000000000000e+00  -1.2311383920903478e-04 3.9974189726160753e-03 0.0000000000000000e+00  -1.1996277593677467e-04 4.0296997314416740e-03 0.0000000000000000e+00  -1.1586438991419899e-04 4.0607199306658646e-03 0.0000000000000000e+00  -1.1096642206462387e-04 4.0903275630454544e-03 0.0000000000000000e+00  -1.0546617637902476e-04 4.1184838899676309e-03 0.0000000000000000e+00  -9.9547038168137326e-05 4.1456009081671822e-03 0.0000000000000000e+00  -9.3249363140033792e-05 4.1716516441786828e-03 0.0000000000000000e+00  -8.6648274707024043e-05 4.1977247573282087e-03 0.0000000000000000e+00  -7.9373342461623310e-05 4.2238869207990399e-03 0.0000000000000000e+00  -7.1363491566487413e-05 4.2487561876447238e-03 0.0000000000000000e+00  -6.7945322059703993e-05 4.2673753494145879e-03 0.0000000000000000e+00  -6.6798839324026384e-05 4.2820914855560268e-03 0.0000000000000000e+00  -1.3683220270259113e-04 3.7613427419663794e-03 0.0000000000000000e+00  -1.3170332682205992e-04 3.7263304844936426e-03 0.0000000000000000e+00  -1.4093026684328805e-04 3.7959773415534546e-03 0.0000000000000000e+00  -1.4399629160376411e-04 3.8302200161959279e-03 0.0000000000000000e+00  -1.4602735941597419e-04 3.8640449206391509e-03 0.0000000000000000e+00  -1.4701868022991066e-04 3.8974089826984280e-03 0.0000000000000000e+00  -1.4696560262609948e-04 3.9302450216401798e-03 0.0000000000000000e+00  -1.4586899899881388e-04 3.9624556648949682e-03 0.0000000000000000e+00  -1.4374487497315828e-04 3.9939119814777621e-03 0.0000000000000000e+00  -1.4063762866582232e-04 4.0244641819324753e-03 0.0000000000000000e+00  -1.3663259407839564e-04 4.0539723420638272e-03 0.0000000000000000e+00  -1.3185901154193780e-04 4.0823545129272326e-03 0.0000000000000000e+00  -1.2647678511636741e-04 4.1096291479736802e-03 0.0000000000000000e+00  -1.2063671901538506e-04 4.1360135130084014e-03 0.0000000000000000e+00  -1.1442514195933844e-04 4.1616263009574515e-03 0.0000000000000000e+00  -1.0790331929875177e-04 4.1869660408585443e-03 0.0000000000000000e+00  -1.0094904033035021e-04 4.2119906072157791e-03 0.0000000000000000e+00  -9.3591637730754441e-05 4.2359915106071179e-03 0.0000000000000000e+00  -8.6415052947238531e-05 4.2579681279811986e-03 0.0000000000000000e+00  -7.8870321675762574e-05 4.2823284970254297e-03 0.0000000000000000e+00  -6.5808678054828868e-05 4.2963124628735590e-03 0.0000000000000000e+00  -7.8039491433651791e-05 4.2962934540273570e-03 0.0000000000000000e+00  -7.6758709813725998e-05 4.3103637638123669e-03 0.0000000000000000e+00  -1.5703779861927613e-04 3.7715165977517226e-03 0.0000000000000000e+00  -1.5197491332374316e-04 3.7384359783571379e-03 0.0000000000000000e+00  -1.6107794203478297e-04 3.8042091489846825e-03 0.0000000000000000e+00  -1.6409334772104250e-04 3.8365047501530448e-03 0.0000000000000000e+00  -1.6608229462439621e-04 3.8683834561343590e-03 0.0000000000000000e+00  -1.6704415776250093e-04 3.8998105441288709e-03 0.0000000000000000e+00  -1.6698187646651516e-04 3.9307327236460425e-03 0.0000000000000000e+00  -1.6590668723526550e-04 3.9610760459780252e-03 0.0000000000000000e+00  -1.6384528132910541e-04 3.9907484286606752e-03 0.0000000000000000e+00  -1.6084835296958734e-04 4.0196508811648247e-03 0.0000000000000000e+00  -1.5699726229484673e-04 4.0477002474503133e-03 0.0000000000000000e+00  -1.5240354343697349e-04 4.0748597247074903e-03 0.0000000000000000e+00  -1.4719715425411887e-04 4.1011656310331601e-03 0.0000000000000000e+00  -1.4150062227109568e-04 4.1267527688512605e-03 0.0000000000000000e+00  -1.3539964191937429e-04 4.1517455855551669e-03 0.0000000000000000e+00  -1.2894539560743976e-04 4.1763809903878901e-03 0.0000000000000000e+00  -1.2210928411422628e-04 4.2006141968412257e-03 0.0000000000000000e+00  -1.1494084353167606e-04 4.2241147223506378e-03 0.0000000000000000e+00  -1.0770153566629549e-04 4.2466304379371028e-03 0.0000000000000000e+00  -1.0058252747524602e-04 4.2693296842447482e-03 0.0000000000000000e+00  -9.3725075795272553e-05 4.2888228054350141e-03 0.0000000000000000e+00  -8.7269803322196463e-05 4.3105286815544146e-03 0.0000000000000000e+00  -8.5780600464018618e-05 4.3237594208931952e-03 0.0000000000000000e+00  -1.7648421657647418e-04 3.7817794425999362e-03 0.0000000000000000e+00  -1.7150414863602447e-04 3.7506204160287020e-03 0.0000000000000000e+00  -1.8046124391547734e-04 3.8125424998868384e-03 0.0000000000000000e+00  -1.8343386577509061e-04 3.8429077732796105e-03 0.0000000000000000e+00  -1.8540238090628734e-04 3.8728637806140485e-03 0.0000000000000000e+00  -1.8637008491769228e-04 3.9023870610088874e-03 0.0000000000000000e+00  -1.8634570050250600e-04 3.9314403808676339e-03 0.0000000000000000e+00  -1.8534715669862092e-04 3.9599728613838219e-03 0.0000000000000000e+00  -1.8340657441927294e-04 3.9879240047994745e-03 0.0000000000000000e+00  -1.8057547195386340e-04 4.0152336655667076e-03 0.0000000000000000e+00  -1.7692789849296333e-04 4.0418583317251159e-03 0.0000000000000000e+00  -1.7255831197222633e-04 4.0677900499335902e-03 0.0000000000000000e+00  -1.6757194556066063e-04 4.0930705898534854e-03 0.0000000000000000e+00  -1.6206761243462036e-04 4.1177942633438720e-03 0.0000000000000000e+00  -1.5612013990293918e-04 4.1420607068838183e-03 0.0000000000000000e+00  -1.4977590000464516e-04 4.1659906227278767e-03 0.0000000000000000e+00  -1.4304385595463994e-04 4.1895583141803392e-03 0.0000000000000000e+00  -1.3596819329928856e-04 4.2126165545841344e-03 0.0000000000000000e+00  -1.2866781170171765e-04 4.2350961875526685e-03 0.0000000000000000e+00  -1.2121204086122484e-04 4.2573015039835899e-03 0.0000000000000000e+00  -1.1356411065542066e-04 4.2781679368968650e-03 0.0000000000000000e+00  -1.0590011002147685e-04 4.2997118106739979e-03 0.0000000000000000e+00  -9.7143582739621519e-05 4.3217214785214522e-03 0.0000000000000000e+00  -9.3329261190820329e-05 4.3380649137865282e-03 0.0000000000000000e+00  -1.9513979902075732e-04 3.7921281929508771e-03 0.0000000000000000e+00  -1.9025450546904452e-04 3.7628756407107901e-03 0.0000000000000000e+00  -1.9905331347171211e-04 3.8209798645293821e-03 0.0000000000000000e+00  -2.0199486416629838e-04 3.8494371161139230e-03 0.0000000000000000e+00  -2.0396680817124632e-04 3.8774985399621280e-03 0.0000000000000000e+00  -2.0497556597543303e-04 3.9051534372961643e-03 0.0000000000000000e+00  -2.0503373362505109e-04 3.9323811160072459e-03 0.0000000000000000e+00  -2.0416282508200961e-04 3.9591520020640101e-03 0.0000000000000000e+00  -2.0239646663293480e-04 3.9854319113257156e-03 0.0000000000000000e+00  -1.9978336403578335e-04 4.0111903706240857e-03 0.0000000000000000e+00  -1.9638856033438979e-04 4.0364121548246311e-03 0.0000000000000000e+00  -1.9229101677996509e-04 4.0611086668098486e-03 0.0000000000000000e+00  -1.8757632832936552e-04 4.0853241775093418e-03 0.0000000000000000e+00  -1.8232538783300020e-04 4.1091318095073225e-03 0.0000000000000000e+00  -1.7660364625113453e-04 4.1326084458451233e-03 0.0000000000000000e+00  -1.7045738476858890e-04 4.1558242848891711e-03 0.0000000000000000e+00  -1.6391510011967136e-04 4.1787720715889794e-03 0.0000000000000000e+00  -1.5702148190352563e-04 4.2013900733135837e-03 0.0000000000000000e+00  -1.4985024785271910e-04 4.2236561230818703e-03 0.0000000000000000e+00  -1.4245755002253825e-04 4.2456419782162811e-03 0.0000000000000000e+00  -1.3488469340085078e-04 4.2670345791671312e-03 0.0000000000000000e+00  -1.2727314121373730e-04 4.2886360925937558e-03 0.0000000000000000e+00  -1.1942703664844134e-04 4.3102324629773134e-03 0.0000000000000000e+00  -1.1173575156721820e-04 4.3306117059993595e-03 0.0000000000000000e+00  -1.0400499110630090e-04 4.3532154310304844e-03 0.0000000000000000e+00  -2.1294780675097457e-04 3.8025613945446364e-03 0.0000000000000000e+00  -2.0816633169093069e-04 3.7751950524502406e-03 0.0000000000000000e+00  -2.1680043795472287e-04 3.8295247374887102e-03 0.0000000000000000e+00  -2.1972515183109876e-04 3.8561006379635283e-03 0.0000000000000000e+00  -2.2172590165241593e-04 3.8822987145722696e-03 0.0000000000000000e+00  -2.2281121815829295e-04 3.9081216508879812e-03 0.0000000000000000e+00  -2.2299587648342753e-04 3.9335648441101009e-03 0.0000000000000000e+00