<?xml version="1.0"?>
<VTKFile type="UnstructuredGrid"  version="0.1"  >
<UnstructuredGrid>
<Piece  NumberOfPoints="608" NumberOfCells="1117">
<Points>
<DataArray  type="Float64"  NumberOfComponents="3"  format="ascii">0.08260869565217391 0 0  0.09913043478260869 0 0  0.09913043478260869 0.01666666666666667 0  0.1156521739130435 0 0  0.1156521739130435 0.01666666666666667 0  0.1321739130434783 0 0  0.1321739130434783 0.01666666666666667 0  0.148695652173913 0 0  0.148695652173913 0.01666666666666667 0  0.1652173913043478 0 0  0.1652173913043478 0.01666666666666667 0  0.1817391304347826 0 0  0.1817391304347826 0.01666666666666667 0  0.1982608695652174 0 0  0.1982608695652174 0.01666666666666667 0  0.2147826086956522 0 0  0.2147826086956522 0.01666666666666667 0  0.2313043478260869 0 0  0.2313043478260869 0.01666666666666667 0  0.2478260869565218 0 0  0.2478260869565218 0.01666666666666667 0  0.2643478260869565 0 0  0.2643478260869565 0.01666666666666667 0  0.2808695652173913 0 0  0.2808695652173913 0.01666666666666667 0  0.2973913043478261 0 0  0.2973913043478261 0.01666666666666667 0  0.3139130434782609 0 0  0.3139130434782609 0.01666666666666667 0  0.3304347826086956 0 0  0.3304347826086956 0.01666666666666667 0  0.3469565217391304 0 0  0.3469565217391304 0.01666666666666667 0  0.3634782608695652 0 0  0.3634782608695652 0.01666666666666667 0  0.3799999999999999 0 0  0.3799999999999999 0.01666666666666667 0  0.3965217391304348 0 0  0.3965217391304348 0.01666666666666667 0  0.4130434782608696 0 0  0.4130434782608696 0.01666666666666667 0  0.4295652173913043 0.01666666666666667 0  0.1156521739130435 0.03333333333333333 0  0.1321739130434783 0.03333333333333333 0  0.148695652173913 0.03333333333333333 0  0.1652173913043478 0.03333333333333333 0  0.1817391304347826 0.03333333333333333 0  0.1982608695652174 0.03333333333333333 0  0.2147826086956522 0.03333333333333333 0  0.2313043478260869 0.03333333333333333 0  0.2478260869565218 0.03333333333333333 0  0.2643478260869565 0.03333333333333333 0  0.2808695652173913 0.03333333333333333 0  0.2973913043478261 0.03333333333333333 0  0.3139130434782609 0.03333333333333333 0  0.3304347826086956 0.03333333333333333 0  0.3469565217391304 0.03333333333333333 0  0.3634782608695652 0.03333333333333333 0  0.3799999999999999 0.03333333333333333 0  0.3965217391304348 0.03333333333333333 0  0.4130434782608696 0.03333333333333333 0  0.4295652173913043 0.03333333333333333 0  0.4460869565217391 0.03333333333333333 0  0.1321739130434783 0.05 0  0.148695652173913 0.05 0  0.1652173913043478 0.05 0  0.1817391304347826 0.05 0  0.1982608695652174 0.05 0  0.2147826086956522 0.05 0  0.2313043478260869 0.05 0  0.2478260869565218 0.05 0  0.2643478260869565 0.05 0  0.2808695652173913 0.05 0  0.2973913043478261 0.05 0  0.3139130434782609 0.05 0  0.3304347826086956 0.05 0  0.3469565217391304 0.05 0  0.3634782608695652 0.05 0  0.3799999999999999 0.05 0  0.3965217391304348 0.05 0  0.4130434782608696 0.05 0  0.4295652173913043 0.05 0  0.4460869565217391 0.05 0  0.4626086956521739 0.05 0  0.148695652173913 0.06666666666666667 0  0.1652173913043478 0.06666666666666667 0  0.1817391304347826 0.06666666666666667 0  0.1982608695652174 0.06666666666666667 0  0.2147826086956522 0.06666666666666667 0  0.2313043478260869 0.06666666666666667 0  0.2478260869565218 0.06666666666666667 0  0.2643478260869565 0.06666666666666667 0  0.2808695652173913 0.06666666666666667 0  0.2973913043478261 0.06666666666666667 0  0.3139130434782609 0.06666666666666667 0  0.3304347826086956 0.06666666666666667 0  0.3469565217391304 0.06666666666666667 0  0.3634782608695652 0.06666666666666667 0  0.3799999999999999 0.06666666666666667 0  0.3965217391304348 0.06666666666666667 0  0.4130434782608696 0.06666666666666667 0  0.4295652173913043 0.06666666666666667 0  0.4460869565217391 0.06666666666666667 0  0.4626086956521739 0.06666666666666667 0  0.4791304347826086 0.06666666666666667 0  0.1652173913043478 0.08333333333333333 0  0.1817391304347826 0.08333333333333333 0  0.1982608695652174 0.08333333333333333 0  0.2147826086956522 0.08333333333333333 0  0.2313043478260869 0.08333333333333333 0  0.2478260869565218 0.08333333333333333 0  0.2643478260869565 0.08333333333333333 0  0.2808695652173913 0.08333333333333333 0  0.2973913043478261 0.08333333333333333 0  0.3139130434782609 0.08333333333333333 0  0.3304347826086956 0.08333333333333333 0  0.3469565217391304 0.08333333333333333 0  0.3634782608695652 0.08333333333333333 0  0.3799999999999999 0.08333333333333333 0  0.3965217391304348 0.08333333333333333 0  0.4130434782608696 0.08333333333333333 0  0.4295652173913043 0.08333333333333333 0  0.4460869565217391 0.08333333333333333 0  0.4626086956521739 0.08333333333333333 0  0.4791304347826086 0.08333333333333333 0  0.4956521739130435 0.08333333333333333 0  0.1817391304347826 0.1 0  0.1982608695652174 0.1 0  0.2147826086956522 0.1 0  0.2313043478260869 0.1 0  0.2478260869565218 0.1 0  0.2643478260869565 0.1 0  0.2808695652173913 0.1 0  0.2973913043478261 0.1 0  0.3139130434782609 0.1 0  0.3304347826086956 0.1 0  0.3469565217391304 0.1 0  0.3634782608695652 0.1 0  0.3799999999999999 0.1 0  0.3965217391304348 0.1 0  0.4130434782608696 0.1 0  0.4295652173913043 0.1 0  0.4460869565217391 0.1 0  0.4626086956521739 0.1 0  0.4791304347826086 0.1 0  0.4956521739130435 0.1 0  0.5121739130434783 0.1 0  0.1982608695652174 0.1166666666666667 0  0.2147826086956522 0.1166666666666667 0  0.2313043478260869 0.1166666666666667 0  0.2478260869565218 0.1166666666666667 0  0.2643478260869565 0.1166666666666667 0  0.2808695652173913 0.1166666666666667 0  0.2973913043478261 0.1166666666666667 0  0.3139130434782609 0.1166666666666667 0  0.3304347826086956 0.1166666666666667 0  0.3469565217391304 0.1166666666666667 0  0.3634782608695652 0.1166666666666667 0  0.3799999999999999 0.1166666666666667 0  0.3965217391304348 0.1166666666666667 0  0.4130434782608696 0.1166666666666667 0  0.4295652173913043 0.1166666666666667 0  0.4460869565217391 0.1166666666666667 0  0.4626086956521739 0.1166666666666667 0  0.4791304347826086 0.1166666666666667 0  0.4956521739130435 0.1166666666666667 0  0.5121739130434783 0.1166666666666667 0  0.528695652173913 0.1166666666666667 0  0.2147826086956522 0.1333333333333333 0  0.2313043478260869 0.1333333333333333 0  0.2478260869565218 0.1333333333333333 0  0.2643478260869565 0.1333333333333333 0  0.2808695652173913 0.1333333333333333 0  0.2973913043478261 0.1333333333333333 0  0.3139130434782609 0.1333333333333333 0  0.3304347826086956 0.1333333333333333 0  0.3469565217391304 0.1333333333333333 0  0.3634782608695652 0.1333333333333333 0  0.3799999999999999 0.1333333333333333 0  0.3965217391304348 0.1333333333333333 0  0.4130434782608696 0.1333333333333333 0  0.4295652173913043 0.1333333333333333 0  0.4460869565217391 0.1333333333333333 0  0.4626086956521739 0.1333333333333333 0  0.4791304347826086 0.1333333333333333 0  0.4956521739130435 0.1333333333333333 0  0.5121739130434783 0.1333333333333333 0  0.528695652173913 0.1333333333333333 0  0.5452173913043478 0.1333333333333333 0  0.2313043478260869 0.15 0  0.2478260869565218 0.15 0  0.2643478260869565 0.15 0  0.2808695652173913 0.15 0  0.2973913043478261 0.15 0  0.3139130434782609 0.15 0  0.3304347826086956 0.15 0  0.3469565217391304 0.15 0  0.3634782608695652 0.15 0  0.3799999999999999 0.15 0  0.3965217391304348 0.15 0  0.4130434782608696 0.15 0  0.4295652173913043 0.15 0  0.4460869565217391 0.15 0  0.4626086956521739 0.15 0  0.4791304347826086 0.15 0  0.4956521739130435 0.15 0  0.5121739130434783 0.15 0  0.528695652173913 0.15 0  0.5452173913043478 0.15 0  0.5617391304347825 0.15 0  0.2478260869565218 0.1666666666666667 0  0.2643478260869565 0.1666666666666667 0  0.2808695652173913 0.1666666666666667 0  0.2973913043478261 0.1666666666666667 0  0.3139130434782609 0.1666666666666667 0  0.3304347826086956 0.1666666666666667 0  0.3469565217391304 0.1666666666666667 0  0.3634782608695652 0.1666666666666667 0  0.3799999999999999 0.1666666666666667 0  0.3965217391304348 0.1666666666666667 0  0.4130434782608696 0.1666666666666667 0  0.4295652173913043 0.1666666666666667 0  0.4460869565217391 0.1666666666666667 0  0.4626086956521739 0.1666666666666667 0  0.4791304347826086 0.1666666666666667 0  0.4956521739130435 0.1666666666666667 0  0.5121739130434783 0.1666666666666667 0  0.528695652173913 0.1666666666666667 0  0.5452173913043478 0.1666666666666667 0  0.5617391304347825 0.1666666666666667 0  0.5782608695652174 0.1666666666666667 0  0.2643478260869565 0.1833333333333333 0  0.2808695652173913 0.1833333333333333 0  0.2973913043478261 0.1833333333333333 0  0.3139130434782609 0.1833333333333333 0  0.3304347826086956 0.1833333333333333 0  0.3469565217391304 0.1833333333333333 0  0.3634782608695652 0.1833333333333333 0  0.3799999999999999 0.1833333333333333 0  0.3965217391304348 0.1833333333333333 0  0.4130434782608696 0.1833333333333333 0  0.4295652173913043 0.1833333333333333 0  0.4460869565217391 0.1833333333333333 0  0.4626086956521739 0.1833333333333333 0  0.4791304347826086 0.1833333333333333 0  0.4956521739130435 0.1833333333333333 0  0.5121739130434783 0.1833333333333333 0  0.528695652173913 0.1833333333333333 0  0.5452173913043478 0.1833333333333333 0  0.5617391304347825 0.1833333333333333 0  0.5782608695652174 0.1833333333333333 0  0.2808695652173913 0.2 0  0.2973913043478261 0.2 0  0.3139130434782609 0.2 0  0.3304347826086956 0.2 0  0.3469565217391304 0.2 0  0.3634782608695652 0.2 0  0.3799999999999999 0.2 0  0.3965217391304348 0.2 0  0.4130434782608696 0.2 0  0.4295652173913043 0.2 0  0.4460869565217391 0.2 0  0.4626086956521739 0.2 0  0.4791304347826086 0.2 0  0.4956521739130435 0.2 0  0.5121739130434783 0.2 0  0.528695652173913 0.2 0  0.5452173913043478 0.2 0  0.5617391304347825 0.2 0  0.5782608695652174 0.2 0  0.2973913043478261 0.2166666666666667 0  0.3139130434782609 0.2166666666666667 0  0.3304347826086956 0.2166666666666667 0  0.3469565217391304 0.2166666666666667 0  0.36347826086956
[...]
<PointData  Vectors="Displacement"> 
<DataArray  type="Float64"  Name="Displacement"  NumberOfComponents="3" format="ascii">3.2678743849462889e-05 3.7016723040488843e-05 0.0000000000000000e+00  3.8722500188586886e-05 5.1059124892819685e-05 0.0000000000000000e+00  2.3396899711757950e-05 4.9479825889691785e-05 0.0000000000000000e+00  4.4764621403545218e-05 6.7442161282614036e-05 0.0000000000000000e+00  2.6960527082054197e-05 6.5844804677508154e-05 0.0000000000000000e+00  5.0792730354728462e-05 8.6410536520528262e-05 0.0000000000000000e+00  3.0447389956133273e-05 8.4807807399312721e-05 0.0000000000000000e+00  5.6653930743571334e-05 1.0814802198756943e-04 0.0000000000000000e+00  3.3779753331333467e-05 1.0661259163494454e-04 0.0000000000000000e+00  6.2228969389206169e-05 1.3246337934997573e-04 0.0000000000000000e+00  3.6947327731931875e-05 1.3100825201330544e-04 0.0000000000000000e+00  6.7457522258178085e-05 1.5914479672188997e-04 0.0000000000000000e+00  3.9950587235965850e-05 1.5777540240365367e-04 0.0000000000000000e+00  7.2308495258716456e-05 1.8797247553681588e-04 0.0000000000000000e+00  4.2791672967961160e-05 1.8668538711254427e-04 0.0000000000000000e+00  7.6766607405105423e-05 2.1871374230441506e-04 0.0000000000000000e+00  4.5495077409927769e-05 2.1749434349413875e-04 0.0000000000000000e+00  8.0778977541553284e-05 2.5115507703878472e-04 0.0000000000000000e+00  4.8075587318940155e-05 2.5001570073702914e-04 0.0000000000000000e+00  8.4241927626361272e-05 2.8496692211732005e-04 0.0000000000000000e+00  5.0529414619210015e-05 2.8394809159360164e-04 0.0000000000000000e+00  8.7064799928755537e-05 3.1960794374038767e-04 0.0000000000000000e+00  5.2849144230236717e-05 3.1874693853584980e-04 0.0000000000000000e+00  8.9237739220298133e-05 3.5443154079942097e-04 0.0000000000000000e+00  5.5017150127696853e-05 3.5373614890577519e-04 0.0000000000000000e+00  9.0856838390324408e-05 3.8886036920092394e-04 0.0000000000000000e+00  5.7028316799941196e-05 3.8829664407901148e-04 0.0000000000000000e+00  9.2057954638146151e-05 4.2257833830043552e-04 0.0000000000000000e+00  5.8871842123836735e-05 4.2210558134902918e-04 0.0000000000000000e+00  9.2938111741723564e-05 4.5548789940329020e-04 0.0000000000000000e+00  6.0539464040360070e-05 4.5508266450432238e-04 0.0000000000000000e+00  9.3516079755651794e-05 4.8756955851079618e-04 0.0000000000000000e+00  6.2022726767128829e-05 4.8724119236641194e-04 0.0000000000000000e+00  9.3772496712825814e-05 5.1871335203885214e-04 0.0000000000000000e+00  6.3320670807561960e-05 5.1847657767851681e-04 0.0000000000000000e+00  9.3697089206877529e-05 5.4873338202339884e-04 0.0000000000000000e+00  6.4432422491816918e-05 5.4860211547978928e-04 0.0000000000000000e+00  9.3318813176511740e-05 5.7743659864272889e-04 0.0000000000000000e+00  6.5339812353593335e-05 5.7741069429403068e-04 0.0000000000000000e+00  9.2745291075552056e-05 6.0467226374501845e-04 0.0000000000000000e+00  6.6061619380858021e-05 6.0470704486742652e-04 0.0000000000000000e+00  6.6662297044162860e-05 6.3050861283601121e-04 0.0000000000000000e+00  9.4649391873538266e-06 6.5026547249613434e-05 0.0000000000000000e+00  1.0466996767268519e-05 8.3932380230992073e-05 0.0000000000000000e+00  1.1283988943168127e-05 1.0584677923678009e-04 0.0000000000000000e+00  1.2052632923490327e-05 1.3029715125993503e-04 0.0000000000000000e+00  1.2834861054012663e-05 1.5709604751836372e-04 0.0000000000000000e+00  1.3666095753434017e-05 1.8602159543697184e-04 0.0000000000000000e+00  1.4591078896059531e-05 2.1677519820738120e-04 0.0000000000000000e+00  1.5694447376934248e-05 2.4923464070580734e-04 0.0000000000000000e+00  1.7077749353099906e-05 2.8314950151933670e-04 0.0000000000000000e+00  1.8869355827988095e-05 3.1797411802888582e-04 0.0000000000000000e+00  2.1084116375645591e-05 3.5303024344285854e-04 0.0000000000000000e+00  2.3567288799245386e-05 3.8761376178646104e-04 0.0000000000000000e+00  2.6137848709114757e-05 4.2143260238625439e-04 0.0000000000000000e+00  2.8605457226001819e-05 4.5440083335284646e-04 0.0000000000000000e+00  3.0957834071072173e-05 4.8658710291464314e-04 0.0000000000000000e+00  3.3259826040775293e-05 5.1787992989120685e-04 0.0000000000000000e+00  3.5530966139385976e-05 5.4808826955091519e-04 0.0000000000000000e+00  3.7730306223637769e-05 5.7704859482253978e-04 0.0000000000000000e+00  3.9705731497792189e-05 6.0443358736967322e-04 0.0000000000000000e+00  4.1449284603889496e-05 6.3021458768320910e-04 0.0000000000000000e+00  4.2964455856008727e-05 6.5484430889791801e-04 0.0000000000000000e+00  -9.0370951320169017e-06 8.3849832521168516e-05 0.0000000000000000e+00  -1.1156938065713084e-05 1.0590716168575329e-04 0.0000000000000000e+00  -1.2913565611971298e-05 1.3033983329717910e-04 0.0000000000000000e+00  -1.4366648103477286e-05 1.5711421987614561e-04 0.0000000000000000e+00  -1.5555413020894056e-05 1.8594503406608263e-04 0.0000000000000000e+00  -1.6233512068302500e-05 2.1650198236895985e-04 0.0000000000000000e+00  -1.6689445117022179e-05 2.4877053992980089e-04 0.0000000000000000e+00  -1.6869433020736185e-05 2.8260919770299348e-04 0.0000000000000000e+00  -1.6087621424398729e-05 3.1734836002171335e-04 0.0000000000000000e+00  -1.3835369096525796e-05 3.5225117528306284e-04 0.0000000000000000e+00  -1.0032189005383621e-05 3.8674026992553646e-04 0.0000000000000000e+00  -6.0474956971628405e-06 4.2059958183603960e-04 0.0000000000000000e+00  -2.7749938998176368e-06 4.5359451023643419e-04 0.0000000000000000e+00  -5.3768724170902378e-08 4.8559524606202136e-04 0.0000000000000000e+00  3.2941831558307815e-06 5.1695998622378818e-04 0.0000000000000000e+00  6.6273647712519615e-06 5.4710940212622397e-04 0.0000000000000000e+00  1.0322143693362682e-05 5.7620690199292133e-04 0.0000000000000000e+00  1.4036562236836346e-05 6.0391838986271714e-04 0.0000000000000000e+00  1.6877440874604396e-05 6.2962835974308788e-04 0.0000000000000000e+00  1.9291010477447352e-05 6.5433116421502696e-04 0.0000000000000000e+00  2.1307989688238268e-05 6.7819307605745754e-04 0.0000000000000000e+00  -3.2701301326013550e-05 1.0658057488076204e-04 0.0000000000000000e+00  -3.6608612987400069e-05 1.3085716851437250e-04 0.0000000000000000e+00  -4.0911920342092157e-05 1.5755754516493203e-04 0.0000000000000000e+00  -4.4632727217665761e-05 1.8634058404834445e-04 0.0000000000000000e+00  -3.5579225934954765e-05 2.1706273559396461e-04 0.0000000000000000e+00  -3.1004552087116519e-05 2.4827621166799321e-04 0.0000000000000000e+00  -2.8448083931377815e-05 2.8071296129832097e-04 0.0000000000000000e+00  -2.6504573191607892e-05 3.1387813039912522e-04 0.0000000000000000e+00  -2.4547348873499379e-05 3.4728097708454294e-04 0.0000000000000000e+00  -2.2528629276270027e-05 3.8063894708645601e-04 0.0000000000000000e+00  -2.0921091578489216e-05 4.1399633496898286e-04 0.0000000000000000e+00  -2.0532527256737046e-05 4.4726249979291677e-04 0.0000000000000000e+00  -2.2526943797331704e-05 4.8074731384713498e-04 0.0000000000000000e+00  -2.8340190551548742e-05 5.1584434560064348e-04 0.0000000000000000e+00  -2.2637020998610877e-05 5.4595811196823355e-04 0.0000000000000000e+00  -1.7776643581262444e-05 5.7488106298436833e-04 0.0000000000000000e+00  -1.1544108748319120e-05 6.0263646475558095e-04 0.0000000000000000e+00  -6.0945537576509693e-06 6.2902173670539992e-04 0.0000000000000000e+00  -3.6874190539618000e-06 6.5351340726202151e-04 0.0000000000000000e+00  -8.0603053059099775e-07 6.7781129923790296e-04 0.0000000000000000e+00  1.3506377691726727e-06 7.0083006060801996e-04 0.0000000000000000e+00  -3.7214303393811098e-05 1.3499615789684257e-04 0.0000000000000000e+00  -3.9500581682111676e-05 1.6059247958686033e-04 0.0000000000000000e+00  -4.0594936478679316e-05 1.8763497569739731e-04 0.0000000000000000e+00  -3.9526851828890323e-05 2.1510808055148713e-04 0.0000000000000000e+00  -3.7542150987936557e-05 2.4599148612681327e-04 0.0000000000000000e+00  -3.5921741594711134e-05 2.7783850613181173e-04 0.0000000000000000e+00  -3.4538592303194671e-05 3.1016534133447728e-04 0.0000000000000000e+00  -3.3261473744584501e-05 3.4272060311423984e-04 0.0000000000000000e+00  -3.2123951628830571e-05 3.7539659803294967e-04 0.0000000000000000e+00  -3.1292277430218506e-05 4.0823508149801657e-04 0.0000000000000000e+00  -3.0944133203280166e-05 4.4120459736105407e-04 0.0000000000000000e+00  -3.1094054496068097e-05 4.7431110007207741e-04 0.0000000000000000e+00  -3.1104316756516604e-05 5.0729601786389284e-04 0.0000000000000000e+00  -2.9386792799540738e-05 5.3589353376986258e-04 0.0000000000000000e+00  -2.7063466974809964e-05 5.6482358346010618e-04 0.0000000000000000e+00  -2.5209201073959212e-05 5.9302604520843744e-04 0.0000000000000000e+00  -2.5057368434970200e-05 6.2142588519134090e-04 0.0000000000000000e+00  -2.8160869195766968e-05 6.5264553856371498e-04 0.0000000000000000e+00  -2.3306477431147497e-05 6.7686116880216838e-04 0.0000000000000000e+00  -1.9123066234888735e-05 7.0060145911555842e-04 0.0000000000000000e+00  -1.7214238811761234e-05 7.2338320628443200e-04 0.0000000000000000e+00  -3.9477788678181785e-05 1.6254161372473622e-04 0.0000000000000000e+00  -4.0821833026854285e-05 1.8845880822423804e-04 0.0000000000000000e+00  -4.1414943345319618e-05 2.1537121918437755e-04 0.0000000000000000e+00  -4.1522963472409473e-05 2.4466577314342176e-04 0.0000000000000000e+00  -4.1151124910126506e-05 2.7539447738325081e-04 0.0000000000000000e+00  -4.0602839123784626e-05 3.0678937933266355e-04 0.0000000000000000e+00  -4.0001726902539855e-05 3.3853733633957747e-04 0.0000000000000000e+00  -3.9431101704463830e-05 3.7051301818884214e-04 0.0000000000000000e+00  -3.8952998831728911e-05 4.0267605907144558e-04 0.0000000000000000e+00  -3.8565091611605523e-05 4.3492436378087456e-04 0.0000000000000000e+00  -3.8150969679240426e-05 4.6705141580714551e-04 0.0000000000000000e+00  -3.7427086243523912e-05 4.9848261383211997e-04 0.0000000000000000e+00  -3.6263091985404463e-05 5.2750453476746288e-04 0.0000000000000000e+00  -3.5287609113394912e-05 5.5623926251317020e-04 0.0000000000000000e+00  -3.4548828326172568e-05 5.8479634559010596e-04 0.0000000000000000e+00  -3.4335765528418152e-05 6.1359404696488410e-04 0.0000000000000000e+00  -3.4303917246341279e-05 6.4300310281488623e-04 0.0000000000000000e+00  -3.3421345387126774e-05 6.6817698355883738e-04 0.0000000000000000e+00  -3.3440335189050986e-05 6.9440137174510766e-04 0.0000000000000000e+00  -3.5353667999842485e-05 7.2427985678260925e-04 0.0000000000000000e+00  -3.4203202732596408e-05 7.4626699645008909e-04 0.0000000000000000e+00  -4.1689959165656622e-05 1.8930129993778778e-04 0.0000000000000000e+00  -4.3100504704421055e-05 2.1570118638072205e-04 0.0000000000000000e+00  -4.4167677253338282e-05 2.4388244027268255e-04 0.0000000000000000e+00  -4.4777759818930770e-05 2.7340971363798357e-04 0.0000000000000000e+00  -4.5027234971666711e-05 3.0378685060926446e-04 0.0000000000000000e+00  -4.5063430562935767e-05 3.3466865682925525e-04 0.0000000000000000e+00  -4.4986148611016450e-05 3.6586767370454422e-04 0.0000000000000000e+00  -4.4841839337149628e-05 3.9726180454607895e-04 0.0000000000000000e+00  -4.4618625416287341e-05 4.2868951667540087e-04 0.0000000000000000e+00  -4.4256344215876747e-05 4.5989276953329792e-04 0.0000000000000000e+00  -4.3690499419739278e-05 4.9041327404201389e-04 0.0000000000000000e+00  -4.3030294164849387e-05 5.1959437970584116e-04 0.0000000000000000e+00  -4.2637000141339569e-05 5.4836766573625846e-04 0.0000000000000000e+00  -4.2494717990890893e-05 5.7696453687748335e-04 0.0000000000000000e+00  -4.2596982695003601e-05 6.0561058677977096e-04 0.0000000000000000e+00  -4.2795678155071574e-05 6.3415565170570423e-04 0.0000000000000000e+00  -4.3114147364303900e-05 6.6090491445368728e-04 0.0000000000000000e+00  -4.4439043209922029e-05 6.8848475887253800e-04 0.0000000000000000e+00  -4.6708982131088825e-05 7.1831195581892435e-04 0.0000000000000000e+00  -4.9646732583093030e-05 7.4888796957699926e-04 0.0000000000000000e+00  -4.9541416646263970e-05 7.6843150926820993e-04 0.0000000000000000e+00  -4.4421605904833495e-05 2.1588893865135485e-04 0.0000000000000000e+00  -4.6057853132324913e-05 2.4317695014776790e-04 0.0000000000000000e+00  -4.7308896912340088e-05 2.7167715744475944e-04 0.0000000000000000e+00  -4.8192138627753681e-05 3.0106754131713329e-04 0.0000000000000000e+00  -4.8787878155752690e-05 3.3106211593315307e-04 0.0000000000000000e+00  -4.9177218832380785e-05 3.6144740913579717e-04 0.0000000000000000e+00  -4.9408917406501568e-05 3.9205256841878827e-04 0.0000000000000000e+00  -4.9497275428606819e-05 4.2268968124283110e-04 0.0000000000000000e+00  -4.9442826167988532e-05 4.5311818607681164e-04 0.0000000000000000e+00  -4.9276256795715071e-05 4.8302714694768028e-04 0.0000000000000000e+00  -4.9133613352450113e-05 5.1215585188913208e-04 0.0000000000000000e+00  -4.9228133766006949e-05 5.4091667702782617e-04 0.0000000000000000e+00  -4.9578349103782996e-05 5.6947921947316015e-04 0.0000000000000000e+00  -5.0167115898616038e-05 5.9796622472227878e-04 0.0000000000000000e+00  -5.0958822885612389e-05 6.2626527696976947e-04 0.0000000000000000e+00  -5.2074968209569752e-05 6.5391370432485343e-04 0.0000000000000000e+00  -5.3880333749065032e-05 6.8224049321752506e-04 0.0000000000000000e+00  -5.6151625366877001e-05 7.1202391782771541e-04 0.0000000000000000e+00  -5.8539388881697592e-05 7.4276699853471461e-04 0.0000000000000000e+00  -6.2799801416273614e-05 7.7090018601662087e-04 0.0000000000000000e+00  -6.2915133755417186e-05 7.8682135677545894e-04 0.0000000000000000e+00  -4.7340205595476838e-05 2.4239735961061051e-04 0.0000000000000000e+00  -4.9033277514026187e-05 2.7001507199983239e-04 0.0000000000000000e+00  -5.0390394050191318e-05 2.9851089274805814e-04 0.0000000000000000e+00  -5.1451391538539769e-05 3.2765451999270881e-04 0.0000000000000000e+00  -5.2271425542523496e-05 3.5724123493318955e-04 0.0000000000000000e+00  -5.2898245684760162e-05 3.8708634648091799e-04 0.0000000000000000e+00  -5.3367586407363815e-05 4.1700113891374473e-04 0.0000000000000000e+00  -5.3717623897170493e-05 4.4677989352222584e-04 0.0000000000000000e+00  -5.4015923668597470e-05 4.7621288945367781e-04 0.0000000000000000e+00  -5.4385939320286932e-05 5.0518068746294555e-04 0.0000000000000000e+00  -5.4970456897938406e-05 5.3386350879216149e-04 0.0000000000000000e+00  -5.5817380472953068e-05 5.6236650902832938e-04 0.0000000000000000e+00  -5.6947754937163654e-05 5.9076803381642512e-04 0.0000000000000000e+00  -5.8392132251235665e-05 6.1905331764887318e-04 0.0000000000000000e+00  -6.0276604056016019e-05 6.4720314259123499e-04 0.0000000000000000e+00  -6.2810466474209361e-05 6.7596355054960972e-04 0.0000000000000000e+00  -6.5984327691417401e-05 7.0590308123162117e-04 0.0000000000000000e+00  -6.9844580026615406e-05 7.3743287296944185e-04 0.0000000000000000e+00  -7.4349974975376301e-05 7.7349145583537917e-04 0.0000000000000000e+00  -7.4391657574006558e-05 7.8854385387855852e-04 0.0000000000000000e+00  -7.4184372703435381e-05 8.0166984697613601e-04 0.0000000000000000e+00  -5.0095061782950101e-05 2.6832153911689622e-04 0.0000000000000000e+00  -5.1808865141129881e-05 2.9601882632485522e-04 0.0000000000000000e+00  -5.3246933313072353e-05 3.2437980529902318e-04 0.0000000000000000e+00  -5.4448212188910510e-05 3.5321951498268529e-04 0.0000000000000000e+00  -5.5456887842519134e-05 3.8236073274142520e-04 0.0000000000000000e+00  -5.6319268842679869e-05 4.1162826602444779e-04 0.0000000000000000e+00  -5.7091186960438768e-05 4.4084989949166924e-04 0.0000000000000000e+00  -5.7850873365022870e-05 4.6987556343710261e-04 0.0000000000000000e+00  -5.8705120367071726e-05 4.9863331192951266e-04 0.0000000000000000e+00  -5.9762736353675580e-05 5.2719583196528231e-04 0.0000000000000000e+00  -6.1086191551888640e-05 5.5562408621053004e-04 0.0000000000000000e+00  -6.2720685640881292e-05 5.8397609996618360e-04 0.0000000000000000e+00  -6.4716514173264561e-05 6.1229306115243617e-04 0.0000000000000000e+00  -6.7157332753569335e-05 6.4068430752923947e-04 0.0000000000000000e+00  -7.0115046286870159e-05 6.6959423816313009e-04 0.0000000000000000e+00  -7.3483431902663889e-05 6.9941830888980180e-04 0.0000000000000000e+00  -7.6972361261586693e-05 7.3054373770623925e-04 0.0000000000000000e+00  -7.9972080752882055e-05 7.6360068748468780e-04 0.0000000000000000e+00  -8.3864967630147295e-05 7.9037734522109996e-04 0.0000000000000000e+00  -8.3776986273705330e-05 8.0237162819537795e-04 0.0000000000000000e+00  -8.3451050236221471e-05 8.1353308773551359e-04 0.0000000000000000e+00  -5.2559763076937598e-05 2.9352113558145496e-04 0.0000000000000000e+00  -5.4298923828099442e-05 3.2117735109353160e-04 0.0000000000000000e+00  -5.5825128171279405e-05 3.4933868628081888e-04 0.0000000000000000e+00  -5.7179047142712425e-05 3.7784369324042632e-04 0.0000000000000000e+00  -5.8409790497530616e-05 4.0653583313579578e-04 0.0000000000000000e+00  -5.9578112165138625e-05 4.3527017934945724e-04 0.0000000000000000e+00  -6.0761037831387338e-05 4.6393031818985422e-04 0.0000000000000000e+00  -6.2050536994745088e-05 4.9245864968753899e-04 0.0000000000000000e+00  -6.3536694790941939e-05 5.2087566573852460e-04 0.0000000000000000e+00  -6.5286646094519544e-05 5.4921369498167540e-04 0.0000000000000000e+00  -6.7357028872156740e-05 5.7751708640187561e-04 0.0000000000000000e+00  -6.9805669240865416e-05 6.0584463582125342e-04 0.0000000000000000e+00  -7.2700219829740571e-05 6.3432056798017218e-04 0.0000000000000000e+00  -7.6091151357913101e-05 6.6322110535074177e-04 0.0000000000000000e+00  -7.9953388159762157e-05 6.9281476719263964e-04 0.0000000000000000e+00  -8.4216342136785315e-05 7.2339350418240439e-04 0.0000000000000000e+00  -8.8772069242013473e-05 7.5548665809311232e-04 0.0000000000000000e+00  -9.3084726760467499e-05 7.9114866654504614e-04 0.0000000000000000e+00  -9.2342166522305620e-05 8.0329959813628708e-04 0.0000000000000000e+00  -9.1733093825552997e-05 8.1386139199875359e-04 0.0000000000000000e+00  -5.4685731710238890e-05 3.1799311673076224e-04 0.0000000000000000e+00  -5.6478545258885864e-05 3.4554877049973448e-04 0.0000000000000000e+00  -5.8127876597672713e-05 3.7348685513482587e-04 0.0000000000000000e+00  -5.9681189511222213e-05 4.0166913407242315e-04 0.0000000000000000e+00  -6.1197040753247501e-05 4.2997138738564621e-04 0.0000000000000000e+00  -6.2745691558686371e-05 4.5829620219905298e-04 0.0000000000000000e+00  -6.4405578516766709e-05 4.8658903115600719e-04 0.0000000000000000e+00  -6.6252795040714011e-05 5.1484296210822919e-04 0.0000000000000000e+00  -6.8350957108321452e-05 5.4307027452292847e-04 0.0000000000000000e+00  -7.0755577097516295e-05 5.7130131599726402e-04 0.0000000000000000e+00  -7.3518078919302120e-05 5.9958882628984998e-04 0.0000000000000000e+00  -7.6684885745611079e-05 6.2803198232732076e-04 0.0000000000000000e+00  -8.0277696914426319e-05 6.5679751883412397e-04 0.0000000000000000e+00  -8.4260756427170233e-05 6.8604313080481197e-04 0.0000000000000000e+00  -8.8529895053340301e-05 7.1590811118884667e-04 0.0000000000000000e+00  -9.2851552094498505e-05 7.4650941380276236e-04 0.0000000000000000e+00  -9.6661871209484967e-05 7.7768312751717525e-04 0.0000000000000000e+00  -9.9499374703518502e-05 8.0413254902480646e-04 0.0000000000000000e+00  -9.8701668134797179e-05 8.1445091395024067e-04 0.0000000000000000e+00  -5.6459606448137594e-05 3.4179835741645519e-04 0.0000000000000000e+00  -5.8348786765625967e-05 3.6923529204213184e-04 0.0000000000000000e+00  -6.0168739215194513e-05 3.9696616791254293e-04 0.0000000000000000e+00  -6.1972105443534515e-05 4.2488175161417178e-04 0.0000000000000000e+00  -6.3819728462661361e-05 4.5289535432150799e-04 0.0000000000000000e+00  -6.5776838971604918e-05 4.8095150110680912e-04 0.0000000000000000e+00  -6.7906074270730703e-05 5.0902671489205678e-04 0.0000000000000000e+00  -7.0261459575172755e-05 5.3711695548095100e-04 0.0000000000000000e+00  -7.2888420842896268e-05 5.6523610139337492e-04 0.0000000000000000e+00  -7.5822939928407953e-05 5.9341760734099667e-04 0.0000000000000000e+00  -7.9086272419966598e-05 6.2172162351547405e-04 0.0000000000000000e+