<?xml version="1.0"?>
<VTKFile type="UnstructuredGrid"  version="0.1"  >
<UnstructuredGrid>
<Piece  NumberOfPoints="621" NumberOfCells="1125">
<Points>
<DataArray  type="Float64"  NumberOfComponents="3"  format="ascii">1.883478260869565 0 0  1.9 0 0  1.9 0.01666666666666667 0  1.883478260869565 0.01666666666666667 0  1.916521739130435 0 0  1.916521739130435 0.01666666666666667 0  1.933043478260869 0 0  1.933043478260869 0.01666666666666667 0  1.949565217391304 0 0  1.949565217391304 0.01666666666666667 0  1.966086956521739 0 0  1.966086956521739 0.01666666666666667 0  1.982608695652174 0 0  1.982608695652174 0.01666666666666667 0  1.999130434782608 0 0  1.999130434782608 0.01666666666666667 0  2.015652173913043 0 0  2.015652173913043 0.01666666666666667 0  2.032173913043478 0 0  2.032173913043478 0.01666666666666667 0  2.048695652173913 0 0  2.048695652173913 0.01666666666666667 0  2.065217391304348 0 0  2.065217391304348 0.01666666666666667 0  2.081739130434782 0 0  2.081739130434782 0.01666666666666667 0  2.098260869565217 0 0  2.098260869565217 0.01666666666666667 0  2.114782608695652 0 0  2.114782608695652 0.01666666666666667 0  2.131304347826087 0 0  2.131304347826087 0.01666666666666667 0  2.147826086956522 0 0  2.147826086956522 0.01666666666666667 0  2.164347826086956 0 0  2.164347826086956 0.01666666666666667 0  2.180869565217391 0 0  2.180869565217391 0.01666666666666667 0  2.197391304347826 0 0  2.197391304347826 0.01666666666666667 0  2.213913043478261 0 0  2.213913043478261 0.01666666666666667 0  2.230434782608695 0 0  2.230434782608695 0.01666666666666667 0  2.24695652173913 0 0  2.24695652173913 0.01666666666666667 0  2.263478260869565 0 0  2.263478260869565 0.01666666666666667 0  2.28 0 0  2.28 0.01666666666666667 0  2.296521739130434 0 0  2.296521739130434 0.01666666666666667 0  2.31304347826087 0 0  2.31304347826087 0.01666666666666667 0  2.329565217391304 0 0  2.329565217391304 0.01666666666666667 0  2.346086956521739 0 0  2.346086956521739 0.01666666666666667 0  2.362608695652174 0 0  2.362608695652174 0.01666666666666667 0  2.379130434782609 0 0  2.379130434782609 0.01666666666666667 0  2.395652173913044 0 0  2.395652173913044 0.01666666666666667 0  2.412173913043478 0 0  2.412173913043478 0.01666666666666667 0  2.428695652173913 0 0  2.428695652173913 0.01666666666666667 0  2.445217391304348 0 0  2.445217391304348 0.01666666666666667 0  2.461739130434782 0 0  2.461739130434782 0.01666666666666667 0  2.478260869565217 0 0  2.478260869565217 0.01666666666666667 0  2.494782608695652 0 0  2.494782608695652 0.01666666666666667 0  2.511304347826087 0 0  2.511304347826087 0.01666666666666667 0  2.527826086956522 0 0  2.527826086956522 0.01666666666666667 0  2.544347826086956 0 0  2.544347826086956 0.01666666666666667 0  2.560869565217391 0 0  2.560869565217391 0.01666666666666667 0  2.577391304347826 0 0  2.577391304347826 0.01666666666666667 0  1.916521739130435 0.03333333333333333 0  1.933043478260869 0.03333333333333333 0  1.949565217391304 0.03333333333333333 0  1.966086956521739 0.03333333333333333 0  1.982608695652174 0.03333333333333333 0  1.999130434782608 0.03333333333333333 0  2.015652173913043 0.03333333333333333 0  2.032173913043478 0.03333333333333333 0  2.048695652173913 0.03333333333333333 0  2.065217391304348 0.03333333333333333 0  2.081739130434782 0.03333333333333333 0  2.098260869565217 0.03333333333333333 0  2.114782608695652 0.03333333333333333 0  2.131304347826087 0.03333333333333333 0  2.147826086956522 0.03333333333333333 0  2.164347826086956 0.03333333333333333 0  2.180869565217391 0.03333333333333333 0  2.197391304347826 0.03333333333333333 0  2.213913043478261 0.03333333333333333 0  2.230434782608695 0.03333333333333333 0  2.24695652173913 0.03333333333333333 0  2.263478260869565 0.03333333333333333 0  2.28 0.03333333333333333 0  2.296521739130434 0.03333333333333333 0  2.31304347826087 0.03333333333333333 0  2.329565217391304 0.03333333333333333 0  2.346086956521739 0.03333333333333333 0  2.362608695652174 0.03333333333333333 0  2.379130434782609 0.03333333333333333 0  2.395652173913044 0.03333333333333333 0  2.412173913043478 0.03333333333333333 0  2.428695652173913 0.03333333333333333 0  2.445217391304348 0.03333333333333333 0  2.461739130434782 0.03333333333333333 0  2.478260869565217 0.03333333333333333 0  2.494782608695652 0.03333333333333333 0  2.511304347826087 0.03333333333333333 0  2.527826086956522 0.03333333333333333 0  2.544347826086956 0.03333333333333333 0  2.560869565217391 0.03333333333333333 0  2.577391304347826 0.03333333333333333 0  2.593913043478261 0.03333333333333333 0  1.933043478260869 0.05 0  1.949565217391304 0.05 0  1.966086956521739 0.05 0  1.982608695652174 0.05 0  1.999130434782608 0.05 0  2.015652173913043 0.05 0  2.032173913043478 0.05 0  2.048695652173913 0.05 0  2.065217391304348 0.05 0  2.081739130434782 0.05 0  2.098260869565217 0.05 0  2.114782608695652 0.05 0  2.131304347826087 0.05 0  2.147826086956522 0.05 0  2.164347826086956 0.05 0  2.180869565217391 0.05 0  2.197391304347826 0.05 0  2.213913043478261 0.05 0  2.230434782608695 0.05 0  2.24695652173913 0.05 0  2.263478260869565 0.05 0  2.28 0.05 0  2.296521739130434 0.05 0  2.31304347826087 0.05 0  2.329565217391304 0.05 0  2.346086956521739 0.05 0  2.362608695652174 0.05 0  2.379130434782609 0.05 0  2.395652173913044 0.05 0  2.412173913043478 0.05 0  2.428695652173913 0.05 0  2.445217391304348 0.05 0  2.461739130434782 0.05 0  2.478260869565217 0.05 0  2.494782608695652 0.05 0  2.511304347826087 0.05 0  2.527826086956522 0.05 0  2.544347826086956 0.05 0  2.560869565217391 0.05 0  2.577391304347826 0.05 0  2.593913043478261 0.05 0  2.610434782608696 0.05 0  1.949565217391304 0.06666666666666667 0  1.966086956521739 0.06666666666666667 0  1.982608695652174 0.06666666666666667 0  1.999130434782608 0.06666666666666667 0  2.015652173913043 0.06666666666666667 0  2.032173913043478 0.06666666666666667 0  2.048695652173913 0.06666666666666667 0  2.065217391304348 0.06666666666666667 0  2.081739130434782 0.06666666666666667 0  2.098260869565217 0.06666666666666667 0  2.114782608695652 0.06666666666666667 0  2.131304347826087 0.06666666666666667 0  2.147826086956522 0.06666666666666667 0  2.164347826086956 0.06666666666666667 0  2.180869565217391 0.06666666666666667 0  2.197391304347826 0.06666666666666667 0  2.213913043478261 0.06666666666666667 0  2.230434782608695 0.06666666666666667 0  2.24695652173913 0.06666666666666667 0  2.263478260869565 0.06666666666666667 0  2.28 0.06666666666666667 0  2.296521739130434 0.06666666666666667 0  2.31304347826087 0.06666666666666667 0  2.329565217391304 0.06666666666666667 0  2.346086956521739 0.06666666666666667 0  2.362608695652174 0.06666666666666667 0  2.379130434782609 0.06666666666666667 0  2.395652173913044 0.06666666666666667 0  2.412173913043478 0.06666666666666667 0  2.428695652173913 0.06666666666666667 0  2.445217391304348 0.06666666666666667 0  2.461739130434782 0.06666666666666667 0  2.478260869565217 0.06666666666666667 0  2.494782608695652 0.06666666666666667 0  2.511304347826087 0.06666666666666667 0  2.527826086956522 0.06666666666666667 0  2.544347826086956 0.06666666666666667 0  2.560869565217391 0.06666666666666667 0  2.577391304347826 0.06666666666666667 0  2.593913043478261 0.06666666666666667 0  2.610434782608696 0.06666666666666667 0  2.62695652173913 0.06666666666666667 0  1.966086956521739 0.08333333333333333 0  1.982608695652174 0.08333333333333333 0  1.999130434782608 0.08333333333333333 0  2.015652173913043 0.08333333333333333 0  2.032173913043478 0.08333333333333333 0  2.048695652173913 0.08333333333333333 0  2.065217391304348 0.08333333333333333 0  2.081739130434782 0.08333333333333333 0  2.098260869565217 0.08333333333333333 0  2.114782608695652 0.08333333333333333 0  2.131304347826087 0.08333333333333333 0  2.147826086956522 0.08333333333333333 0  2.164347826086956 0.08333333333333333 0  2.180869565217391 0.08333333333333333 0  2.197391304347826 0.08333333333333333 0  2.213913043478261 0.08333333333333333 0  2.230434782608695 0.08333333333333333 0  2.24695652173913 0.08333333333333333 0  2.263478260869565 0.08333333333333333 0  2.28 0.08333333333333333 0  2.296521739130434 0.08333333333333333 0  2.31304347826087 0.08333333333333333 0  2.329565217391304 0.08333333333333333 0  2.346086956521739 0.08333333333333333 0  2.362608695652174 0.08333333333333333 0  2.379130434782609 0.08333333333333333 0  2.395652173913044 0.08333333333333333 0  2.412173913043478 0.08333333333333333 0  2.428695652173913 0.08333333333333333 0  2.445217391304348 0.08333333333333333 0  2.461739130434782 0.08333333333333333 0  2.478260869565217 0.08333333333333333 0  2.494782608695652 0.08333333333333333 0  2.511304347826087 0.08333333333333333 0  2.527826086956522 0.08333333333333333 0  2.544347826086956 0.08333333333333333 0  2.560869565217391 0.08333333333333333 0  2.577391304347826 0.08333333333333333 0  2.593913043478261 0.08333333333333333 0  2.610434782608696 0.08333333333333333 0  2.62695652173913 0.08333333333333333 0  2.643478260869565 0.08333333333333333 0  1.982608695652174 0.1 0  1.999130434782608 0.1 0  2.015652173913043 0.1 0  2.032173913043478 0.1 0  2.048695652173913 0.1 0  2.065217391304348 0.1 0  2.081739130434782 0.1 0  2.098260869565217 0.1 0  2.114782608695652 0.1 0  2.131304347826087 0.1 0  2.147826086956522 0.1 0  2.164347826086956 0.1 0  2.180869565217391 0.1 0  2.197391304347826 0.1 0  2.213913043478261 0.1 0  2.230434782608695 0.1 0  2.24695652173913 0.1 0  2.263478260869565 0.1 0  2.28 0.1 0  2.296521739130434 0.1 0  2.31304347826087 0.1 0  2.329565217391304 0.1 0  2.346086956521739 0.1 0  2.362608695652174 0.1 0  2.379130434782609 0.1 0  2.395652173913044 0.1 0  2.412173913043478 0.1 0  2.428695652173913 0.1 0  2.445217391304348 0.1 0  2.461739130434782 0.1 0  2.478260869565217 0.1 0  2.494782608695652 0.1 0  2.511304347826087 0.1 0  2.527826086956522 0.1 0  2.544347826086956 0.1 0  2.560869565217391 0.1 0  2.5773
[...]
<PointData  Vectors="Displacement"> 
<DataArray  type="Float64"  Name="Displacement"  NumberOfComponents="3" format="ascii">3.8355693655636812e-04 3.5350727962598829e-03 0.0000000000000000e+00  3.8449257073604914e-04 3.6011414501252357e-03 0.0000000000000000e+00  3.2094913258388317e-04 3.6003234782612113e-03 0.0000000000000000e+00  3.1721183596740752e-04 3.5340044687294380e-03 0.0000000000000000e+00  3.8431403137993708e-04 3.6630634467491345e-03 0.0000000000000000e+00  3.2494080411040317e-04 3.6629236305114159e-03 0.0000000000000000e+00  3.8368219644515885e-04 3.7201892793156961e-03 0.0000000000000000e+00  3.2756525991954941e-04 3.7200650988279257e-03 0.0000000000000000e+00  3.8292450078740247e-04 3.7744842984346210e-03 0.0000000000000000e+00  3.2930589138034774e-04 3.7744689672250583e-03 0.0000000000000000e+00  3.8207689872907073e-04 3.8265604921214631e-03 0.0000000000000000e+00  3.3042817020634084e-04 3.8266480487090626e-03 0.0000000000000000e+00  3.8126395975939312e-04 3.8767365145836118e-03 0.0000000000000000e+00  3.3114384670143476e-04 3.8768455426989017e-03 0.0000000000000000e+00  3.8058027860574307e-04 3.9255150315165160e-03 0.0000000000000000e+00  3.3158797849273150e-04 3.9256365547566535e-03 0.0000000000000000e+00  3.8012841905483345e-04 3.9732189732140030e-03 0.0000000000000000e+00  3.3188339089184834e-04 3.9733163293989657e-03 0.0000000000000000e+00  3.8008002558038751e-04 4.0201419186479907e-03 0.0000000000000000e+00  3.3218987420030886e-04 4.0201431495672183e-03 0.0000000000000000e+00  3.8062580211145847e-04 4.0667063518027595e-03 0.0000000000000000e+00  3.3266734741801870e-04 4.0665417712753829e-03 0.0000000000000000e+00  3.8184453795552344e-04 4.1135434408630066e-03 0.0000000000000000e+00  3.3336257761832277e-04 4.1132049988474619e-03 0.0000000000000000e+00  3.8355168165870657e-04 4.1614494010466119e-03 0.0000000000000000e+00  3.3408362361495822e-04 4.1610641013978388e-03 0.0000000000000000e+00  3.8559251556613268e-04 4.2108173155505991e-03 0.0000000000000000e+00  3.3467034478768800e-04 4.2103298028942152e-03 0.0000000000000000e+00  3.8781780601759559e-04 4.2619504181445793e-03 0.0000000000000000e+00  3.3533503432428362e-04 4.2614136771592231e-03 0.0000000000000000e+00  3.9020636095977654e-04 4.3150169180027073e-03 0.0000000000000000e+00  3.3604446878920198e-04 4.3141813820272764e-03 0.0000000000000000e+00  3.9369073708676487e-04 4.3702567468215997e-03 0.0000000000000000e+00  3.3766002978357181e-04 4.3688940212515959e-03 0.0000000000000000e+00  3.9811764569519590e-04 4.4255063908290159e-03 0.0000000000000000e+00  3.4263413917982600e-04 4.4240204467874637e-03 0.0000000000000000e+00  4.0162546804884628e-04 4.4796420131714369e-03 0.0000000000000000e+00  3.4723144346034568e-04 4.4785859511883358e-03 0.0000000000000000e+00  4.0439042113422349e-04 4.5337024123383420e-03 0.0000000000000000e+00  3.4988230128517967e-04 4.5329481410500893e-03 0.0000000000000000e+00  4.0681829806725792e-04 4.5883184312603348e-03 0.0000000000000000e+00  3.5154688975604504e-04 4.5876726208916550e-03 0.0000000000000000e+00  4.0910329903767458e-04 4.6437643694949744e-03 0.0000000000000000e+00  3.5288333199310647e-04 4.6431423217427933e-03 0.0000000000000000e+00  4.1133800943131849e-04 4.7001451630180125e-03 0.0000000000000000e+00  3.5415651025443842e-04 4.6995076187182159e-03 0.0000000000000000e+00  4.1357899200481207e-04 4.7574563553160450e-03 0.0000000000000000e+00  3.5550268488149429e-04 4.7567742963573034e-03 0.0000000000000000e+00  4.1587190118615961e-04 4.8155989631371949e-03 0.0000000000000000e+00  3.5704584934795883e-04 4.8148519326662873e-03 0.0000000000000000e+00  4.1824907659349043e-04 4.8743538115845753e-03 0.0000000000000000e+00  3.5892370447664302e-04 4.8735378851854803e-03 0.0000000000000000e+00  4.2071574366480519e-04 4.9333732121000793e-03 0.0000000000000000e+00  3.6124666142827155e-04 4.9325007719591306e-03 0.0000000000000000e+00  4.2324322439706214e-04 4.9922435776419234e-03 0.0000000000000000e+00  3.6402860999730957e-04 4.9913376934724064e-03 0.0000000000000000e+00  4.2577893268506137e-04 5.0505995250973348e-03 0.0000000000000000e+00  3.6715500787650623e-04 5.0496880182398264e-03 0.0000000000000000e+00  4.2826889531225097e-04 5.1082160587707474e-03 0.0000000000000000e+00  3.7042830839302581e-04 5.1073235937089392e-03 0.0000000000000000e+00  4.3067657091629667e-04 5.1650250053159345e-03 0.0000000000000000e+00  3.7366006404602846e-04 5.1641666521152936e-03 0.0000000000000000e+00  4.3298776211269204e-04 5.2210675522083782e-03 0.0000000000000000e+00  3.7673605005373770e-04 5.2202474581214443e-03 0.0000000000000000e+00  4.3520513191025028e-04 5.2764295833413770e-03 0.0000000000000000e+00  3.7962461753994866e-04 5.2756440276183359e-03 0.0000000000000000e+00  4.3733972730885883e-04 5.3311937204846378e-03 0.0000000000000000e+00  3.8234877669300258e-04 5.3304354274791186e-03 0.0000000000000000e+00  4.3940478022635283e-04 5.3854155289708421e-03 0.0000000000000000e+00  3.8495433186712613e-04 5.3846767564183001e-03 0.0000000000000000e+00  4.4141232255763595e-04 5.4391165582425788e-03 0.0000000000000000e+00  3.8748963249046872e-04 5.4383907315901725e-03 0.0000000000000000e+00  4.4337175763080295e-04 5.4922863307386317e-03 0.0000000000000000e+00  3.8999597362419567e-04 5.4915686660258764e-03 0.0000000000000000e+00  4.4528953537392745e-04 5.5448885094624180e-03 0.0000000000000000e+00  3.9250408120271497e-04 5.5441760493671428e-03 0.0000000000000000e+00  4.4716932107526834e-04 5.5968685243910901e-03 0.0000000000000000e+00  3.9503366830660291e-04 5.5961600606403376e-03 0.0000000000000000e+00  4.4901215974270782e-04 5.6481619084770935e-03 0.0000000000000000e+00  3.9759321646758150e-04 5.6474579112074669e-03 0.0000000000000000e+00  4.5081678274983461e-04 5.6987034666689399e-03 0.0000000000000000e+00  4.0017960610911376e-04 5.6980058387465383e-03 0.0000000000000000e+00  4.5258021927621557e-04 5.7484365598369832e-03 0.0000000000000000e+00  4.0277893259037451e-04 5.7477480857325847e-03 0.0000000000000000e+00  4.5429887596573691e-04 5.7973205775672075e-03 0.0000000000000000e+00  4.0536993919990295e-04 5.7966439567202913e-03 0.0000000000000000e+00  2.6544600020909958e-04 3.6613523418323937e-03 0.0000000000000000e+00  2.7417138730584470e-04 3.7193875519876186e-03 0.0000000000000000e+00  2.7709177375151840e-04 3.7738317358590326e-03 0.0000000000000000e+00  2.7983101410695467e-04 3.8263752411108309e-03 0.0000000000000000e+00  2.8166518710364292e-04 3.8766531722129222e-03 0.0000000000000000e+00  2.8290877041961321e-04 3.9256058957431233e-03 0.0000000000000000e+00  2.8365949451217791e-04 3.9734116719992718e-03 0.0000000000000000e+00  2.8409161508283193e-04 4.0202079656522036e-03 0.0000000000000000e+00  2.8445984320289746e-04 4.0663917954664253e-03 0.0000000000000000e+00  2.8491090076124221e-04 4.1128089216012432e-03 0.0000000000000000e+00  2.8511184862122239e-04 4.1607333172204459e-03 0.0000000000000000e+00  2.8509239222570930e-04 4.2099579582531767e-03 0.0000000000000000e+00  2.8453637411217391e-04 4.2609662871416860e-03 0.0000000000000000e+00  2.8282334577063340e-04 4.3139399334716612e-03 0.0000000000000000e+00  2.8654642803421407e-04 4.3583086799731056e-03 0.0000000000000000e+00  2.9175045577811768e-04 4.4088798337058354e-03 0.0000000000000000e+00  2.9686313419461594e-04 4.4612816993853457e-03 0.0000000000000000e+00  3.0127454222770558e-04 4.5144917192225017e-03 0.0000000000000000e+00  3.0499433596919479e-04 4.5683136331337183e-03 0.0000000000000000e+00  3.0831518181943552e-04 4.6232185616233677e-03 0.0000000000000000e+00  3.1150024713504147e-04 4.6788981324400476e-03 0.0000000000000000e+00  3.1480834473006472e-04 4.7344037492205379e-03 0.0000000000000000e+00  3.1846071581905107e-04 4.7903925293150988e-03 0.0000000000000000e+00  3.2246394018656694e-04 4.8473037756694053e-03 0.0000000000000000e+00  3.2677441561703471e-04 4.9047907703958045e-03 0.0000000000000000e+00  3.3136390079150046e-04 4.9624279638481854e-03 0.0000000000000000e+00  3.3616432048818657e-04 5.0198942213635798e-03 0.0000000000000000e+00  3.4106053500746901e-04 5.0769801542545337e-03 0.0000000000000000e+00  3.4592658355105116e-04 5.1335754811262253e-03 0.0000000000000000e+00  3.5066349457604844e-04 5.1896447959405827e-03 0.0000000000000000e+00  3.5521629917306360e-04 5.2451971210517078e-03 0.0000000000000000e+00  3.5957082801929649e-04 5.3002565936736690e-03 0.0000000000000000e+00  3.6374118691782681e-04 5.3548395424936153e-03 0.0000000000000000e+00  3.6775666591377774e-04 5.4089420173492973e-03 0.0000000000000000e+00  3.7165100936149419e-04 5.4625390281858284e-03 0.0000000000000000e+00  3.7545415979134834e-04 5.5155906659368308e-03 0.0000000000000000e+00  3.7918664044109089e-04 5.5680489205410947e-03 0.0000000000000000e+00  3.8285667019502220e-04 5.6198634717930882e-03 0.0000000000000000e+00  3.8645978621678104e-04 5.6709868051355514e-03 0.0000000000000000e+00  3.8998084519331974e-04 5.7213788540624450e-03 0.0000000000000000e+00  3.9339860676108098e-04 5.7710105168743281e-03 0.0000000000000000e+00  3.9669372481737874e-04 5.8198620263345546e-03 0.0000000000000000e+00  2.2362725190672498e-04 3.7181279234281212e-03 0.0000000000000000e+00  2.2274679502644291e-04 3.7728277568147197e-03 0.0000000000000000e+00  2.3054996629361127e-04 3.8256510827263603e-03 0.0000000000000000e+00  2.3365216248005851e-04 3.8764112951527939e-03 0.0000000000000000e+00  2.3527170964252360e-04 3.9256115281882231e-03 0.0000000000000000e+00  2.3628049159782376e-04 3.9737100261332502e-03 0.0000000000000000e+00  2.3667804308592444e-04 4.0205030856615628e-03 0.0000000000000000e+00  2.3685649526259515e-04 4.0662274487539389e-03 0.0000000000000000e+00  2.3722253057422365e-04 4.1120046647349770e-03 0.0000000000000000e+00  2.3735246044592444e-04 4.1601717784739561e-03 0.0000000000000000e+00  2.3690695747736998e-04 4.2094553401511910e-03 0.0000000000000000e+00  2.3748511068272468e-04 4.2529055363299054e-03 0.0000000000000000e+00  2.4002940498993067e-04 4.3006879816665121e-03 0.0000000000000000e+00  2.4397366913838441e-04 4.3453149126039727e-03 0.0000000000000000e+00  2.4793484811934792e-04 4.3932082989970415e-03 0.0000000000000000e+00  2.5253977229052670e-04 4.4433832917770682e-03 0.0000000000000000e+00  2.5738531628002274e-04 4.4948471477856385e-03 0.0000000000000000e+00  2.6224275013217294e-04 4.5472094880458789e-03 0.0000000000000000e+00  2.6709644314208583e-04 4.6005103542082551e-03 0.0000000000000000e+00  2.7208670046403822e-04 4.6545508608419805e-03 0.0000000000000000e+00  2.7727738678208865e-04 4.7089042837147781e-03 0.0000000000000000e+00  2.8261395000502303e-04 4.7638046919245619e-03 0.0000000000000000e+00  2.8815694648001456e-04 4.8194976208410911e-03 0.0000000000000000e+00  2.9397167269054332e-04 4.8758174851262258e-03 0.0000000000000000e+00  3.0003751655441888e-04 4.9324632368931299e-03 0.0000000000000000e+00  3.0628075122940570e-04 4.9891745593172686e-03 0.0000000000000000e+00  3.1260175954132819e-04 5.0457637954431688e-03 0.0000000000000000e+00  3.1889666071855158e-04 5.1021086796575231e-03 0.0000000000000000e+00  3.2507684512387202e-04 5.1581375583492819e-03 0.0000000000000000e+00  3.3108106334543377e-04 5.2138126232961950e-03 0.0000000000000000e+00  3.3687799292168234e-04 5.2691129387309570e-03 0.0000000000000000e+00  3.4246151908920252e-04 5.3240195437534790e-03 0.0000000000000000e+00  3.4784240008629375e-04 5.3785058613134160e-03 0.0000000000000000e+00  3.5303951247195423e-04 5.4325351929080746e-03 0.0000000000000000e+00  3.5807274530595857e-04 5.4860632005118651e-03 0.0000000000000000e+00  3.6295823311185374e-04 5.5390417326511843e-03 0.0000000000000000e+00  3.6770576106742720e-04 5.5914223190865588e-03 0.0000000000000000e+00  3.7231817330048817e-04 5.6431591070469122e-03 0.0000000000000000e+00  3.7679278432661459e-04 5.6942110768300521e-03 0.0000000000000000e+00  3.8112484617430428e-04 5.7445427385936438e-03 0.0000000000000000e+00  3.8531279526501233e-04 5.7941210574171979e-03 0.0000000000000000e+00  3.8936360862476652e-04 5.8429066746982445e-03 0.0000000000000000e+00  1.8645994566293558e-04 3.7733783804119649e-03 0.0000000000000000e+00  1.8832767866997047e-04 3.8245260550787649e-03 0.0000000000000000e+00  1.8957266755328676e-04 3.8758722582209709e-03 0.0000000000000000e+00  1.8902417547071352e-04 3.9257889815897734e-03 0.0000000000000000e+00  1.9041000389766812e-04 3.9743694161411477e-03 0.0000000000000000e+00  1.9079990834753422e-04 4.0212175251341988e-03 0.0000000000000000e+00  1.9084896138588610e-04 4.0660763179875964e-03 0.0000000000000000e+00  1.9131165371627520e-04 4.1101500602159537e-03 0.0000000000000000e+00  1.9163437001210008e-04 4.1577540527742707e-03 0.0000000000000000e+00  1.9272311260225213e-04 4.2003107046729958e-03 0.0000000000000000e+00  1.9555215680146693e-04 4.2427600279210916e-03 0.0000000000000000e+00  1.9877459578987846e-04 4.2870235780155625e-03 0.0000000000000000e+00  2.0289833553098981e-04 4.3310571210719365e-03 0.0000000000000000e+00  2.0708696804444172e-04 4.3771454399766929e-03 0.0000000000000000e+00  2.1178249626067027e-04 4.4250811002498813e-03 0.0000000000000000e+00  2.1702967757481189e-04 4.4744801566071199e-03 0.0000000000000000e+00  2.2269359298598471e-04 4.5250233903421089e-03 0.0000000000000000e+00  2.2868146605417854e-04 4.5765967289801979e-03 0.0000000000000000e+00  2.3498092991908897e-04 4.6290266967452479e-03 0.0000000000000000e+00  2.4155713754267760e-04 4.6821061928379228e-03 0.0000000000000000e+00  2.4832685796585114e-04 4.7359077595538019e-03 0.0000000000000000e+00  2.5528307045812499e-04 4.7905050261081404e-03 0.0000000000000000e+00  2.6245804674868790e-04 4.8457874694251982e-03 0.0000000000000000e+00  2.6983892257828265e-04 4.9015509700519868e-03 0.0000000000000000e+00  2.7736411902382671e-04 4.9575891588045833e-03 0.0000000000000000e+00  2.8494747920878758e-04 5.0137316366534214e-03 0.0000000000000000e+00  2.9249813398455373e-04 5.0698489283221466e-03 0.0000000000000000e+00  2.9993471421707791e-04 5.1258456771920390e-03 0.0000000000000000e+00  3.0719457003203297e-04 5.1816510758131897e-03 0.0000000000000000e+00  3.1423763514918621e-04 5.2372091110279677e-03 0.0000000000000000e+00  3.2104526436563014e-04 5.2924699058189521e-03 0.0000000000000000e+00  3.2761546188613227e-04 5.3473837896902522e-03 0.0000000000000000e+00  3.3395659873571530e-04 5.4018990982300542e-03 0.0000000000000000e+00  3.4008158358906390e-04 5.4559628105718223e-03 0.0000000000000000e+00  3.4600354998341596e-04 5.5095222063605660e-03 0.0000000000000000e+00  3.5173326541785617e-04 5.5625264453186300e-03 0.0000000000000000e+00  3.5727819845163847e-04 5.6149276916768161e-03 0.0000000000000000e+00  3.6264316195836149e-04 5.6666815279533119e-03 0.0000000000000000e+00  3.6783233547113499e-04 5.7177461159054173e-03 0.0000000000000000e+00  3.7285205509932502e-04 5.7680791441369018e-03 0.0000000000000000e+00  3.7771293036346540e-04 5.8176324774566052e-03 0.0000000000000000e+00  3.8242933009241563e-04 5.8663478808968989e-03 0.0000000000000000e+00  1.5020887678691289e-04 3.8257730824957630e-03 0.0000000000000000e+00  1.5011556277801853e-04 3.8765858923737869e-03 0.0000000000000000e+00  1.4914244428582707e-04 3.9267412449026130e-03 0.0000000000000000e+00  1.4637416008127254e-04 3.9754547947535423e-03 0.0000000000000000e+00  1.4713852595791839e-04 4.0225770243286878e-03 0.0000000000000000e+00  1.4729392542784105e-04 4.0662008807230412e-03 0.0000000000000000e+00  1.4786674222932059e-04 4.1074293349531305e-03 0.0000000000000000e+00  1.4875706130295060e-04 4.1504959376550341e-03 0.0000000000000000e+00  1.5186253502892078e-04 4.1903991590556185e-03 0.0000000000000000e+00  1.5555285802709281e-04 4.2309763510698633e-03 0.0000000000000000e+00  1.5956448489459857e-04 4.2731160003804010e-03 0.0000000000000000e+00  1.6396883990476888e-04 4.3158918235309714e-03 0.0000000000000000e+00  1.6859521964064715e-04 4.3602334797557818e-03 0.0000000000000000e+00  1.7371721842235197e-04 4.4060831315710144e-03 0.0000000000000000e+00  1.7946082996759380e-04 4.4533592057085826e-03 0.0000000000000000e+00  1.8580804595296843e-04 4.5019195800468431e-03 0.0000000000000000e+00  1.9267852100141855e-04 4.5516688686186076e-03 0.0000000000000000e+00  1.9999697068086945e-04 4.6024719926992079e-03 0.0000000000000000e+00  2.0767623654627189e-04 4.6542032391051489e-03 0.0000000000000000e+00  2.1562055542285414e-04 4.7068545706754686e-03 0.0000000000000000e+00  2.2378212023825585e-04 4.7604060545518908e-03 0.0000000000000000e+00  2.3214601128364104e-04 4.8147492323210687e-03 0.0000000000000000e+00  2.4068358869751440e-04 4.8697253773752778e-03 0.0000000000000000e+00  2.4933753107829910e-04 4.9251659987531136e-03 0.0000000000000000e+00  2.5803060276311863e-04 4.9809162086580112e-03 0.0000000000000000e+00  2.6667971634688651e-04 5.0368429957052480e-03 0.0000000000000000e+00  2.7520769730537872e-04 5.0928340394752964e-03 0.0000000000000000e+00  2.8355149546247345e-04 5.1487931338988161e-03 0.0000000000000000e+00  2.9166653943732797e-04 5.2046354404943563e-03 0.0000000000000000e+00  2.9952718235192973e-04 5.2602836285910084e-03 0.0000000000000000e+00  3.0712391709077725e-04 5.3156653676411682e-03 0.0000000000000000e+00  3.1445877127609197e-04 5.3707123350543381e-03 0.0000000000000000e+00  3.2154045906797936e-04 5.4253602524118533e-03 0.0000000000000000e+00  3.2838038642906119e-04 5.4795491608957483e-03 0.0000000000000000e+00  3.3498996748375614e-04 5.5332234565110879e-03 0.0000000000000000e+00  3.4137932772056591e-04 5.5863315065380380e-03 0.0000000000000000e+00  3.4755728234239856e-04 5.6388247229929994e-03 0.0000000000000000e+00  3.5353229582530370e-04 5.6906558680046918e-03 0.0000000000000000e+00  3.5931383375836649e-04 5.7417763536336611e-03 0.0000000000000000e+00  3.6491315722044990e-04 5.7921330382367676e-03 0.0000000000000000e+00  3.7034265955539794e-04 5.8416667174774149e-03 0.0000000000000000e+00  3.7561393572174126e-04 5.8903152948736291e-03 0.0000000000000000e+00  1.1410498973825867e-04 3.8779103214830052e-03 0.0000000000000000e+00  1.1331738171098900e-04 3.9278260562440812e-03 0.0000000000000000e+00  1.1204393545382762e-04 3.9776957018904371e-03 0.0000000000000000e+00  1.0808353122088023e-04 4.0256788193566134e-03 0.0000000000000000e+00  1.0778898119813092e-04 4.0672307243165519e-03 0.0000000000000000e+00  1.0807230254566171e-04 4.1043237273228304e-03 0.0000000000000000e+00  1.0915448293534344e-04 4.1433060596315291e-03 0.0000000000000000e+00  1.1354261292565936e-04 4.1792704123094840e-03 0.0000000000000000e+00  1.1816013287179970e-04 4.2181891609223204e-03 0.0000000000000000e+00  1.2271430791163275e-04 4.2586228018443393e-03 0.0000000000000000e+00  1.2742884602200889e-04 4.2999740253370240e-03 0.0000000000000000e+00  1.3242664578986789e-04 4.3425132671139196e-03 0.0000000000000000e+00  1.3798793261437942e-04 4.3862856340960293e-03 0.0000000000000000e+00  1.4423900807291685e-04 4.4314287152151834e-03 0.0000000000000000e+00  1.5119802093343661e-04 4.4779366857830979e-03 0.0000000000000000e+00  1.5879770594193831e-04 4.5258086225190711e-03 0.0000000000000000e+00  1.6694226444743747e-04 4.5749571923837775e-03 0.0000000000000000e+00  1.7552163998755873e-04 4.6252937456352670e-03 0.0000000000000000e+00  1.8442862973075421e-04 4.6767650224582204e-03 0.0000000000000000e+00  1.9359048725553772e-04 4.7292951432715081e-03 0.0000000000000000e+00  2.0296134575313550e-04 4.7827625753039220e-03 0.0000000000000000e+00  2.1249427520139564e-04 4.8370250692637224e-03 0.0000000000000000e+00  2.2212728964232003e-04 4.8919351861187663e-03 0.0000000000000000e+00  2.3178487134562848e-04 4.9473489165672473e-03 0.0000000000000000e+00  2.4138639046727444e-04 5.0031310247573308e-03 0.0000000000000000e+00  2.5085556386753304e-04 5.0591556380160533e-03 0.0000000000000000e+00  2.6012830028886158e-04 5.1153048120600913e-03 0.0000000000000000e+00  2.6915749357410152e-04 5.1714678340366348e-03 0.0000000000000000e+00  2.7791419190760936e-04 5.2275416054987419e-03 0.0000000000000000e+00  2.8638560229686863e-04 5.2834314129323323e-03 0.0000000000000000e+