<?xml version="1.0"?>
<VTKFile type="UnstructuredGrid"  version="0.1"  >
<UnstructuredGrid>
<Piece  NumberOfPoints="640" NumberOfCells="1175">
<Points>
<DataArray  type="Float64"  NumberOfComponents="3"  format="ascii">2.577391304347826 0 0  2.593913043478261 0 0  2.593913043478261 0.01666666666666667 0  2.577391304347826 0.01666666666666667 0  2.610434782608696 0 0  2.610434782608696 0.01666666666666667 0  2.62695652173913 0 0  2.62695652173913 0.01666666666666667 0  2.643478260869565 0 0  2.643478260869565 0.01666666666666667 0  2.66 0 0  2.66 0.01666666666666667 0  2.676521739130435 0 0  2.676521739130435 0.01666666666666667 0  2.693043478260869 0 0  2.693043478260869 0.01666666666666667 0  2.709565217391304 0 0  2.709565217391304 0.01666666666666667 0  2.726086956521739 0 0  2.726086956521739 0.01666666666666667 0  2.742608695652174 0 0  2.742608695652174 0.01666666666666667 0  2.759130434782609 0 0  2.759130434782609 0.01666666666666667 0  2.775652173913044 0 0  2.775652173913044 0.01666666666666667 0  2.792173913043478 0 0  2.792173913043478 0.01666666666666667 0  2.808695652173913 0 0  2.808695652173913 0.01666666666666667 0  2.825217391304347 0 0  2.825217391304347 0.01666666666666667 0  2.841739130434783 0 0  2.841739130434783 0.01666666666666667 0  2.858260869565217 0 0  2.858260869565217 0.01666666666666667 0  2.874782608695652 0 0  2.874782608695652 0.01666666666666667 0  2.891304347826087 0 0  2.891304347826087 0.01666666666666667 0  2.907826086956522 0 0  2.907826086956522 0.01666666666666667 0  2.924347826086957 0 0  2.924347826086957 0.01666666666666667 0  2.940869565217391 0 0  2.940869565217391 0.01666666666666667 0  2.957391304347826 0 0  2.957391304347826 0.01666666666666667 0  2.973913043478261 0 0  2.973913043478261 0.01666666666666667 0  2.593913043478261 0.03333333333333333 0  2.610434782608696 0.03333333333333333 0  2.62695652173913 0.03333333333333333 0  2.643478260869565 0.03333333333333333 0  2.66 0.03333333333333333 0  2.676521739130435 0.03333333333333333 0  2.693043478260869 0.03333333333333333 0  2.709565217391304 0.03333333333333333 0  2.726086956521739 0.03333333333333333 0  2.742608695652174 0.03333333333333333 0  2.759130434782609 0.03333333333333333 0  2.775652173913044 0.03333333333333333 0  2.792173913043478 0.03333333333333333 0  2.808695652173913 0.03333333333333333 0  2.825217391304347 0.03333333333333333 0  2.841739130434783 0.03333333333333333 0  2.858260869565217 0.03333333333333333 0  2.874782608695652 0.03333333333333333 0  2.891304347826087 0.03333333333333333 0  2.907826086956522 0.03333333333333333 0  2.924347826086957 0.03333333333333333 0  2.940869565217391 0.03333333333333333 0  2.957391304347826 0.03333333333333333 0  2.973913043478261 0.03333333333333333 0  2.610434782608696 0.05 0  2.62695652173913 0.05 0  2.643478260869565 0.05 0  2.66 0.05 0  2.676521739130435 0.05 0  2.693043478260869 0.05 0  2.709565217391304 0.05 0  2.726086956521739 0.05 0  2.742608695652174 0.05 0  2.759130434782609 0.05 0  2.775652173913044 0.05 0  2.792173913043478 0.05 0  2.808695652173913 0.05 0  2.825217391304347 0.05 0  2.841739130434783 0.05 0  2.858260869565217 0.05 0  2.874782608695652 0.05 0  2.891304347826087 0.05 0  2.907826086956522 0.05 0  2.924347826086957 0.05 0  2.940869565217391 0.05 0  2.957391304347826 0.05 0  2.973913043478261 0.05 0  2.990434782608696 0.05 0  2.62695652173913 0.06666666666666667 0  2.643478260869565 0.06666666666666667 0  2.66 0.06666666666666667 0  2.676521739130435 0.06666666666666667 0  2.693043478260869 0.06666666666666667 0  2.709565217391304 0.06666666666666667 0  2.726086956521739 0.06666666666666667 0  2.742608695652174 0.06666666666666667 0  2.759130434782609 0.06666666666666667 0  2.775652173913044 0.06666666666666667 0  2.792173913043478 0.06666666666666667 0  2.808695652173913 0.06666666666666667 0  2.825217391304347 0.06666666666666667 0  2.841739130434783 0.06666666666666667 0  2.858260869565217 0.06666666666666667 0  2.874782608695652 0.06666666666666667 0  2.891304347826087 0.06666666666666667 0  2.907826086956522 0.06666666666666667 0  2.924347826086957 0.06666666666666667 0  2.940869565217391 0.06666666666666667 0  2.957391304347826 0.06666666666666667 0  2.973913043478261 0.06666666666666667 0  2.990434782608696 0.06666666666666667 0  2.643478260869565 0.08333333333333333 0  2.66 0.08333333333333333 0  2.676521739130435 0.08333333333333333 0  2.693043478260869 0.08333333333333333 0  2.709565217391304 0.08333333333333333 0  2.726086956521739 0.08333333333333333 0  2.742608695652174 0.08333333333333333 0  2.759130434782609 0.08333333333333333 0  2.775652173913044 0.08333333333333333 0  2.792173913043478 0.08333333333333333 0  2.808695652173913 0.08333333333333333 0  2.825217391304347 0.08333333333333333 0  2.841739130434783 0.08333333333333333 0  2.858260869565217 0.08333333333333333 0  2.874782608695652 0.08333333333333333 0  2.891304347826087 0.08333333333333333 0  2.907826086956522 0.08333333333333333 0  2.924347826086957 0.08333333333333333 0  2.940869565217391 0.08333333333333333 0  2.957391304347826 0.08333333333333333 0  2.973913043478261 0.08333333333333333 0  2.990434782608696 0.08333333333333333 0  3.006956521739131 0.08333333333333333 0  2.66 0.1 0  2.676521739130435 0.1 0  2.693043478260869 0.1 0  2.709565217391304 0.1 0  2.726086956521739 0.1 0  2.742608695652174 0.1 0  2.759130434782609 0.1 0  2.775652173913044 0.1 0  2.792173913043478 0.1 0  2.808695652173913 0.1 0  2.825217391304347 0.1 0  2.841739130434783 0.1 0  2.858260869565217 0.1 0  2.874782608695652 0.1 0  2.891304347826087 0.1 0  2.907826086956522 0.1 0  2.924347826086957 0.1 0  2.940869565217391 0.1 0  2.957391304347826 0.1 0  2.973913043478261 0.1 0  2.990434782608696 0.1 0  3.006956521739131 0.1 0  2.676521739130435 0.1166666666666667 0  2.693043478260869 0.1166666666666667 0  2.709565217391304 0.1166666666666667 0  2.726086956521739 0.1166666666666667 0  2.742608695652174 0.1166666666666667 0  2.759130434782609 0.1166666666666667 0  2.775652173913044 0.1166666666666667 0  2.792173913043478 0.1166666666666667 0  2.808695652173913 0.1166666666666667 0  2.825217391304347 0.1166666666666667 0  2.841739130434783 0.1166666666666667 0  2.858260869565217 0.1166666666666667 0  2.874782608695652 0.1166666666666667 0  2.891304347826087 0.1166666666666667 0  2.907826086956522 0.1166666666666667 0  2.924347826086957 0.1166666666666667 0  2.940869565217391 0.1166666666666667 0  2.957391304347826 0.1166666666666667 0  2.973913043478261 0.1166666666666667 0  2.990434782608696 0.1166666666666667 0  3.006956521739131 0.1166666666666667 0  3.023478260869565 0.1166666666666667 0  2.693043478260869 0.1333333333333333 0  2.709565217391304 0.1333333333333333 0  2.726086956521739 0.1333333333333333 0  2.742608695652174 0.1333333333333333 0  2.759130434782609 0.1333333333333333 0  2.775652173913044 0.1333333333333333 0  2.792173913043478 0.1333333333333333 0  2.808695652173913 0.1333333333333333 0  2.825217391304347 0.1333333333333333 0  2.841739130434783 0.1333333333333333 0  2.858260869565217 0.1333333333333333 0  2.874782608695652 0.1333333333333333 0  2.891304347826087 0.1333333333333333 0  2.907826086956522 0.1333333333333333 0  2.924347826086957 0.1333333333333333 0  2.940869565217391 0.1333333333333333 0  2.957391304347826 0.1333333333333333 0  2.973913043478261 0.1333333333333333 0  2.990434782608696 0.1333333333333333 0  3.006956521739131 0.1333333333333333 0  3.023478260869565 0.1333333333333333 0  2.726086956521739 0.15 0  2.742608695652174 0.15 0  2.759130434782609 0.15 0  2.775652173913044 0.15 0  2.792173913043478 0.15 0  2.808695652173913 0.15 0  2.825217391304347 0.15 0  2.841739130434783 0.15 0  2.858260869565217 0.15 0  2.874782608695652 0.15 0  2.891304347826087 0.15 0  2.907826086956522 0.15 0  2.924347826086957 0.15 0  2.940869565217391 0.15 0  2.957391304347826 0.15 0  2.973913043478261 0.15 0  2.990434782608696 0.15 0  3.006956521739131 0.15 0  3.023478260869565 0.15 0  3.04 0.15 0  2.742608695652174 0.1666666666666667 0  2.759130434782609 0.1666666666666667 0  2.775652173913044 0.1666666666666667 0  2.792173913043478 0.1666666666666667 0  2.808695652173913 0.1666666666666667 0  2.825217391304347 0.1666666666666667 0  2.841739130434783 0.1666666666666667 0  2.858260869565217 0.1666666666666667 0  2.874782608695652 0.1666666666666667 0  2.891304347826087 0.1666666666666667 0  2.907826086956522 0.1666666666666667 0  2.924347826086957 0.1666666666666667 0  2.940869565217391 0.1666666666666667 0  2.957391304347826 0.1666666666666667 0  2.973913043478261 0.1666666666666667 0  2.990434782608696 0.1666666666666667 0  3.006956521739131 0.1666666666666667 0  3.023478260869565 0.1666666666666667 0  3.04 0.1666666666666667 0  3.056521739130435 0.1666666666666667 0  2.759130434782609 0.1833333333333333 0  2.775652173913044 0.1833333333333333 0  2.792173913043478 0.1833333333333333 0  2.808695652173913 0.1833333333333333 0  2.825217391304347 0.1833333333333333 0  2.841739130434783 0.1833333333333333 0  2.858260869565217 0.1833333333333333 0  2.874782608695652 0.1833333333333333 0  2.891304347826087 0.1833333333333333 0  2.907826086956522 0.1833333333333333 0  2.924347826086957 0.1833333333333333 0  2.940869565217391 0.1833333333333333 0  2.957391304347826 0.1833333333333333 0  2.973913043478261 0.1833333333333333 0  2.990434782608696 0.1833333333333333 0  3.006956521739131 0.1833333333333333 0  3.023478260869565 0.1833333333333333 0  3.04 0.1833333333333333 0  3.056521739130435 0.1833333333333333 0  3.073043478260869 0.1833333333333333 0  2.775652173913044 0.2 0  2.792173913043478 0.2 0  2.808695652173913 0.2 0  2.825217391304347 0.2 0  2.841739130434783 0.2 0  2.858260869565217 0.2 0  2.874782608695652 0.2 0  2.891304347826087 0.2 0  2.907826086956522 0.2 0  2.924347826086957 0.2 0  2.940869565217391 0.2 0  2.957391304347826 0.2 0  2.973913043478261 0.2 0  2.990434782608696 0.2 0  3.006956521739131 0.2 0  3.023478260869565 0.2 0  3.04 0.2 0  3.056521739130435 0.
[...]
<PointData  Vectors="Displacement"> 
<DataArray  type="Float64"  Name="Displacement"  NumberOfComponents="3" format="ascii">3.4541562560878658e-04 3.9442622479225120e-03 0.0000000000000000e+00  3.4658768785788695e-04 3.9788220750721489e-03 0.0000000000000000e+00  3.1187125563026936e-04 3.9783891675456004e-03 0.0000000000000000e+00  3.1046597208727147e-04 3.9438283953497017e-03 0.0000000000000000e+00  3.4774378367856022e-04 4.0131377179041250e-03 0.0000000000000000e+00  3.1328677007413084e-04 4.0127056715267119e-03 0.0000000000000000e+00  3.4888385770923976e-04 4.0471835205329980e-03 0.0000000000000000e+00  3.1471260694514793e-04 4.0467522676051375e-03 0.0000000000000000e+00  3.5000770844694249e-04 4.0809332662503145e-03 0.0000000000000000e+00  3.1614917904263635e-04 4.0805027805771903e-03 0.0000000000000000e+00  3.5111507924314957e-04 4.1143597787151268e-03 0.0000000000000000e+00  3.1759702283284963e-04 4.1139300899742087e-03 0.0000000000000000e+00  3.5220577184102465e-04 4.1474349359078696e-03 0.0000000000000000e+00  3.1905655789597217e-04 4.1470061251070601e-03 0.0000000000000000e+00  3.5327975173847574e-04 4.1801301095471151e-03 0.0000000000000000e+00  3.2052788099152081e-04 4.1797022635534937e-03 0.0000000000000000e+00  3.5433719269597081e-04 4.2124169624317065e-03 0.0000000000000000e+00  3.2201068987043927e-04 4.2119900837573072e-03 0.0000000000000000e+00  3.5537837427140439e-04 4.2442682627835439e-03 0.0000000000000000e+00  3.2350446989325073e-04 4.2438421969374319e-03 0.0000000000000000e+00  3.5640341011244448e-04 4.2756579828334713e-03 0.0000000000000000e+00  3.2500898832526668e-04 4.2752324603019991e-03 0.0000000000000000e+00  3.5741196703632230e-04 4.3065600654930338e-03 0.0000000000000000e+00  3.2652483934525299e-04 4.3061348820721277e-03 0.0000000000000000e+00  3.5840321946789858e-04 4.3369462194523725e-03 0.0000000000000000e+00  3.2805351659370106e-04 4.3365215194309074e-03 0.0000000000000000e+00  3.5937626258015923e-04 4.3667841040846648e-03 0.0000000000000000e+00  3.2959660154009799e-04 4.3663606025853598e-03 0.0000000000000000e+00  3.6033117799877905e-04 4.3960382006952266e-03 0.0000000000000000e+00  3.3115406729909165e-04 4.3956167247085993e-03 0.0000000000000000e+00  3.6126988767496560e-04 4.4246760759737982e-03 0.0000000000000000e+00  3.3272280807087874e-04 4.4242564241480644e-03 0.0000000000000000e+00  3.6219466588028991e-04 4.4526759253038749e-03 0.0000000000000000e+00  3.3429821481018105e-04 4.4522572380950483e-03 0.0000000000000000e+00  3.6310589509846379e-04 4.4800230502745394e-03 0.0000000000000000e+00  3.3587830300341480e-04 4.4796051547886812e-03 0.0000000000000000e+00  3.6400244211095379e-04 4.5066998202625101e-03 0.0000000000000000e+00  3.3746431752988985e-04 4.5062829211084390e-03 0.0000000000000000e+00  3.6488321018148862e-04 4.5326837285579024e-03 0.0000000000000000e+00  3.3905813616073285e-04 4.5322676116166952e-03 0.0000000000000000e+00  3.6574775045030165e-04 4.5579494014953243e-03 0.0000000000000000e+00  3.4066217231848981e-04 4.5575334362857149e-03 0.0000000000000000e+00  3.6659577347927140e-04 4.5824693729414698e-03 0.0000000000000000e+00  3.4227944598346009e-04 4.5820528932128722e-03 0.0000000000000000e+00  3.6742626699724166e-04 4.6062145989442188e-03 0.0000000000000000e+00  3.4391237900091354e-04 4.6057967846467873e-03 0.0000000000000000e+00  3.6823595847667033e-04 4.6291509257369188e-03 0.0000000000000000e+00  3.4556486671706257e-04 4.6287330743178222e-03 0.0000000000000000e+00  3.6902025999770708e-04 4.6512250444162018e-03 0.0000000000000000e+00  3.4724208799036954e-04 4.6508142022094840e-03 0.0000000000000000e+00  2.7705008334196716e-04 3.9779134411268994e-03 0.0000000000000000e+00  2.7871497794930032e-04 4.0122255482718154e-03 0.0000000000000000e+00  2.8041366623608781e-04 4.0462677053180731e-03 0.0000000000000000e+00  2.8214820677927444e-04 4.0800136855122481e-03 0.0000000000000000e+00  2.8392164154647374e-04 4.1134363390544146e-03 0.0000000000000000e+00  2.8573685820597723e-04 4.1465076026473155e-03 0.0000000000000000e+00  2.8759549327028391e-04 4.1791989077538619e-03 0.0000000000000000e+00  2.8949658273678383e-04 4.2114819291962941e-03 0.0000000000000000e+00  2.9143577327616043e-04 4.2433293681845884e-03 0.0000000000000000e+00  2.9340734485834612e-04 4.2747150765482713e-03 0.0000000000000000e+00  2.9540948776709142e-04 4.3056129290369770e-03 0.0000000000000000e+00  2.9744865170926301e-04 4.3359947663822477e-03 0.0000000000000000e+00  2.9954010064060218e-04 4.3658285835521098e-03 0.0000000000000000e+00  3.0170202530266344e-04 4.3950789665719390e-03 0.0000000000000000e+00  3.0393013841482577e-04 4.4237131677739129e-03 0.0000000000000000e+00  3.0617707566179549e-04 4.4517094964833092e-03 0.0000000000000000e+00  3.0841213241077553e-04 4.4790535011092914e-03 0.0000000000000000e+00  3.1066030950966441e-04 4.5057277588216715e-03 0.0000000000000000e+00  3.1294451285625720e-04 4.5317090086399057e-03 0.0000000000000000e+00  3.1526910197198030e-04 4.5569707812635543e-03 0.0000000000000000e+00  3.1763167615045742e-04 4.5814855172705126e-03 0.0000000000000000e+00  3.2002485233908876e-04 4.6052248560317010e-03 0.0000000000000000e+00  3.2244608553071526e-04 4.6281563559903340e-03 0.0000000000000000e+00  3.2497361905668221e-04 4.6502300868945497e-03 0.0000000000000000e+00  2.6366112381772186e-04 4.0039094582171499e-03 0.0000000000000000e+00  2.6547947062648889e-04 4.0382343590002591e-03 0.0000000000000000e+00  2.6730215247048727e-04 4.0722662235891391e-03 0.0000000000000000e+00  2.6913064147781820e-04 4.1059752598632737e-03 0.0000000000000000e+00  2.7096678209921718e-04 4.1393312483734464e-03 0.0000000000000000e+00  2.7281231610886526e-04 4.1723038460381758e-03 0.0000000000000000e+00  2.7466859037595200e-04 4.2048630664043895e-03 0.0000000000000000e+00  2.7653672976853366e-04 4.2369795150553466e-03 0.0000000000000000e+00  2.7841856192432137e-04 4.2686238849316957e-03 0.0000000000000000e+00  2.8031802093446054e-04 4.2997659134364798e-03 0.0000000000000000e+00  2.8224188763213221e-04 4.3303737967121279e-03 0.0000000000000000e+00  2.8419861610709166e-04 4.3604146995873090e-03 0.0000000000000000e+00  2.8619467405455266e-04 4.3898573419059866e-03 0.0000000000000000e+00  2.8822938209458046e-04 4.4186776807696752e-03 0.0000000000000000e+00  2.9029410148778044e-04 4.4468594186574300e-03 0.0000000000000000e+00  2.9238178573048478e-04 4.4743811244557204e-03 0.0000000000000000e+00  2.9449507039145057e-04 4.5012164201771575e-03 0.0000000000000000e+00  2.9664052071838424e-04 4.5273458467230800e-03 0.0000000000000000e+00  2.9882056962840200e-04 4.5527522857915738e-03 0.0000000000000000e+00  3.0103192261125660e-04 4.5774172080856393e-03 0.0000000000000000e+00  3.0326737103020626e-04 4.6013200513377490e-03 0.0000000000000000e+00  3.0551773592549144e-04 4.6244360629623818e-03 0.0000000000000000e+00  3.0777032308046713e-04 4.6467312510439359e-03 0.0000000000000000e+00  3.0998424261328788e-04 4.6681939954308915e-03 0.0000000000000000e+00  2.4993233212375836e-04 4.0302341681932828e-03 0.0000000000000000e+00  2.5183433601163425e-04 4.0645823184529721e-03 0.0000000000000000e+00  2.5371330635984280e-04 4.0986088417511446e-03 0.0000000000000000e+00  2.5557099582878179e-04 4.1322807902866533e-03 0.0000000000000000e+00  2.5740992505425173e-04 4.1655650973123886e-03 0.0000000000000000e+00  2.5923341284990340e-04 4.1984288849309546e-03 0.0000000000000000e+00  2.6104577874432505e-04 4.2308395679454061e-03 0.0000000000000000e+00  2.6285265569790406e-04 4.2627645579051358e-03 0.0000000000000000e+00  2.6466113883182046e-04 4.2941708531433493e-03 0.0000000000000000e+00  2.6647940039773734e-04 4.3250252227973046e-03 0.0000000000000000e+00  2.6831556886671001e-04 4.3552954131961625e-03 0.0000000000000000e+00  2.7017609005906080e-04 4.3849525380597904e-03 0.0000000000000000e+00  2.7206458812216124e-04 4.4139739547635346e-03 0.0000000000000000e+00  2.7398265784365057e-04 4.4423419647368380e-03 0.0000000000000000e+00  2.7593171420912959e-04 4.4700365254973463e-03 0.0000000000000000e+00  2.7791278341732668e-04 4.4970356543674109e-03 0.0000000000000000e+00  2.7992498227271697e-04 4.5233229852569374e-03 0.0000000000000000e+00  2.8196403700561927e-04 4.5488873140079556e-03 0.0000000000000000e+00  2.8401959205492656e-04 4.5737200898602207e-03 0.0000000000000000e+00  2.8607414951871716e-04 4.5978117081677226e-03 0.0000000000000000e+00  2.8809994667527067e-04 4.6211541591062400e-03 0.0000000000000000e+00  2.9005065284555884e-04 4.6437469250523548e-03 0.0000000000000000e+00  2.9185163602321389e-04 4.6656212587817287e-03 0.0000000000000000e+00  2.3577254454144232e-04 4.0569661218870928e-03 0.0000000000000000e+00  2.3769721649647029e-04 4.0913394781370944e-03 0.0000000000000000e+00  2.3957544402822295e-04 4.1253565146703725e-03 0.0000000000000000e+00  2.4141061025913176e-04 4.1589807988633562e-03 0.0000000000000000e+00  2.4320762767319991e-04 4.1921759071035280e-03 0.0000000000000000e+00  2.4497306145814971e-04 4.2249056395843396e-03 0.0000000000000000e+00  2.4671513190310243e-04 4.2571340916521226e-03 0.0000000000000000e+00  2.4844343125075575e-04 4.2888258013000103e-03 0.0000000000000000e+00  2.5016825514112442e-04 4.3199463662312110e-03 0.0000000000000000e+00  2.5189963697370093e-04 4.3504637189483537e-03 0.0000000000000000e+00  2.5364639385456968e-04 4.3803498952317945e-03 0.0000000000000000e+00  2.5541568218328918e-04 4.4095824276342904e-03 0.0000000000000000e+00  2.5721327691741164e-04 4.4381431528822870e-03 0.0000000000000000e+00  2.5904345879313167e-04 4.4660147995772073e-03 0.0000000000000000e+00  2.6090735987979562e-04 4.4931815892710440e-03 0.0000000000000000e+00  2.6280120027192047e-04 4.5196332536864116e-03 0.0000000000000000e+00  2.6471515223283815e-04 4.5453659364527981e-03 0.0000000000000000e+00  2.6663083982709194e-04 4.5703826270596945e-03 0.0000000000000000e+00  2.6852221102604873e-04 4.5946853724511804e-03 0.0000000000000000e+00  2.7035141618941182e-04 4.6182845756160117e-03 0.0000000000000000e+00  2.7205935933969798e-04 4.6412090512090434e-03 0.0000000000000000e+00  2.7356136942482061e-04 4.6635113375929210e-03 0.0000000000000000e+00  2.7477833937865147e-04 4.6852536503366200e-03 0.0000000000000000e+00  2.2110131131678162e-04 4.0841702616657644e-03 0.0000000000000000e+00  2.2299740983410186e-04 4.1185604680569520e-03 0.0000000000000000e+00  2.2482891681903350e-04 4.1525520667690342e-03 0.0000000000000000e+00  2.2660209276253326e-04 4.1861045927512469e-03 0.0000000000000000e+00  2.2832537929959838e-04 4.2191778557478764e-03 0.0000000000000000e+00  2.3000926917945611e-04 4.2517323910294504e-03 0.0000000000000000e+00  2.3166586260285970e-04 4.2837300516265792e-03 0.0000000000000000e+00  2.3330809590055201e-04 4.3151349119270894e-03 0.0000000000000000e+00  2.3494877003753763e-04 4.3459145052015856e-03 0.0000000000000000e+00  2.3659963604887957e-04 4.3760411433269794e-03 0.0000000000000000e+00  2.3827082747343391e-04 4.4054926854264964e-03 0.0000000000000000e+00  2.3997069618903716e-04 4.4342517488426348e-03 0.0000000000000000e+00  2.4170520729462126e-04 4.4623044260926337e-03 0.0000000000000000e+00  2.4347611328485994e-04 4.4896412662009094e-03 0.0000000000000000e+00  2.4527856419918458e-04 4.5162597310021381e-03 0.0000000000000000e+00  2.4709888185826015e-04 4.5421654223442914e-03 0.0000000000000000e+00  2.4891076412148611e-04 4.5673754224190722e-03 0.0000000000000000e+00  2.5068300516422454e-04 4.5918989384765817e-03 0.0000000000000000e+00  2.5237707478197177e-04 4.6157625306417214e-03 0.0000000000000000e+00  2.5393123412616696e-04 4.6390236813066100e-03 0.0000000000000000e+00  2.5525742996475575e-04 4.6617557002117376e-03 0.0000000000000000e+00  2.5628625610035625e-04 4.6839484995861635e-03 0.0000000000000000e+00  2.0584700782639106e-04 4.1118962467470007e-03 0.0000000000000000e+00  2.0767275186528395e-04 4.1462822966838887e-03 0.0000000000000000e+00  2.0942191755476299e-04 4.1802182366095890e-03 0.0000000000000000e+00  2.1110471949426976e-04 4.2136593678195637e-03 0.0000000000000000e+00  2.1273398120021792e-04 4.2465621639982297e-03 0.0000000000000000e+00  2.1432463089299131e-04 4.2788852740105899e-03 0.0000000000000000e+00  2.1589282698264889e-04 4.3105907134144278e-03 0.0000000000000000e+00  2.1745479857892099e-04 4.3416451617582143e-03 0.0000000000000000e+00  2.1902561167856787e-04 4.3720210680515828e-03 0.0000000000000000e+00  2.2061818150835512e-04 4.4016970946021104e-03 0.0000000000000000e+00  2.2224297939601179e-04 4.4306573047310392e-03 0.0000000000000000e+00  2.2390781045021439e-04 4.4588910756583455e-03 0.0000000000000000e+00  2.2561639851235733e-04 4.4863950417303117e-03 0.0000000000000000e+00  2.2736515436553179e-04 4.5131756878738181e-03 0.0000000000000000e+00  2.2913824893082822e-04 4.5392506612312198e-03 0.0000000000000000e+00  2.3089890156720026e-04 4.5646571796555471e-03 0.0000000000000000e+00  2.3261115930995179e-04 4.5893990781459880e-03 0.0000000000000000e+00  2.3424069609054190e-04 4.6135114149723324e-03 0.0000000000000000e+00  2.3573454688159324e-04 4.6370944864869510e-03 0.0000000000000000e+00  2.3698856132594361e-04 4.6602499257839842e-03 0.0000000000000000e+00  2.3799630805187210e-04 4.6828801554848615e-03 0.0000000000000000e+00  2.3866150201512225e-04 4.7049167222756264e-03 0.0000000000000000e+00  1.8994394520832768e-04 4.1401768145077318e-03 0.0000000000000000e+00  1.9166654369938446e-04 4.1745225646513820e-03 0.0000000000000000e+00  1.9330775860812238e-04 4.2083561070499313e-03 0.0000000000000000e+00  1.9488297428531980e-04 4.2416290559376523e-03 0.0000000000000000e+00  1.9641048151409330e-04 4.2742960538174352e-03 0.0000000000000000e+00  1.9791048465515843e-04 4.3063163717747361e-03 0.0000000000000000e+00  1.9940359034274757e-04 4.3376554944796119e-03 0.0000000000000000e+00  2.0090892959231219e-04 4.3682862660197781e-03 0.0000000000000000e+00  2.0244237570617925e-04 4.3981890002539690e-03 0.0000000000000000e+00  2.0401618763965463e-04 4.4273494591587853e-03 0.0000000000000000e+00  2.0563995558525882e-04 4.4557590817220997e-03 0.0000000000000000e+00  2.0732113891299905e-04 4.4834190733073487e-03 0.0000000000000000e+00  2.0906163142025242e-04 4.5103457321816129e-03 0.0000000000000000e+00  2.1084810853771942e-04 4.5365743114639326e-03 0.0000000000000000e+00  2.1262458131524197e-04 4.5621783935875411e-03 0.0000000000000000e+00  2.1434965143453453e-04 4.5871327306856316e-03 0.0000000000000000e+00  2.1598284327940145e-04 4.6114670786670314e-03 0.0000000000000000e+00  2.1746266418266544e-04 4.6353343865376678e-03 0.0000000000000000e+00  2.1870748026655228e-04 4.6589706466507912e-03 0.0000000000000000e+00  2.1964594319432996e-04 4.6819368049737407e-03 0.0000000000000000e+00  2.2056293813488021e-04 4.7046355542071259e-03 0.0000000000000000e+00  1.7492570140328025e-04 4.2032768761232605e-03 0.0000000000000000e+00  1.7644435201162137e-04 4.2369420184176420e-03 0.0000000000000000e+00  1.7790814116819300e-04 4.2699704916776791e-03 0.0000000000000000e+00  1.7934248295584007e-04 4.3023178267291226e-03 0.0000000000000000e+00  1.8077386822275206e-04 4.3339479289130249e-03 0.0000000000000000e+00  1.8222696223745105e-04 4.3648347059148428e-03 0.0000000000000000e+00  1.8372137980074318e-04 4.3949618845223071e-03 0.0000000000000000e+00  1.8527103171737567e-04 4.4243176827099898e-03 0.0000000000000000e+00  1.8688583992409826e-04 4.4528932151604817e-03 0.0000000000000000e+00  1.8857655558470558e-04 4.4806888192963348e-03 0.0000000000000000e+00  1.9035721572028316e-04 4.5077282800683243e-03 0.0000000000000000e+00  1.9222790299819271e-04 4.5340717286373603e-03 0.0000000000000000e+00  1.9410764215433744e-04 4.5598822121360244e-03 0.0000000000000000e+00  1.9593285355123849e-04 4.5850372536064363e-03 0.0000000000000000e+00  1.9767393587722897e-04 4.6095930096276914e-03 0.0000000000000000e+00  1.9911715193725324e-04 4.6337546096951289e-03 0.0000000000000000e+00  2.0007321557859650e-04 4.6578931527820472e-03 0.0000000000000000e+00  2.0110034347886911e-04 4.6816606801860445e-03 0.0000000000000000e+00  2.0036916083996726e-04 4.7042836248635204e-03 0.0000000000000000e+00  1.9996243305660615e-04 4.7260059861264202e-03 0.0000000000000000e+00  1.5740047923549396e-04 4.2325139125483002e-03 0.0000000000000000e+00  1.5879594614903297e-04 4.2659211352283240e-03 0.0000000000000000e+00  1.6016281499665999e-04 4.2986054323778302e-03 0.0000000000000000e+00  1.6153570595142517e-04 4.3305283936834454e-03 0.0000000000000000e+00  1.6294727991578994e-04 4.3616660133496384e-03 0.0000000000000000e+00  1.6442263382158957e-04 4.3920087874227600e-03 0.0000000000000000e+00  1.6597836197309069e-04 4.4215495980744592e-03 0.0000000000000000e+00  1.6762419656399084e-04 4.4502789472189519e-03 0.0000000000000000e+00  1.6936644962968332e-04 4.4781852430319903e-03 0.0000000000000000e+00  1.7123027936111117e-04 4.5052811529998722e-03 0.0000000000000000e+00  1.7326039428743279e-04 4.5316606620641880e-03 0.0000000000000000e+00  1.7532476240483361e-04 4.5576756855165842e-03 0.0000000000000000e+00  1.7744557639834976e-04 4.5830553676378168e-03 0.0000000000000000e+00  1.7935694848972034e-04 4.6077360502381941e-03 0.0000000000000000e+00  1.8104186696953970e-04 4.6325880088392713e-03 0.0000000000000000e+00  1.8082614054170629e-04 4.6576403401242484e-03 0.0000000000000000e+00  1.8006043273544623e-04 4.6813020157223132e-03 0.0000000000000000e+00  1.7959507131375425e-04 4.7040005099075943e-03 0.0000000000000000e+00  1.7928316045186232e-04 4.7258166192589678e-03 0.0000000000000000e+00  1.7914690569330056e-04 4.7469162063978115e-03 0.0000000000000000e+00  1.3904585242669541e-04 4.2621663297180198e-03 0.0000000000000000e+00  1.4033762941995028e-04 4.2951957474176069e-03 0.0000000000000000e+00  1.4164929446074053e-04 4.3274081918833413e-03 0.0000000000000000e+00  1.4302512731259747e-04 4.3587830359649001e-03 0.0000000000000000e+00  1.4449802624171254e-04 4.3893231375566350e-03 0.0000000000000000e+00  1.4609054072067907e-04 4.4190295894080698e-03 0.0000000000000000e+00  1.4781542802724489e-04 4.4478949643028025e-03 0.0000000000000000e+00  1.4967660641033659e-04 4.4759013648770583e-03 0.0000000000000000e+00  1.5165753923008959e-04 4.5029968729732419e-03 0.0000000000000000e+00  1.5384709669675049e-04 4.5292606900772881e-03 0.0000000000000000e+00  1.5608940752522007e-04 4.5555809673643788e-03 0.0000000000000000e+00  1.5833798395011931e-04 4.5810367714070105e-03 0.0000000000000000e+00  1.6077363302244388e-04 4.6067477839740927e-03 0.0000000000000000e+00  1.5952429168147926e-04 4.6324278509680388e-03 0.0000000000000000e+00  1.5877808054705198e-04 4.6572770738508911e-03 0.0000000000000000e+00  1.5828862641943856e-04 4.6810381628360201e-03 0.0000000000000000e+00  1.5797837872771607e-04 4.7038247300260540e-03 0.0000000000000000e+00  1.5788628750634755e-04 4.7257814826714567e-03 0.0000000000000000e+00  1.5792364078935731e-04 4.7469710504752603e-03 0.0000000000000000e+00  1.5805169197656324e-04 4.7675390259900733e-03 0.0000000000000000e+00  1.1982571098384821e-04 4.2921140785339550e-03 0.0000000000000000e+00  1.2106486795466770e-04 4.3246069438665326e-03 0.0000000000000000e+00  1.2240230935541720e-04 4.3561947739472629e-03 0.0000000000000000e+00  1.2388069099301743e-04 4.3869029572615910e-03 0.0000000000000000e+00  1.2553148385670878e-04 4.4167410470505779e-03 0.0000000000000000e+00  1.2738433313024097e-04 4.4457095765308386e-03 0.0000000000000000e+00  1.2944739818533094e-04 4.4737880110681093e-03 0.0000000000000000e+00  1.3172680177793601e-04 4.5009587863399413e-03 0.0000000000000000e+00  1.3391055812734075e-04 4.5269476114905690e-03 0.0000000000000000e+00  1.3567698166235106e-04 4.5537461232749397e-03 0.0000000000000000e+00  1.3785144871942935e-04 4.5800532730697584e-03 0.0000000000000000e+00  1.3681394632916933e-04 4.6064978337193056e-03 0.0000000000000000e+00  1.3638173745126559e-04 4.6320104762311489e-03 0.0000000000000000e+00  1.3583687206132963e-04 4.6570183780182545e-03 0.0000000000000000e+00  1.3557312899644918e-04 4.6808927498876414e-03 0.0000000000000000e+