<?xml version="1.0"?>
<VTKFile type="UnstructuredGrid"  version="0.1"  >
<UnstructuredGrid>
<Piece  NumberOfPoints="28121" NumberOfCells="55200">
<Points>
<DataArray  type="Float64"  NumberOfComponents="3"  format="ascii">0 0 0  0.008260869565217391 0 0  0.01652173913043478 0 0  0.02478260869565217 0 0  0.03304347826086956 0 0  0.04130434782608695 0 0  0.04956521739130434 0 0  0.05782608695652174 0 0  0.06608695652173913 0 0  0.07434782608695652 0 0  0.08260869565217391 0 0  0.0908695652173913 0 0  0.09913043478260869 0 0  0.1073913043478261 0 0  0.1156521739130435 0 0  0.1239130434782609 0 0  0.1321739130434783 0 0  0.1404347826086956 0 0  0.148695652173913 0 0  0.1569565217391304 0 0  0.1652173913043478 0 0  0.1734782608695652 0 0  0.1817391304347826 0 0  0.19 0 0  0.1982608695652174 0 0  0.2065217391304348 0 0  0.2147826086956522 0 0  0.2230434782608696 0 0  0.2313043478260869 0 0  0.2395652173913043 0 0  0.2478260869565218 0 0  0.2560869565217391 0 0  0.2643478260869565 0 0  0.2726086956521739 0 0  0.2808695652173913 0 0  0.2891304347826087 0 0  0.2973913043478261 0 0  0.3056521739130434 0 0  0.3139130434782609 0 0  0.3221739130434783 0 0  0.3304347826086956 0 0  0.338695652173913 0 0  0.3469565217391304 0 0  0.3552173913043478 0 0  0.3634782608695652 0 0  0.3717391304347826 0 0  0.3799999999999999 0 0  0.3882608695652174 0 0  0.3965217391304348 0 0  0.4047826086956521 0 0  0.4130434782608696 0 0  0.4213043478260869 0 0  0.4295652173913043 0 0  0.4378260869565217 0 0  0.4460869565217391 0 0  0.4543478260869565 0 0  0.4626086956521739 0 0  0.4708695652173913 0 0  0.4791304347826086 0 0  0.4873913043478261 0 0  0.4956521739130435 0 0  0.5039130434782608 0 0  0.5121739130434783 0 0  0.5204347826086956 0 0  0.528695652173913 0 0  0.5369565217391304 0 0  0.5452173913043478 0 0  0.5534782608695652 0 0  0.5617391304347825 0 0  0.57 0 0  0.5782608695652174 0 0  0.5865217391304348 0 0  0.5947826086956521 0 0  0.6030434782608696 0 0  0.6113043478260869 0 0  0.6195652173913043 0 0  0.6278260869565218 0 0  0.6360869565217391 0 0  0.6443478260869565 0 0  0.6526086956521739 0 0  0.6608695652173913 0 0  0.6691304347826087 0 0  0.677391304347826 0 0  0.6856521739130435 0 0  0.6939130434782609 0 0  0.7021739130434783 0 0  0.7104347826086956 0 0  0.718695652173913 0 0  0.7269565217391304 0 0  0.7352173913043478 0 0  0.7434782608695653 0 0  0.7517391304347827 0 0  0.7599999999999999 0 0  0.7682608695652173 0 0  0.7765217391304348 0 0  0.7847826086956522 0 0  0.7930434782608695 0 0  0.8013043478260868 0 0  0.8095652173913043 0 0  0.8178260869565217 0 0  0.8260869565217391 0 0  0.8343478260869565 0 0  0.8426086956521739 0 0  0.8508695652173912 0 0  0.8591304347826086 0 0  0.8673913043478261 0 0  0.8756521739130434 0 0  0.8839130434782608 0 0  0.8921739130434783 0 0  0.9004347826086956 0 0  0.908695652173913 0 0  0.9169565217391303 0 0  0.9252173913043478 0 0  0.9334782608695652 0 0  0.9417391304347826 0 0  0.95 0 0  0.9582608695652173 0 0  0.9665217391304347 0 0  0.9747826086956521 0 0  0.9830434782608696 0 0  0.991304347826087 0 0  0.9995652173913042 0 0  1.007826086956522 0 0  1.016086956521739 0 0  1.024347826086957 0 0  1.032608695652174 0 0  1.040869565217391 0 0  1.049130434782609 0 0  1.057391304347826 0 0  1.065652173913043 0 0  1.073913043478261 0 0  1.082173913043478 0 0  1.090434782608696 0 0  1.098695652173913 0 0  1.10695652173913 0 0  1.115217391304348 0 0  1.123478260869565 0 0  1.131739130434783 0 0  1.14 0 0  1.148260869565217 0 0  1.156521739130435 0 0  1.164782608695652 0 0  1.17304347826087 0 0  1.181304347826087 0 0  1.189565217391304 0 0  1.197826086956522 0 0  1.206086956521739 0 0  1.214347826086956 0 0  1.222608695652174 0 0  1.230869565217391 0 0  1.239130434782609 0 0  1.247391304347826 0 0  1.255652173913044 0 0  1.263913043478261 0 0  1.272173913043478 0 0  1.280434782608696 0 0  1.288695652173913 0 0  1.296956521739131 0 0  1.305217391304348 0 0  1.313478260869565 0 0  1.321739130434783 0 0  1.33 0 0  1.338260869565217 0 0  1.346521739130435 0 0  1.354782608695652 0 0  1.36304347826087 0 0  1.371304347826087 0 0  1.379565217391304 0 0  1.387826086956522 0 0  1.396086956521739 0 0  1.404347826086957 0 0  1.412608695652174 0 0  1.420869565217391 0 0  1.429130434782609 0 0  1.437391304347826 0 0  1.445652173913043 0 0  1.453913043478261 0 0  1.462173913043478 0 0  1.470434782608696 0 0  1.478695652173913 0 0  1.486956521739131 0 0  1.495217391304348 0 0  1.503478260869565 0 0  1.511739130434782 0 0  1.52 0 0  1.528260869565217 0 0  1.536521739130435 0 0  1.544782608695652 0 0  1.55304347826087 0 0  1.561304347826087 0 0  1.569565217391304 0 0  1.577826086956522 0 0  1.586086956521739 0 0  1.594347826086957 0 0  1.602608695652174 0 0  1.610869565217391 0 0  1.619130434782609 0 0  1.627391304347826 0 0  1.635652173913043 0 0  1.643913043478261 0 0  1.652173913043478 0 0  1.660434782608696 0 0  1.668695652173913 0 0  1.67695652173913 0 0  1.685217391304348 0 0  1.693478260869565 0 0  1.701739130434782 0 0  1.71 0 0  1.718260869565217 0 0  1.726521739130435 0 0  1.734782608695652 0 0  1.743043478260869 0 0  1.751304347826087 0 0  1.759565217391304 0 0  1.767826086956522 0 0  1.776086956521739 0 0  1.784347826086957 0 0  1.792608695652174 0 0  1.800869565217391 0 0  1.809130434782608 0 0  1.817391304347826 0 0  1.825652173913043 0 0  1.833913043478261 0 0  1.842173913043478 0 0  1.850434782608696 0 0  1.858695652173913 0 0  1.86695652173913 0 0  1.875217391304348 0 0  1.883478260869565 0 0  1.891739130434782 0 0  1.9 0 0  1.908260869565217 0 0  1.916521739130435 0 0  1.924782608695652 0 0  1.933043478260869 0 0  1.941304347826087 0 0  1.949565217391304 0 0  1.957826086956522 0 0  1.966086956521739 0 0  1.974347826086956 0 0  1.982608695652174 0 0  1.990869565217391 0 0  1.999130434782608 0 0  2.007391304347826 0 0  2.015652173913043 0 0  2.023913043478261 0 0  2.032173913043478 0 0  2.040434782608695 0 0  2.048695652173913 0 0  2.05695652173913 0 0  2.065217391304348 0 0  2.073478260869565 0 0  2.081739130434782 0 0  2.09 0 0  2.098260869565217 0 0  2.106521739130435 0 0  2.114782608695652 0 0  2.12304347826087 0 0  2.131304347826087 0 0  2.139565217391304 0 0  2.147826086956522 0 0  2.156086956521739 0 0  2.164347826086956 0 0  2.172608695652174 0 0  2.180869565217391 0 0  2.189130434782609 0 0  2.197391304347826 0 0  2.205652173913043 0 0  2.213913043478261 0 0  2.222173913043478 0 0  2.230434782608695 0 0  2.238695652173913 0 0  2.24695652173913 0 0  2.255217391304348 0 0  2.263478260869565 0 0  2.271739130434783 0 0  2.28 0 0  2.288260869565217 0 0  2.296521739130434 0 0  2.304782608695652 0 0  2.31304347826087 0 0  2.321304347826087 0 0  2.329565217391304 0 0  2.337826086956521 0 0  2.346086956521739 0 0  2.354347826086956 0 0  2.362608695652174 0 0  2.370869565217391 0 0  2.379130434782609 0 0  2.387391304347826 0 0  2.395652173913044 0 0  2.403913043478261 0 0  2.412173913043478 0 0  2.420434782608695 0 0  2.428695652173913 0 0  2.43695652173913 0 0  2.445217391304348 0 0  2.453478260869565 0 0  2.461739130434782 0 0  2.47 0 0  2.478260869565217 0 0  2.486521739130435 0 0  2.494782608695652 0 0  2.503043478260869 0 0  2.511304347826087 0 0  2.519565217391305 0 0  2.527826086956522 0 0  2.536086956521739 0 0  2.544347826086956 0 0  2.552608695652174 0 0  2.560869565217391 0 0  2.569130434782608 0 0  2.577391304347826 0 0  2.585652173913043 0 0  2.593913043478261 0 0  2.602173913043478 0 0  2.610434782608696 0 0  2.618695652173913 0 0  2.62695652173913 0 0  2.635217391304348 0 0  2.643478260869565 0 0  2.651739130434783 0 0  2.66 0 0  2.668260869565217 0 0  2.676521739130435 0 0  2.684782608695652 0 0  2.693043478260869 0 0  2.701304347826087 0 0  2.709565217391304 0 0  2.717826086956522 0 0  2.726086956521739 0 0  2.734347826086956 0 0  2.742608695652174 0 0  2.750869565217391 0 0  2.759130434782609 0 0  2.767391304347826 0 0  2.775652173913044 0 0  2.783913043478261 0 0  2.792173913043478 0 0  2.800434782608696 0 0  2.808695652173913 0 0  2.81695652173913 0 0  2.825217391304347 0 0  2.833478260869565 0 0  2.841739130434783 0 0  2.85 0 0  2.858260869565217 0 0  2.866521739130435 0 0  2.874782608695652 0 0  2.88304347826087 0 0  2.891304347826087 0 0  2.899565217391304 0 0  2.907826086956522 0 0  2.916086956521739 0 0  2.924347826086957 0 0  2.932608695652174 0 0  2.940869565217391 0 0  2.949130434782608 0 0  2.957391304347826 0 0  2.965652173913043 0 0  2.973913043478261 0 0  2.982173913043478 0 0  2.990434782608696 0 0  2.998695652173913 0 0  3.006956521739131 0 0  3.015217391304348 0 0  3.023478260869565 0 0  3.031739130434782 0 0  3.04 0 0  3.048260869565218 0 0  3.056521739130435 0 0  3.064782608695652 0 0  3.073043478260869 0 0  3.081304347826087 0 0  3.089565217391304 0 0  3.097826086956522 0 0  3.106086956521739 0 0  3.114347826086956 0 0  3.122608695652174 0 0  3.130869565217391 0 0  3.139130434782609 0 0  3.147391304347826 0 0  3.155652173913043 0 0  3.163913043478261 0 0  3.172173913043478 0 0  3.180434782608696 0 0  3.188695652173913 0 0  3.19695652173913 0 0  3.205217391304347 0 0  3.213478260869565 0 0  3.221739130434782 0 0  3.23 0 0  3.238260869565217 0 0  3.246521739130435 0 0  3.254782608695652 0 0  3.26304347826087 0 0  3.271304347826087 0 0  3.279565217391304 0 0  3.287826086956521 0 0  3.296086956521739 0 0  3.304347826086957 0 0  3.312608695652174 0 0  3.320869565217391 0 0  3.329130434782608 0 0  3.337391304347826 0 0  3.345652173913043 0 0  3.353913043478261 0 0  3.362173913043478 0 0  3.370434782608696 0 0  3.378695652173913 0 0  3.386956521739131 0 0  3.395217391304348 0 0  3.403478260869565 0 0  3.411739130434782 0 0  3.419999999999999 0 0  3.428260869565217 0 0  3.436521739130435 0 0  3.444782608695652 0 0  3.453043478260869 0 0  3.461304347826087 0 0  3.469565217391304 0 0  3.477826086956522 0 0  3.486086956521739 0 0  3.494347826086956 0 0  3.502608695652174 0 0  3.510869565217391 0 0  3.519130434782609 0 0  3.527391304347826 0 0  3.535652173913043 0 0  3.54391304347826
[...]
<PointData  Scalars="rho_bar"> 
<DataArray  type="Float64"  Name="rho_bar"  format="ascii">7.2942241633081961e-01  7.2903529777587250e-01  7.2874342753636479e-01  7.2842458621754580e-01  7.2804443521523377e-01  7.2759167439733818e-01  7.2706379762756734e-01  7.2646082907713949e-01  7.2578534899161551e-01  7.2504081844281065e-01  7.2423201707663032e-01  7.2336420879606222e-01  7.2244353418443141e-01  7.2147638102859635e-01  7.2046980175457309e-01  7.1943088152572376e-01  7.1836723979797312e-01  7.1728627364719855e-01  7.1619582951571692e-01  7.1510336160107502e-01  7.1401664034736867e-01  7.1294297589044797e-01  7.1188988904714856e-01  7.1086418751039449e-01  7.0987275609043599e-01  7.0892160932605042e-01  7.0801671695351798e-01  7.0716301399018877e-01  7.0636525003584028e-01  7.0562716787177537e-01  7.0495224114110699e-01  7.0434282000644244e-01  7.0380096495889377e-01  7.0332762470536569e-01  7.0292348521136772e-01  7.0258810225548340e-01  7.0232081424605186e-01  7.0212005925870002e-01  7.0198415670009728e-01  7.0191055173248618e-01  7.0189669541070943e-01  7.0193930746273847e-01  7.0203520983472578e-01  7.0218049811773042e-01  7.0237139661285797e-01  7.0260355829567944e-01  7.0287274444935066e-01  7.0317404222208524e-01  7.0350261710270845e-01  7.0385290606708373e-01  7.0421938699484299e-01  7.0459569610455308e-01  7.0497548824021938e-01  7.0535171815992337e-01  7.0571741406016053e-01  7.0606496232631810e-01  7.0638699872856225e-01  7.0667575518205306e-01  7.0692398682826318e-01  7.0712430261138814e-01  7.0727016337649917e-01  7.0735537581528973e-01  7.0737496939527778e-01  7.0732460916760487e-01  7.0720150308220964e-01  7.0700373366942326e-01  7.0673105931108904e-01  7.0638412451143551e-01  7.0596512640204567e-01  7.0547700722438000e-01  7.0492394287518911e-01  7.0431036671251612e-01  7.0364149010044452e-01  7.0292232949669120e-01  7.0215827473714654e-01  7.0135408565120005e-01  7.0051461315411734e-01  6.9964395680238267e-01  6.9874608823312634e-01  6.9782392906770108e-01  6.9688006364884780e-01  6.9591583691183434e-01  6.9493216887528608e-01  6.9392877125299435e-01  6.9290507503537513e-01  6.9185967584318253e-01  6.9079121209266192e-01  6.8969772507617966e-01  6.8857757718141221e-01  6.8742879856561268e-01  6.8624999941624343e-01  6.8503958536127496e-01  6.8379673496186977e-01  6.8252071774387224e-01  6.8121170657872865e-01  6.7987001296344818e-01  6.7849684619255723e-01  6.7709345077144811e-01  6.7566178395829191e-01  6.7420360572255489e-01  6.7272118181418994e-01  6.7121654358796745e-01  6.6969215804920790e-01  6.6815016272106054e-01  6.6659312802813875e-01  6.6502331740644260e-01  6.6344344843091585e-01  6.6185579493695068e-01  6.6026302883288601e-01  6.5866740960319481e-01  6.5707150139881787e-01  6.5547735417837960e-01  6.5388728651130790e-01  6.5230308595345776e-01  6.5072681112574515e-01  6.4915999789825063e-01  6.4760446477109224e-01  6.4606165291450002e-01  6.4453337172918324e-01  6.4302110324068362e-01  6.4152683738243288e-01  6.4005239234529943e-01  6.3860027932295227e-01  6.3717289371653152e-01  6.3577342411379523e-01  6.3440506447976075e-01  6.3307171210962476e-01  6.3177705119705285e-01  6.3052519306196209e-01  6.2931965321631156e-01  6.2816402548629124e-01  6.2706104591294631e-01  6.2601330632891683e-01  6.2502250673247095e-01  6.2409019510997876e-01  6.2321704335192418e-01  6.2240364573898932e-01  6.2164974216839697e-01  6.2095508115154374e-01  6.2031860234484537e-01  6.1973929319831822e-01  6.1921543976860816e-01  6.1874540487727792e-01  6.1832684914110203e-01  6.1795753774018292e-01  6.1763441590532286e-01  6.1735451447927303e-01  6.1711398585854282e-01  6.1690900272334559e-01  6.1673498172266750e-01  6.1658745338737120e-01  6.1646130580381175e-01  6.1635180074131046e-01  6.1625384911758219e-01  6.1616308662229247e-01  6.1607507687784147e-01  6.1598636263693707e-01  6.1589375173186656e-01  6.1579501162181527e-01  6.1568787216393095e-01  6.1557058655295216e-01  6.1544083956209594e-01  6.1529629400734243e-01  6.1513351016653917e-01  6.1494882370751203e-01  6.1473770849908060e-01  6.1449562835129079e-01  6.1421747089510881e-01  6.1389857298576667e-01  6.1353416286026075e-01  6.1312027477397568e-01  6.1265308122447848e-01  6.1212986731347352e-01  6.1154857351969316e-01  6.1090866573001468e-01  6.1021051734362919e-01  6.0945623752975564e-01  6.0864893230095107e-01  6.0779344064144369e-01  6.0689539014353022e-01  6.0596177366493287e-01  6.0499966144270689e-01  6.0401627720226192e-01  6.0301777633614528e-01  6.0200987935156369e-01  6.0099705630489486e-01  5.9998339680827095e-01  5.9897186691912574e-01  5.9796515314927356e-01  5.9696500249045314e-01  5.9597294346557395e-01  5.9498955511237350e-01  5.9401527144096544e-01  5.9304966282322080e-01  5.9209222878778112e-01  5.9114154304940292e-01  5.9019605152336496e-01  5.8925323974643140e-01  5.8831024915296914e-01  5.8736304992934163e-01  5.8640735109598008e-01  5.8543819003581687e-01  5.8445112412343891e-01  5.8344164423890721e-01  5.8240598182896364e-01  5.8134034118041111e-01  5.8024146833055801e-01  5.7910581096112013e-01  5.7793033144490125e-01  5.7671200892533891e-01  5.7544893123814655e-01  5.7413971186687163e-01  5.7278447957188061e-01  5.7138410880359392e-01  5.6994077772363960e-01  5.6845690551201733e-01  5.6693555303250454e-01  5.6537927637271379e-01  5.6379063342560420e-01  5.6217136437288617e-01  5.6052341846717568e-01  5.5884877295365398e-01  5.5715071314818432e-01  5.5543361751918274e-01  5.5370399732939446e-01  5.5196972937676492e-01  5.5024045101649621e-01  5.4852627627707307e-01  5.4683837274787406e-01  5.4518813830315738e-01  5.4358786161091932e-01  5.4204965216806267e-01  5.4058552489434730e-01  5.3920568755826004e-01  5.3791839911854067e-01  5.3672865016790461e-01  5.3563869484936433e-01  5.3464729837755631e-01  5.3375017393387925e-01  5.3293890305877545e-01  5.3220170086798335e-01  5.3152365572755123e-01  5.3088903389755315e-01  5.3028197759222262e-01  5.2968833362805634e-01  5.2909555130276631e-01  5.2849360320387129e-01  5.2787409187444456e-01  5.2723046749078772e-01  5.2655665119837924e-01  5.2584754497383146e-01  5.2509830112945433e-01  5.2430543598681811e-01  5.2346651631460572e-01  5.2258111490838532e-01  5.2165000030705411e-01  5.2067561434349463e-01  5.1966113728868368e-01  5.1861124695230754e-01  5.1753132580668559e-01  5.1642812433088148e-01  5.1530862388913057e-01  5.1418019650255120e-01  5.1304944120771423e-01  5.1192274527194970e-01  5.1080529491887350e-01  5.0970157353669143e-01  5.0861417667821673e-01  5.0754432822017992e-01  5.0649151732989262e-01  5.0545525260465740e-01  5.0443559734909482e-01  5.0343419991731475e-01  5.0245302284110294e-01  5.0149399032186714e-01  5.0055700328497510e-01  4.9963982093745835e-01  4.9873722306985407e-01  4.9784212294382013e-01  4.9694540048995889e-01  4.9603703423910012e-01  4.9510594581147016e-01  4.9414166216065991e-01  4.9313458074917238e-01  4.9207742167243562e-01  4.9096473749514047e-01  4.8979343467088710e-01  4.8856185265702651e-01  4.8727037269687701e-01  4.8592084159324134e-01  4.8451751646205260e-01  4.8306647404069886e-01  4.8157591386844628e-01  4.8005436489304965e-01  4.7850993496902355e-01  4.7694886959116811e-01  4.7537633135324042e-01  4.7379643679904820e-01  4.7221388851365997e-01  4.7063394042495005e-01  4.6906313574865338e-01  4.6750744777776776e-01  4.6597138175961239e-01  4.6445650958683121e-01  4.6296226254259237e-01  4.6148584961924349e-01  4.6002372592570995e-01  4.5857162110099736e-01  4.5712561711213479e-01  4.5568145157811285e-01  4.5423456702572096e-01  4.5277883914532735e-01  4.5130705867616733e-01  4.4981054650627006e-01  4.4828028006655335e-01  4.4670667891139781e-01  4.4508079689905716e-01  4.4339414281938005e-01  4.4163994256036992e-01  4.3981339166298661e-01  4.3791355752960498e-01  4.3594371048639441e-01  4.3391221930669294e-01  4.3183059359685316e-01  4.2970900927353595e-01  4.2755475888018579e-01  4.2537337370019818e-01  4.2316686025085187e-01  4.2093333275499356e-01  4.1867184489025849e-01  4.1638236643124210e-01  4.1406153862713146e-01  4.1170320397517801e-01  4.0930116957213869e-01  4.0685038666204654e-01  4.0434600536940180e-01  4.0178326519821789e-01  3.9915815704164964e-01  3.9647494689677110e-01  3.9375128849155677e-01  3.9102020898423862e-01  3.8832991358333024e-01  3.8573945282872157e-01  3.8331018471824591e-01  3.8109041233713803e-01  3.7909758862455073e-01  3.7732271454988570e-01  3.7573767693711102e-01  3.7430512494191714e-01  3.7297396204608801e-01  3.7168194129268195e-01  3.7037055169069999e-01  3.6898526513421753e-01  3.6747655994723816e-01  3.6580661743125847e-01  3.6394902041122840e-01  3.6188766985359910e-01  3.5961330398053454e-01  3.5712133003187047e-01  3.5440928337204736e-01  3.5147601363973702e-01  3.4832038459820769e-01  3.4494223107758071e-01  3.4134349516662599e-01  3.3752983618990307e-01  3.3350945700594115e-01  3.2929276376768796e-01  3.2489187095582522e-01  3.2032123588388045e-01  3.1559690331202217e-01  3.1073623577774395e-01  3.0575477504043452e-01  3.0065982164719468e-01  2.9544593424037718e-01  2.9009840029585710e-01  2.8459692418459648e-01  2.7891834446251773e-01  2.7303837046945945e-01  2.6693584505818685e-01  2.6059508396824821e-01  2.5400678544492344e-01  2.4716887293808670e-01  2.4008820251439539e-01  2.3278205163207272e-01  2.2527968245282229e-01  2.1761971004299802e-01  2.0984651283410080e-01  2.0200864493179160e-01  1.9415832834232832e-01  1.8635030874902922e-01  1.7864063599712318e-01  1.7108263459746692e-01  1.6372050911123628e-01  1.5658645907433694e-01  1.4970146104825283e-01  1.4307596264147934e-01  1.3671256559180914e-01  1.3060851309689081e-01  1.2475756708188307e-01  1.1915121859559109e-01  1.1377971418087364e-01  1.0863269076292041e-01  1.0369968666677204e-01  9.8970385760087626e-02  9.4434911100829064e-02  9.0083917912139932e-02  8.5908684749957109e-02  8.1901069666632936e-02  7.8053568282597338e-02  7.4359247738995882e-02  7.0811743634610264e-02  6.7405150583098108e-02  6.4134037821911544e-02  6.0993374653727742e-02  5.7978504024686628e-02  5.5085060222142178e-02  5.2308967213393447e-02  4.9646382544307414e-02  4.7093683674177128e-02  4.4647393893326295e-02  4.2304202422248735e-02  4.0060926005826142e-02  3.7914501575726539e-02  3.5861952624414849e-02  3.3900400128417635e-02  3.2027045802367766e-02  3.0239179235290587e-02  2.8534141551082293e-02  2.6909356674679936e-02  2.5362316465544831e-02  2.3890585908911178e-02  2.2491789861948382e-02  2.1163624188173181e-02  1.9903853648657512e-02  1.8710314370069418e-02  1.7580892833787713e-02  1.6513546393082210e-02  1.5506295776548405e-02  1.4557223706755478e-02  1.3664474381490967e-02  1.2826250753246653e-02  1.2040824310883510e-02  1.1306526715403335e-02  1.0621750662051458e-02  9.9849533624333121e-03  9.3946602504883341e-03  8.8494637779386529e-03  8.3480296486592963e-03  7.8890959122486469e-03  7.4714802843203953e-03  7.0940805648252907e-03  6.7558799018387211e-03  6.4559501262208777e-03  6.1934569131561002e-03  5.9676661048172000e-03  5.7779484515498528e-03  5.6237998645970472e-03  5.5048625619922836e-03  5.4210212165512030e-03  5.3726989331829272e-03  5.3620604676738962e-03  7.2705021466641129e-01  7.2691160747821493e-01  7.2668077222324134e-01  7.2637864283613285e-01  7.2600233533333813e-01  7.2554945242729463e-01  7.2501894327764238e-01  7.2441237293141281e-01  7.2373211461974074e-01  7.2298220157387916e-01  7.2216723824075935e-01  7.2129285310225588e-01  7.2036502624170862e-01  7.1939047520773758e-01  7.1837606300753354e-01  7.1732925034609563e-01  7.1625739770169661e-01  7.1516833407505109e-01  7.1406958018649336e-01  7.1296903739537432e-01  7.1187418800616686e-01  7.1079275411342868e-01  7.0973192044443567e-01  7.0869898856458358e-01  7.0770046754403604e-01  7.0674286171474299e-01  7.0583172555475493e-01  7.0497247358743986e-01  7.0416949976612186e-01  7.0342694571133291e-01  7.0274790698613798e-01  7.0213516719439673e-01  7.0159038621410963e-01  7.0111494016158726e-01  7.0070906206625261e-01  7.0037272256370819e-01  7.0010487571023083e-01  6.9990429059770809e-01  6.9976887530387244e-01  6.9969646025972032e-01  6.9968408320962039e-01  6.9972884491221388e-01  6.9982712517101753e-01  6.9997541256531604e-01  7.0016956683786802e-01  7.0040557114112723e-01  7.0067881609320826e-01  7.0098477444528973e-01  7.0131822355424533e-01  7.0167400134164826e-01  7.0204614005786270e-01  7.0242867838702294e-01  7.0281487500579909e-01  7.0319800301333224e-01  7.0357066691093795e-01  7.0392559419146394e-01  7.0425497341825971e-01  7.0455136124565476e-01  7.0480701888914310e-01  7.0501486810156944e-01  7.0516793003797007e-01  7.0526025765256084e-01  7.0528643363787769e-01  7.0524243437191814e-01  7.0512503512066382e-01  7.0493266069205063e-01  7.0466466839836206e-01  7.0432207919284950e-01  7.0390678494375825e-01  7.0342209305144110e-01  7.0287186797232226e-01  7.0226096522949444e-01  7.0159425731381297e-01  7.0087716061865590e-01  7.0011463681420105e-01  6.9931182915094170e-01  6.9847318069496900e-01  6.9760310562044114e-01  6.9670514896676061e-01  6.9578260563528282e-01  6.9483761198480865e-01  6.9387187496967828e-01  6.9288583202786636e-01  6.9187952467846592e-01  6.9085195995728288e-01  6.8980201636537897e-01  6.8872791673008926e-01  6.8762807198394327e-01  6.8650044830100720e-01  6.8534348181204829e-01  6.8415535814002693e-01  6.8293494084078565e-01  6.8168106049382338e-01  6.8039339365082374e-01  6.7907179338925627e-01  6.7771704757391782e-01  6.7633008033626263e-01  6.7491263687426928e-01  6.7346638154267235e-01  6.7199356013679767e-01  6.7049618238665498e-01  6.6897668832941570e-01  6.6743725211954252e-01  6.6588045063269086e-01  6.6430854011261065e-01  6.6272422662412578e-01  6.6112984678000475e-01  6.5952815169412560e-01  6.5792147290225855e-01  6.5631247193304065e-01  6.5470335758173803e-01  6.5309659838493184e-01  6.5149413377202769e-01  6.4989815374809190e-01  6.4831031330435629e-01  6.4673252849740315e-01  6.4516626098440288e-01  6.4361326780893358e-01  6.4207497447693851e-01  6.4055321636606299e-01  6.3904957531421291e-01  6.3756623440808324e-01  6.3610524404512070e-01  6.3466940938334604e-01  6.3326152985515449e-01  6.3188518599211985e-01  6.3054393017269039e-01  6.2924191038593102e-01  6.2798289186448941e-01  6.2677086088794198e-01  6.2560904211875035e-01  6.2450058073826809e-01  6.2344771211203531e-01  6.2245246742130311e-01  6.2151601423303726e-01  6.2063938960626108e-01  6.1982276998481711e-01  6.1906628602936253e-01  6.1836924178179165e-01  6.1773096850944942e-01  6.1715005935770340e-01  6.1662514692010861e-01  6.1615420161502243e-01  6.1573528928998689e-01  6.1536573583259668e-01  6.1504294953619776e-01  6.1476349330804902e-01  6.1452396159996003e-01  6.1432011665176001e-01  6.1414773014812196e-01  6.1400188212611206e-01  6.1387784818143332e-01  6.1377039889367269e-01  6.1367483774616749e-01  6.1358626495516011e-01  6.1350064725527231e-01  6.1341412130331541e-01  6.1332387267812061e-01  6.1322733382229400e-01  6.1312274350058871e-01  6.1300807668658652e-01  6.1288153266613299e-01  6.1274037644282853e-01  6.1258162330042576e-01  6.1240122281251697e-01  6.1219493518641732e-01  6.1195777404847906e-01  6.1168493999285700e-01  6.1137132241061221e-01  6.1101247316282226e-01  6.1060396057805011e-01  6.1014227544175192e-01  6.0962428379976774e-01  6.0904816146119323e-01  6.0841293847127553e-01  6.0771932755772828e-01  6.0696904279822561e-01  6.0616554595670769e-01  6.0531323117474223e-01  6.0441817136401921e-01  6.0348710114574389e-01  6.0252757744679097e-01  6.0154651473648590e-01  6.0055047257070038e-01  5.9954472984871854e-01  5.9853409049627737e-01  5.9752216370460354e-01  5.9651224639417910e-01  5.9550663297726136e-01  5.9450735556694467e-01  5.9351553437534943e-01  5.9253209506125937e-01  5.9155706968421040e-01  5.9059039011137349e-01  5.8963111722833894e-01  5.8867824604286523e-01  5.8772988240188739e-01  5.8678390382595691e-01  5.8583711855221055e-01  5.8488589790271017e-01  5.8392551673557802e-01  5.8295132547599426e-01  5.8195846224814896e-01  5.8094283355737342e-01  5.7990038915937425e-01  5.7882773711993496e-01  5.7772133171725648e-01  5.7657803281590858e-01  5.7539441405495484e-01  5.7416778222828369e-01  5.7289576046682322e-01  5.7157737579552137e-01  5.7021242680377504e-01  5.6880222604956476e-01  5.6734870316804487e-01  5.6585482452472780e-01  5.6432344578131766e-01  5.6275764327694888e-01  5.6115964527100226e-01  5.5953154582154507e-01  5.5787485053283570e-01  5.5619171514122168e-01  5.5448494092570577e-01  5.5275921695176777e-01  5.5102074012483127e-01  5.4927790788353359e-01  5.4754010247927465e-01  5.4581794609560041e-01  5.4412224410615195e-01  5.4246473505267900e-01  5.4085739436755820e-01  5.3931289343335165e-01  5.3784314513911957e-01  5.3645898494121025e-01  5.3516842562635547e-01  5.3397683596180023e-01  5.3288611300811994e-01  5.3189538280970772e-01  5.3100014388535266e-01  5.3019238281785463e-01  5.2945973630137433e-01  5.2878725084454559e-01  5.2815842350059228e-01  5.2755752941450529e-01  5.2696993327683084e-01  5.2638337230530152e-01  5.2578751360060871e-01  5.2517447838667541e-01  5.2453749446301234e-01  5.2387095110064752e-01  5.2316930327136679e-01  5.2242796517553935e-01  5.2164294520040588e-01  5.2081202686735162e-01  5.1993439247411943e-01  5.1901119500951487e-01  5.1804447616762950e-01  5.1703771351268957e-01  5.1599505614962438e-01  5.1492218178569404e-01  5.1382547445696702e-01  5.1271227770386896e-01  5.1158956749549700e-01  5.1046428169607394e-01  5.0934237372984548e-01  5.0822942004406713e-01  5.0712955862955222e-01  5.0604585481859099e-01  5.0497919271510572e-01  5.0392911855801104e-01  5.0289448560870242e-01  5.0187562730457247e-01  5.0087398466972521e-01  4.9989213310362723e-01  4.9893189129205856e-01  4.9799376873277085e-01  4.9707525501306310e-01  4.9617135703469945e-01  4.9527455554310529e-01  4.9437609616649919e-01  4.9346559669642592e-01  4.9253219960321148e-01  4.9156485514269682e-01  4.9055428557846370e-01  4.8949295578351565e-01  4.8837588866923626e-01  4.8719980723961409e-01  4.8596350336309280e-01  4.8466703415562584e-01  4.8331252387086265e-01  4.8190379524325844e-01  4.8044734827182961e-01  4.7895138452325953e-01  4.7742513896092970e-01  4.7587662812956705e-01  4.7431244973700787e-01  4.7273727063509025e-01  4.7115530244426412e-01  4.6957063044101022e-01  4.6798883506213307e-01  4.6641639371246635e-01  4.6486001113340814e-01  4.6332407062993936e-01  4.6181050034743398e-01  4.6031829843263389e-01  4.5884487907865995e-01  4.5738622330309048e-01  4.5593832703475118e-01  4.5449701902694389e-01  4.5305849180076591e-01  4.5161807967390311e-01  4.5017008280539672e-01  4.4870697670113296e-01  4.4722036883677957e-01  4.4570084394415843e-01  4.4413919201608049e-01  4.4252619455518749e-01  4.4085370691062514e-01  4.3911462269520590e-01  4.3730439531238657e-01  4.3542171264054647e-01  4.3347032843772548e-01  4.3145809083851316e-01  4.2939580773109459e-01  4.2729303448257105e-01  4.2515702894195051e-01  4.2299264078284071e-01  4.2080251135376062e-01  4.1858572638587671e-01  4.1634167997683491e-01  4.1407008117487715e-01  4.1176860498991968e-01  4.0943121768285140e-01  4.0705216369956715e-01  4.0462643589891473e-01  4.0215022637067138e-01  3.9961950166262528e-01  3.9703077632925549e-01  3.9438786859450525e-01  3.9170952732555742e-01  3.8902713929565885e-01  3.8638661187429474e-01  3.8384147203135899e-01  3.8144874884138524e-01  3.7925705092501549e-01  3.7728714661761031e-01  3.7553159550267895e-01  3.7396265898388109e-01  3.7254279235869459e-01  3.7122377003983803e-01  3.6994573176245504e-01  3.6865132621700392e-01  3.6728601607654138e-01  3.6579971866847455e-01  3.6415433739521558e-01  3.6232423396033570e-01  3.6029332542362363e-01  3.5805274587371766e-01  3.5559773568923952e-01  3.5292623373189402e-01  3.5003696692483116e-01  3.4692911471324944e-01  3.4360192538435325e-01  3.4005717445919859e-01  3.3630016323233025e-01  3.3233922487718665e-01  3.2818449113524828e-01  3.2384807632347873e-01  3.19344002266