<?xml version="1.0"?>
<VTKFile type="UnstructuredGrid"  version="0.1"  >
<UnstructuredGrid>
<Piece  NumberOfPoints="28121" NumberOfCells="55200">
<Points>
<DataArray  type="Float64"  NumberOfComponents="3"  format="ascii">0 0 0  0.008260869565217391 0 0  0.01652173913043478 0 0  0.02478260869565217 0 0  0.03304347826086956 0 0  0.04130434782608695 0 0  0.04956521739130434 0 0  0.05782608695652174 0 0  0.06608695652173913 0 0  0.07434782608695652 0 0  0.08260869565217391 0 0  0.0908695652173913 0 0  0.09913043478260869 0 0  0.1073913043478261 0 0  0.1156521739130435 0 0  0.1239130434782609 0 0  0.1321739130434783 0 0  0.1404347826086956 0 0  0.148695652173913 0 0  0.1569565217391304 0 0  0.1652173913043478 0 0  0.1734782608695652 0 0  0.1817391304347826 0 0  0.19 0 0  0.1982608695652174 0 0  0.2065217391304348 0 0  0.2147826086956522 0 0  0.2230434782608696 0 0  0.2313043478260869 0 0  0.2395652173913043 0 0  0.2478260869565218 0 0  0.2560869565217391 0 0  0.2643478260869565 0 0  0.2726086956521739 0 0  0.2808695652173913 0 0  0.2891304347826087 0 0  0.2973913043478261 0 0  0.3056521739130434 0 0  0.3139130434782609 0 0  0.3221739130434783 0 0  0.3304347826086956 0 0  0.338695652173913 0 0  0.3469565217391304 0 0  0.3552173913043478 0 0  0.3634782608695652 0 0  0.3717391304347826 0 0  0.3799999999999999 0 0  0.3882608695652174 0 0  0.3965217391304348 0 0  0.4047826086956521 0 0  0.4130434782608696 0 0  0.4213043478260869 0 0  0.4295652173913043 0 0  0.4378260869565217 0 0  0.4460869565217391 0 0  0.4543478260869565 0 0  0.4626086956521739 0 0  0.4708695652173913 0 0  0.4791304347826086 0 0  0.4873913043478261 0 0  0.4956521739130435 0 0  0.5039130434782608 0 0  0.5121739130434783 0 0  0.5204347826086956 0 0  0.528695652173913 0 0  0.5369565217391304 0 0  0.5452173913043478 0 0  0.5534782608695652 0 0  0.5617391304347825 0 0  0.57 0 0  0.5782608695652174 0 0  0.5865217391304348 0 0  0.5947826086956521 0 0  0.6030434782608696 0 0  0.6113043478260869 0 0  0.6195652173913043 0 0  0.6278260869565218 0 0  0.6360869565217391 0 0  0.6443478260869565 0 0  0.6526086956521739 0 0  0.6608695652173913 0 0  0.6691304347826087 0 0  0.677391304347826 0 0  0.6856521739130435 0 0  0.6939130434782609 0 0  0.7021739130434783 0 0  0.7104347826086956 0 0  0.718695652173913 0 0  0.7269565217391304 0 0  0.7352173913043478 0 0  0.7434782608695653 0 0  0.7517391304347827 0 0  0.7599999999999999 0 0  0.7682608695652173 0 0  0.7765217391304348 0 0  0.7847826086956522 0 0  0.7930434782608695 0 0  0.8013043478260868 0 0  0.8095652173913043 0 0  0.8178260869565217 0 0  0.8260869565217391 0 0  0.8343478260869565 0 0  0.8426086956521739 0 0  0.8508695652173912 0 0  0.8591304347826086 0 0  0.8673913043478261 0 0  0.8756521739130434 0 0  0.8839130434782608 0 0  0.8921739130434783 0 0  0.9004347826086956 0 0  0.908695652173913 0 0  0.9169565217391303 0 0  0.9252173913043478 0 0  0.9334782608695652 0 0  0.9417391304347826 0 0  0.95 0 0  0.9582608695652173 0 0  0.9665217391304347 0 0  0.9747826086956521 0 0  0.9830434782608696 0 0  0.991304347826087 0 0  0.9995652173913042 0 0  1.007826086956522 0 0  1.016086956521739 0 0  1.024347826086957 0 0  1.032608695652174 0 0  1.040869565217391 0 0  1.049130434782609 0 0  1.057391304347826 0 0  1.065652173913043 0 0  1.073913043478261 0 0  1.082173913043478 0 0  1.090434782608696 0 0  1.098695652173913 0 0  1.10695652173913 0 0  1.115217391304348 0 0  1.123478260869565 0 0  1.131739130434783 0 0  1.14 0 0  1.148260869565217 0 0  1.156521739130435 0 0  1.164782608695652 0 0  1.17304347826087 0 0  1.181304347826087 0 0  1.189565217391304 0 0  1.197826086956522 0 0  1.206086956521739 0 0  1.214347826086956 0 0  1.222608695652174 0 0  1.230869565217391 0 0  1.239130434782609 0 0  1.247391304347826 0 0  1.255652173913044 0 0  1.263913043478261 0 0  1.272173913043478 0 0  1.280434782608696 0 0  1.288695652173913 0 0  1.296956521739131 0 0  1.305217391304348 0 0  1.313478260869565 0 0  1.321739130434783 0 0  1.33 0 0  1.338260869565217 0 0  1.346521739130435 0 0  1.354782608695652 0 0  1.36304347826087 0 0  1.371304347826087 0 0  1.379565217391304 0 0  1.387826086956522 0 0  1.396086956521739 0 0  1.404347826086957 0 0  1.412608695652174 0 0  1.420869565217391 0 0  1.429130434782609 0 0  1.437391304347826 0 0  1.445652173913043 0 0  1.453913043478261 0 0  1.462173913043478 0 0  1.470434782608696 0 0  1.478695652173913 0 0  1.486956521739131 0 0  1.495217391304348 0 0  1.503478260869565 0 0  1.511739130434782 0 0  1.52 0 0  1.528260869565217 0 0  1.536521739130435 0 0  1.544782608695652 0 0  1.55304347826087 0 0  1.561304347826087 0 0  1.569565217391304 0 0  1.577826086956522 0 0  1.586086956521739 0 0  1.594347826086957 0 0  1.602608695652174 0 0  1.610869565217391 0 0  1.619130434782609 0 0  1.627391304347826 0 0  1.635652173913043 0 0  1.643913043478261 0 0  1.652173913043478 0 0  1.660434782608696 0 0  1.668695652173913 0 0  1.67695652173913 0 0  1.685217391304348 0 0  1.693478260869565 0 0  1.701739130434782 0 0  1.71 0 0  1.718260869565217 0 0  1.726521739130435 0 0  1.734782608695652 0 0  1.743043478260869 0 0  1.751304347826087 0 0  1.759565217391304 0 0  1.767826086956522 0 0  1.776086956521739 0 0  1.784347826086957 0 0  1.792608695652174 0 0  1.800869565217391 0 0  1.809130434782608 0 0  1.817391304347826 0 0  1.825652173913043 0 0  1.833913043478261 0 0  1.842173913043478 0 0  1.850434782608696 0 0  1.858695652173913 0 0  1.86695652173913 0 0  1.875217391304348 0 0  1.883478260869565 0 0  1.891739130434782 0 0  1.9 0 0  1.908260869565217 0 0  1.916521739130435 0 0  1.924782608695652 0 0  1.933043478260869 0 0  1.941304347826087 0 0  1.949565217391304 0 0  1.957826086956522 0 0  1.966086956521739 0 0  1.974347826086956 0 0  1.982608695652174 0 0  1.990869565217391 0 0  1.999130434782608 0 0  2.007391304347826 0 0  2.015652173913043 0 0  2.023913043478261 0 0  2.032173913043478 0 0  2.040434782608695 0 0  2.048695652173913 0 0  2.05695652173913 0 0  2.065217391304348 0 0  2.073478260869565 0 0  2.081739130434782 0 0  2.09 0 0  2.098260869565217 0 0  2.106521739130435 0 0  2.114782608695652 0 0  2.12304347826087 0 0  2.131304347826087 0 0  2.139565217391304 0 0  2.147826086956522 0 0  2.156086956521739 0 0  2.164347826086956 0 0  2.172608695652174 0 0  2.180869565217391 0 0  2.189130434782609 0 0  2.197391304347826 0 0  2.205652173913043 0 0  2.213913043478261 0 0  2.222173913043478 0 0  2.230434782608695 0 0  2.238695652173913 0 0  2.24695652173913 0 0  2.255217391304348 0 0  2.263478260869565 0 0  2.271739130434783 0 0  2.28 0 0  2.288260869565217 0 0  2.296521739130434 0 0  2.304782608695652 0 0  2.31304347826087 0 0  2.321304347826087 0 0  2.329565217391304 0 0  2.337826086956521 0 0  2.346086956521739 0 0  2.354347826086956 0 0  2.362608695652174 0 0  2.370869565217391 0 0  2.379130434782609 0 0  2.387391304347826 0 0  2.395652173913044 0 0  2.403913043478261 0 0  2.412173913043478 0 0  2.420434782608695 0 0  2.428695652173913 0 0  2.43695652173913 0 0  2.445217391304348 0 0  2.453478260869565 0 0  2.461739130434782 0 0  2.47 0 0  2.478260869565217 0 0  2.486521739130435 0 0  2.494782608695652 0 0  2.503043478260869 0 0  2.511304347826087 0 0  2.519565217391305 0 0  2.527826086956522 0 0  2.536086956521739 0 0  2.544347826086956 0 0  2.552608695652174 0 0  2.560869565217391 0 0  2.569130434782608 0 0  2.577391304347826 0 0  2.585652173913043 0 0  2.593913043478261 0 0  2.602173913043478 0 0  2.610434782608696 0 0  2.618695652173913 0 0  2.62695652173913 0 0  2.635217391304348 0 0  2.643478260869565 0 0  2.651739130434783 0 0  2.66 0 0  2.668260869565217 0 0  2.676521739130435 0 0  2.684782608695652 0 0  2.693043478260869 0 0  2.701304347826087 0 0  2.709565217391304 0 0  2.717826086956522 0 0  2.726086956521739 0 0  2.734347826086956 0 0  2.742608695652174 0 0  2.750869565217391 0 0  2.759130434782609 0 0  2.767391304347826 0 0  2.775652173913044 0 0  2.783913043478261 0 0  2.792173913043478 0 0  2.800434782608696 0 0  2.808695652173913 0 0  2.81695652173913 0 0  2.825217391304347 0 0  2.833478260869565 0 0  2.841739130434783 0 0  2.85 0 0  2.858260869565217 0 0  2.866521739130435 0 0  2.874782608695652 0 0  2.88304347826087 0 0  2.891304347826087 0 0  2.899565217391304 0 0  2.907826086956522 0 0  2.916086956521739 0 0  2.924347826086957 0 0  2.932608695652174 0 0  2.940869565217391 0 0  2.949130434782608 0 0  2.957391304347826 0 0  2.965652173913043 0 0  2.973913043478261 0 0  2.982173913043478 0 0  2.990434782608696 0 0  2.998695652173913 0 0  3.006956521739131 0 0  3.015217391304348 0 0  3.023478260869565 0 0  3.031739130434782 0 0  3.04 0 0  3.048260869565218 0 0  3.056521739130435 0 0  3.064782608695652 0 0  3.073043478260869 0 0  3.081304347826087 0 0  3.089565217391304 0 0  3.097826086956522 0 0  3.106086956521739 0 0  3.114347826086956 0 0  3.122608695652174 0 0  3.130869565217391 0 0  3.139130434782609 0 0  3.147391304347826 0 0  3.155652173913043 0 0  3.163913043478261 0 0  3.172173913043478 0 0  3.180434782608696 0 0  3.188695652173913 0 0  3.19695652173913 0 0  3.205217391304347 0 0  3.213478260869565 0 0  3.221739130434782 0 0  3.23 0 0  3.238260869565217 0 0  3.246521739130435 0 0  3.254782608695652 0 0  3.26304347826087 0 0  3.271304347826087 0 0  3.279565217391304 0 0  3.287826086956521 0 0  3.296086956521739 0 0  3.304347826086957 0 0  3.312608695652174 0 0  3.320869565217391 0 0  3.329130434782608 0 0  3.337391304347826 0 0  3.345652173913043 0 0  3.353913043478261 0 0  3.362173913043478 0 0  3.370434782608696 0 0  3.378695652173913 0 0  3.386956521739131 0 0  3.395217391304348 0 0  3.403478260869565 0 0  3.411739130434782 0 0  3.419999999999999 0 0  3.428260869565217 0 0  3.436521739130435 0 0  3.444782608695652 0 0  3.453043478260869 0 0  3.461304347826087 0 0  3.469565217391304 0 0  3.477826086956522 0 0  3.486086956521739 0 0  3.494347826086956 0 0  3.502608695652174 0 0  3.510869565217391 0 0  3.519130434782609 0 0  3.527391304347826 0 0  3.535652173913043 0 0  3.54391304347826
[...]
<PointData  Scalars="rho_bar"> 
<DataArray  type="Float64"  Name="rho_bar"  format="ascii">9.9848407157471475e-01  9.9846543484956207e-01  9.9844357980190512e-01  9.9841356133365211e-01  9.9837358424827738e-01  9.9832262425315932e-01  9.9825983819042396e-01  9.9818431422166753e-01  9.9809508865109120e-01  9.9799108162141226e-01  9.9787114896085227e-01  9.9773406739084158e-01  9.9757861744073872e-01  9.9740359998592831e-01  9.9720796147973667e-01  9.9699085030885315e-01  9.9675178850743140e-01  9.9649074475784660e-01  9.9620837108338212e-01  9.9590608288821181e-01  9.9558631421622323e-01  9.9525256746415203e-01  9.9490960759183078e-01  9.9456336457141847e-01  9.9422099160299093e-01  9.9389052440570402e-01  9.9358072251217500e-01  9.9330045251672461e-01  9.9305834038959540e-01  9.9286204857666938e-01  9.9271789390740006e-01  9.9263022769075560e-01  9.9260129825217902e-01  9.9263092859476865e-01  9.9271673776841085e-01  9.9285415110804098e-01  9.9303696513297657e-01  9.9325767788814567e-01  9.9350819775947974e-01  9.9378022623601392e-01  9.9406592307808028e-01  9.9435812622433473e-01  9.9465077390078471e-01  9.9493887942169557e-01  9.9521870734290985e-01  9.9548759027303924e-01  9.9574391597462764e-01  9.9598686880470033e-01  9.9621637000553509e-01  9.9643282521997001e-01  9.9663708386348282e-01  9.9683022403639610e-01  9.9701354393896380e-01  9.9718839881412336e-01  9.9735619546560739e-01  9.9751825018211271e-01  9.9767579476637624e-01  9.9782984625251758e-01  9.9798121434060372e-01  9.9813039075861443e-01  9.9827756398200185e-01  9.9842255322982421e-01  9.9856484869951412e-01  9.9870360247571921e-01  9.9883772768870394e-01  9.9896595236154606e-01  9.9908696965606614e-01  9.9919953551346408e-01  9.9930261825171685e-01  9.9939547794139516e-01  9.9947774585891935e-01  9.9954942158436122e-01  9.9961085330255184e-01  9.9966265302677715e-01  9.9970561669043279e-01  9.9974061845170759e-01  9.9976853268112098e-01  9.9979015664128490e-01  9.9980616236208641e-01  9.9981705056446624e-01  9.9982312190874623e-01  9.9982443597324211e-01  9.9982076977068068e-01  9.9981154285010909e-01  9.9979571612351259e-01  9.9977162565539623e-01  9.9973674575654781e-01  9.9968732537587712e-01  9.9961789111518351e-01  9.9952055628773806e-01  9.9938414602322667e-01  9.9919318394877576e-01  9.9892711457839278e-01  9.9856023840376895e-01  9.9806315565770898e-01  9.9740641558861087e-01  9.9656680581697099e-01  9.9553492380931119e-01  9.9432150930908070e-01  9.9295961038044667e-01  9.9150234027200379e-01  9.9001598343456021e-01  9.8857057438409712e-01  9.8722996682622577e-01  9.8604464211461040e-01  9.8504747157535810e-01  9.8425345955805865e-01  9.8366134979119180e-01  9.8325749863960110e-01  9.8301953482124715e-01  9.8292055324271921e-01  9.8293200096533118e-01  9.8302648070605581e-01  9.8317894515204785e-01  9.8336794235118341e-01  9.8357548379382387e-01  9.8378738952302835e-01  9.8399262605616100e-01  9.8418328786590126e-01  9.8435380061100375e-01  9.8450089960181963e-01  9.8462286518123032e-01  9.8471957522598619e-01  9.8479181438740448e-01  9.8484141970391559e-01  9.8487072162267919e-01  9.8488267783080241e-01  9.8488034739770047e-01  9.8486708375273002e-01  9.8484603180075558e-01  9.8482044964035398e-01  9.8479327987343790e-01  9.8476752871872952e-01  9.8474588195068991e-01  9.8473103424413067e-01  9.8472527511206742e-01  9.8473080185297157e-01  9.8474926259261009e-01  9.8478212513527208e-01  9.8483024673573483e-01  9.8489423907866502e-01  9.8497410438933841e-01  9.8506958327652572e-01  9.8517983778562879e-01  9.8530384758176748e-01  9.8544005757709874e-01  9.8558686098502746e-01  9.8574223140097461e-01  9.8590415268867715e-01  9.8607027777099265e-01  9.8623827078309734e-01  9.8640547183406857e-01  9.8656929790477077e-01  9.8672694168315600e-01  9.8687583958797198e-01  9.8701337086405572e-01  9.8713732732493209e-01  9.8724568838564342e-01  9.8733699167619449e-01  9.8741009389183898e-01  9.8746455897752228e-01  9.8750041500018471e-01  9.8751853991680150e-01  9.8752041130025092e-01  9.8750859486766385e-01  9.8748669429964109e-01  9.8745987859649420e-01  9.8743492557538037e-01  9.8742084325916557e-01  9.8742885745051667e-01  9.8747284888740150e-01  9.8756895707349046e-01  9.8773545737734991e-01  9.8799155012370443e-01  9.8835601963593434e-01  9.8884460252431983e-01  9.8946727373590326e-01  9.9022464938901478e-01  9.9110531516214606e-01  9.9208388421636751e-01  9.9312182857426345e-01  9.9417084158372060e-01  9.9517934163366106e-01  9.9610137217833461e-01  9.9690511778900326e-01  9.9757653418387526e-01  9.9811752866744563e-01  9.9854089117036204e-01  9.9886487590472806e-01  9.9910878412109316e-01  9.9929030923237361e-01  9.9942428151168528e-01  9.9952243858108569e-01  9.9959367704088142e-01  9.9964454130110547e-01  9.9967969970000647e-01  9.9970238017999102e-01  9.9971469248264322e-01  9.9971787476969387e-01  9.9971244594208897e-01  9.9969830893093192e-01  9.9967478829591172e-01  9.9964064349131554e-01  9.9959404314400024e-01  9.9953255290544463e-01  9.9945311153595451e-01  9.9935204043885983e-01  9.9922506992588045e-01  9.9906747002725160e-01  9.9887424075765596e-01  9.9864042158847410e-01  9.9836139594638917e-01  9.9803327783707152e-01  9.9765321349010638e-01  9.9721969583389791e-01  9.9673269104086559e-01  9.9619375664179766e-01  9.9560589120403264e-01  9.9497343125252802e-01  9.9430166025084887e-01  9.9359664616770049e-01  9.9286485638498601e-01  9.9211310582749557e-01  9.9134829662084567e-01  9.9057760656207772e-01  9.8980839738899951e-01  9.8904859488804808e-01  9.8830662295123994e-01  9.8759185207491262e-01  9.8691446468508381e-01  9.8628568066050526e-01  9.8571725440815217e-01  9.8522133940849344e-01  9.8480952060107196e-01  9.8449239838699054e-01  9.8427844134565989e-01  9.8417372307426942e-01  9.8418113482501823e-01  9.8430060119809759e-01  9.8452887499583830e-01  9.8486033163177533e-01  9.8528717681581279e-01  9.8580045540522121e-01  9.8639025303785444e-01  9.8704645160083226e-01  9.8775866575185844e-01  9.8851663006654600e-01  9.8930992980313359e-01  9.9012821038430643e-01  9.9096081680638159e-01  9.9179701666934295e-01  9.9262574475207777e-01  9.9343592001858738e-01  9.9421649478394891e-01  9.9495702690195620e-01  9.9564804015847119e-01  9.9628171825731870e-01  9.9685227566290313e-01  9.9735645495112768e-01  9.9779357721874073e-01  9.9816551307899226e-01  9.9847624762073650e-01  9.9873135227323140e-01  9.9893726889247403e-01  9.9910069367398546e-01  9.9922800012739010e-01  9.9932487385342950e-01  9.9939603822121270e-01  9.9944513247371891e-01  9.9947461227938439e-01  9.9948567834226232e-01  9.9947812063482122e-01  9.9945006455970309e-01  9.9939748615343604e-01  9.9931344537640820e-01  9.9918683944440578e-01  9.9900056663845882e-01  9.9872887584530423e-01  9.9833401761326090e-01  9.9776249315489263e-01  9.9694232472224897e-01  9.9578405172784024e-01  9.9418970619390679e-01  9.9207196015203769e-01  9.8938169993875436e-01  9.8613465510784959e-01  9.8242542166721003e-01  9.7841987987835655e-01  9.7432830023350203e-01  9.7036801829188168e-01  9.6673140473775154e-01  9.6356440214940720e-01  9.6095843154638549e-01  9.5894951324502686e-01  9.5752561678433712e-01  9.5663696001082754e-01  9.5621024265185373e-01  9.5616055185082893e-01  9.5640259505585801e-01  9.5685659045375460e-01  9.5745317319043055e-01  9.5813393116629153e-01  9.5885220599129761e-01  9.5957131900334058e-01  9.6026421628826952e-01  9.6091109323378432e-01  9.6149874815890091e-01  9.6201807141221218e-01  9.6246357999311205e-01  9.6283137309033884e-01  9.6311902603940813e-01  9.6332408660797408e-01  9.6344461785301505e-01  9.6347828334195185e-01  9.6342339369456520e-01  9.6327827357680285e-01  9.6304251041357269e-01  9.6271652996432566e-01  9.6230284059043025e-01  9.6180583979795076e-01  9.6123348961121524e-01  9.6059755277510894e-01  9.5991586232452986e-01  9.5921286249882753e-01  9.5852187594981964e-01  9.5788518192759076e-01  9.5735544036286957e-01  9.5699483156166576e-01  9.5687528029977320e-01  9.5707513789460885e-01  9.5767517586998208e-01  9.5874920170890243e-01  9.6035345800860494e-01  9.6251241131190213e-01  9.6520733796795233e-01  9.6836855443395986e-01  9.7187682028501665e-01  9.7557208500619541e-01  9.7927453978846712e-01  9.8281011322323020e-01  9.8603601279663911e-01  9.8885722769298401e-01  9.9123215328018988e-01  9.9316542399036734e-01  9.9469326196360353e-01  9.9586917735299596e-01  9.9675383144755403e-01  9.9740648368004214e-01  9.9787950449322582e-01  9.9821545128907285e-01  9.9844676977765279e-01  9.9859671295182151e-01  9.9868071685509208e-01  9.9870762527602619e-01  9.9868061680927733e-01  9.9859754308251747e-01  9.9845083924526812e-01  9.9822690224575583e-01  9.9790519538095712e-01  9.9745721665038445e-01  9.9684587256852197e-01  9.9602590785672929e-01  9.9494705517341120e-01  9.9356148362565422e-01  9.9183731595221103e-01  9.8977719999981495e-01  9.8743874662176834e-01  9.8494885946113864e-01  9.8250229122489685e-01  9.8033567057783277e-01  9.7867552615845421e-01  9.7767110964592308e-01  9.7734110935809437e-01  9.7756359476805199e-01  9.7811892994750149e-01  9.7874329386211445e-01  9.7916186601444910e-01  9.7909104781170109e-01  9.7820580982143868e-01  9.7605703930419829e-01  9.7189502192594412e-01  9.6432857363073798e-01  9.5065704587257271e-01  9.2560459363685266e-01  8.7937069415550817e-01  7.9644944572000131e-01  6.6179992622249251e-01  4.8358193464490756e-01  3.0658746634416500e-01  1.7424219148523601e-01  9.3667549621099716e-02  4.9765574784658297e-02  2.6821019354942448e-02  1.4856996168769203e-02  8.5074772381249341e-03  5.0451761718950548e-03  3.0978451712955057e-03  1.9669594829006590e-03  1.2891336518553664e-03  8.7031149201551613e-04  6.0394385036774433e-04  4.2987019563007345e-04  3.1318215651720822e-04  2.3308461277753311e-04  1.7687772550529577e-04  1.3661987566011878e-04  1.0723289022344660e-04  8.5400629711203228e-05  6.8914734054264379e-05  5.6277021133203962e-05  4.6453403731915349e-05  3.8718181520182265e-05  3.2554436600106946e-05  2.7588569818483384e-05  2.3546915759352688e-05  2.0226425710500874e-05  1.7474664829805946e-05  1.5175908308630586e-05  1.3241369890057300e-05  1.1602208761166530e-05  1.0204582293164001e-05  9.0060073836862323e-06  7.9726608089576030e-06  7.0774141250757253e-06  6.2983260056967300e-06  5.6175589336878325e-06  5.0204828485131606e-06  4.4950263572084793e-06  4.0311656439656316e-06  3.6205442264817060e-06  3.2561405322019019e-06  2.9320272474995626e-06  2.6431698511809474e-06  2.3852890434485086e-06  2.1547145531508587e-06  1.9482879973882266e-06  1.7632795917229963e-06  1.5973256195458372e-06  1.4483680585898121e-06  1.3146077980924939e-06  1.1944680900190022e-06  1.0865661086596307e-06  9.8968283468974297e-07  9.0274309992175323e-07  8.2479607576633811e-07  7.5500002519710918e-07  6.9260953268458241e-07  6.3696498517961009e-07  5.8748260545476584e-07  5.4364576425211836e-07  5.0499908669670292e-07  4.7114391101089477e-07  4.4173211485549768e-07  4.1646168236306397e-07  3.9507422832424203e-07  3.7735303547897116e-07  3.6312109535111860e-07  3.5224104390341740e-07  3.4462079478270529e-07  3.4024105229061837e-07  3.3925430940125532e-07  9.9839376655669865e-01  9.9838403411495635e-01  9.9836341703085607e-01  9.9833228775955618e-01  9.9829004830392076e-01  9.9823596735800635e-01  9.9816918942961941e-01  9.9808879632011549e-01  9.9799372722223567e-01  9.9788283936106659e-01  9.9775487071474711e-01  9.9760850845933524e-01  9.9744238963234799e-01  9.9725520522377509e-01  9.9704574177987559e-01  9.9681304000105697e-01  9.9655646798121589e-01  9.9627594497567751e-01  9.9597204176264476e-01  9.9564626225059072e-01  9.9530113444575163e-01  9.9494046483951715e-01  9.9456934002643294e-01  9.9419426765612828e-01  9.9382295904107876e-01  9.9346427588009789e-01  9.9312770786376936e-01  9.9282307127069613e-01  9.9255975298234245e-01  9.9234626282270100e-01  9.9218946571862821e-01  9.9209425130069651e-01  9.9206300553290194e-01  9.9209564647163739e-01  9.9218945278604731e-01  9.9233949758292739e-01  9.9253886323747820e-01  9.9277936853019311e-01  9.9305201661466747e-01  9.9334777968093413e-01  9.9365797021036772e-01  9.9397484363632627e-01  9.9429170653280985e-01  9.9460322802974255e-01  9.9490531616574329e-01  9.9519517755459341e-01  9.9547106206754743e-01  9.9573219611439412e-01  9.9597849535459237e-01  9.9621049873870571e-01  9.9642911391964273e-01  9.9663558953117526e-01  9.9683131767583200e-01  9.9701782507039693e-01  9.9719661684849081e-01  9.9736917387335355e-01  9.9753681067186872e-01  9.9770068044267801e-01  9.9786164561413826e-01  9.9802028604976278e-01  9.9817680313350965e-01  9.9833104318963584e-01  9.9848245601320040e-01  9.9863016371158553e-01  9.9877298424032390e-01  9.9890956569533940e-01  9.9903847623151132e-01  9.9915837633308469e-01  9.9926812844914004e-01  9.9936693106995755e-01  9.9945437037889528e-01  9.9953045291665066e-01  9.9959555403649547e-01  9.9965035270627600e-01  9.9969571762039677e-01  9.9973261194361396e-01  9.9976198989404286e-01  9.9978472683018949e-01  9.9980155602282039e-01  9.9981303136197630e-01  9.9981948724643277e-01  9.9982100751802772e-01  9.9981737203434651e-01  9.9980798953987482e-01  9.9979178093418686e-01  9.9976701253050682e-01  9.9973102991116436e-01  9.9967988113457440e-01  9.9960776139867857e-01  9.9950625052779263e-01  9.9936331290853830e-01  9.9916222078833894e-01  9.9888056458162522e-01  9.9848995734072010e-01  9.9795748070203805e-01  9.9724999900933542e-01  9.9634126125523892e-01  9.9522048423174270e-01  9.9389933366879879e-01  9.9241466354340102e-01  9.9082558102851304e-01  9.8920591312158845e-01  9.8763315636486360e-01  9.8617777134907791e-01  9.8489471725747835e-01  9.8381955376464769e-01  9.8296767978678135e-01  9.8233708169371103e-01  9.8191185768929434e-01  9.8166706197482523e-01  9.8157258073843978e-01  9.8159708717252181e-01  9.8171029318332581e-01  9.8188505465547060e-01  9.8209782009847146e-01  9.8232934458106347e-01  9.8256414690125526e-01  9.8279057659532765e-01  9.8299999722857412e-01  9.8318671294294468e-01  9.8334711968904065e-01  9.8347969797584900e-01  9.8358422136466972e-01  9.8366185870930345e-01  9.8371452118284120e-01  9.8374500552376420e-01  9.8375643235217369e-01  9.8375239512340085e-01  9.8373639492278153e-01  9.8371209062180676e-01  9.8368281374433109e-01  9.8365196763782570e-01  9.8362262093889297e-01  9.8359788322961417e-01  9.8358050591546942e-01  9.8357319828182932e-01  9.8357815346105226e-01  9.8359739586763772e-01  9.8363231169351606e-01  9.8368404493183614e-01  9.8375307839876247e-01  9.8383959164661128e-01  9.8394311797339407e-01  9.8406292982209875e-01  9.8419768999011714e-01  9.8434591756920431e-01  9.8450562417973908e-01  9.8467481568125292e-01  9.8485112222787108e-01  9.8503218146510652e-01  9.8521527811922616e-01  9.8539770697551043e-01  9.8557644271580991e-01  9.8574860703366929e-01  9.8591115927406814e-01  9.8606140761703376e-01  9.8619674473629804e-01  9.8631508891097297e-01  9.8641464666088052e-01  9.8649430663890691e-01  9.8655339286169774e-01  9.8659207136430516e-01  9.8661105528069992e-01  9.8661205023183352e-01  9.8659759189835128e-01  9.8657158710266091e-01  9.8653933342818767e-01  9.8650816198736480e-01  9.8648752126816053e-01  9.8648960516473128e-01  9.8652920544812095e-01  9.8662398089013847e-01  9.8679372802158272e-01  9.8705971766337430e-01  9.8744272140066591e-01  9.8796076950059897e-01  9.8862554143898707e-01  9.8943892387286780e-01  9.9038928951538252e-01  9.9144967057892508e-01  9.9257790474940366e-01  9.9372063559847723e-01  9.9482021631717099e-01  9.9582506590531783e-01  9.9669926222359084e-01  9.9742720210760105e-01  9.9801128796808003e-01  9.9846620876308989e-01  9.9881257637492593e-01  9.9907201604160645e-01  9.9926414540644370e-01  9.9940529507812670e-01  9.9950827118885466e-01  9.9958272741224574e-01  9.9963570585174988e-01  9.9967221173848064e-01  9.9969567914980972e-01  9.9970834735357395e-01  9.9971151615659926e-01  9.9970572702450544e-01  9.9969085749510822e-01  9.9966617403736746e-01  9.9963033213062447e-01  9.9958136792946339e-01  9.9951665253425936e-01  9.9943286321938962e-01  9.9932597633335407e-01  9.9919135522910396e-01  9.9902387738895615e-01  9.9881815195159362e-01  9.9856875769809661e-01  9.9827061692696173e-01  9.9791936926177338e-01  9.9751181714693749e-01  9.9704621489240974e-01  9.9652252206459602e-01  9.9594238776094179e-01  9.9530913094708673e-01  9.9462740739132882e-01  9.9390301855908270e-01  9.9314245555906289e-01  9.9235275459271433e-01  9.9154114324423126e-01  9.9071510478013169e-01  9.8988220471068322e-01  9.8905042268608601e-01  9.8822809764967801e-01  9.8742440757858518e-01  9.8664931363151742e-01  9.8591397498658861e-01  9.8523047129308805e-01  9.8461186795417843e-01  9.8407140823449268e-01  9.8362212845082886e-01  9.8327560608791165e-01  9.8304147835247746e-01  9.8292631144553300e-01  9.8293349732680324e-01  9.8306272067144607e-01  9.8331052296546184e-01  9.8367039727685290e-01  9.8413386353424281e-01  9.8469080384341146e-01  9.8533049259838046e-01  9.8604170079438769e-01  9.8681327609345793e-01  9.8763394799064896e-01  9.8849259931282296e-01  9.8937790021884997e-01  9.9027851289497459e-01  9.9118274682942764e-01  9.9207881214545512e-01  9.9295467845053786e-01  9.9379852583871731e-01  9.9459898575556094e-01  9.9534584150534655e-01  9.9603048161971919e-01  9.9664661728607384e-01  9.9719059227595319e-01  9.9766167755546598e-01  9.9806187856935458e-01  9.9839560012138162e-01  9.9866896186509713e-01  9.9888909169233231e-01  9.9906335917456746e-01  9.9919880307249165e-01  9.9930166716486191e-01  9.9937715484696799e-01  9.9942926319688963e-01  9.9946071722835939e-01  9.9947287758716818e-01  9.9946561022521718e-01  9.9943699665840535e-01  9.9938284832116298e-01  9.9929585467932303e-01  9.9916426176463935e-01  9.9896981794834983e-01  9.9868489908853764e-01  9.9826865850795132e-01  9.9766265894737538e-01  9.9678750566917129e-01  9.9554391371118756e-01  9.9382210791501602e-01  9.9152299155564605e-01  9.8858924819994076e-01  9.8503681614301197e-01  9.8097096481347534e-01  9.7657778816851504e-01  9.7209241740135022e-01  9.6775750620501355e-01  9.6378563743792856e-01  9.6033733035537050e-01  9.5751115466708425e-01  9.5534507947052472e-01  9.5382302128679652e-01  9.5288823944563450e-01  9.5245741000022432e-01  9.5243611293130870e-01  9.5272922818323447e-01  9.5324959823850508e-01  9.5392094785096693e-01  9.5468023825045178e-01  9.5547647534417779e-01  9.5627059443275586e-01  9.5703311092893162e-01  9.5774347352454681e-01  9.5838733722126668e-01  9.5895582947132274e-01  9.5944301256920028e-01  9.5984546280001437e-01  9.6016035745053097e-01  9.6038563223693563e-01  9.6051871771276576e-01  9.6055744736205928e-01  9.6049932768735102e-01  9.6034284303856343e-01  9.6008693344154550e-01  9.5973227649704651e-01  9.5928093223699384e-01  9.5873781231444433e-01  9.5811069986909336e-01  9.5741239756738139e-01  9.5666131953310019e-01  9.5588416112342245e-01  9.5511644549740504e-01  9.5440450391506315e-01  9.5380506349131999e-01  9.5338627951369159e-01  9.5322613214278384e-01  9.5341132496423908e-01  9.5403102760616187e-01  9.5516869232548196e-01  9.5688840271347653e-01  9.5922059905846913e-01  9.6214699716191965e-01  9.6559325437486188e-01  9.6942830824119652e-01  9.7347574221688271e-01  9.7753521385205344e-01  9.8141268861970343e-01  9.8494799693499913e-01  9.8803474236175559e-01  9.9062602697667212e-01  9.9272769128856042e-01  9.9438163764063059e-01  9.9564898619577580e-01  9.9659793737618885e-01  9.9729471039540407e-01  9.9779735368965106e-01  9.9815282497432078e-01  9.9839666044398134e-01  9.9855421338823325e-01  9.9864219443398705e-01  9.9867016683692045e-01  9.9864153653066479e-01  9.9855400855736731e-01  9.9839940509045311e-01  9.9816304785874033e-01  9.9782270169815712e-01  9.9734742146562283e-01  9.9669661569347123e-01  9.9582060363450753e-01  9.9466394992827623e-01  9.9317378844367832e-01  9.9131448280526957e-01  9.8908870071824107e-01  9.8656033320828629e-01  9.8387091601077814e-01  9.81236867357