<?xml version="1.0"?>
<VTKFile type="UnstructuredGrid"  version="0.1"  >
<UnstructuredGrid>
<Piece  NumberOfPoints="28121" NumberOfCells="55200">
<Points>
<DataArray  type="Float64"  NumberOfComponents="3"  format="ascii">0 0 0  0.008260869565217391 0 0  0.01652173913043478 0 0  0.02478260869565217 0 0  0.03304347826086956 0 0  0.04130434782608695 0 0  0.04956521739130434 0 0  0.05782608695652174 0 0  0.06608695652173913 0 0  0.07434782608695652 0 0  0.08260869565217391 0 0  0.0908695652173913 0 0  0.09913043478260869 0 0  0.1073913043478261 0 0  0.1156521739130435 0 0  0.1239130434782609 0 0  0.1321739130434783 0 0  0.1404347826086956 0 0  0.148695652173913 0 0  0.1569565217391304 0 0  0.1652173913043478 0 0  0.1734782608695652 0 0  0.1817391304347826 0 0  0.19 0 0  0.1982608695652174 0 0  0.2065217391304348 0 0  0.2147826086956522 0 0  0.2230434782608696 0 0  0.2313043478260869 0 0  0.2395652173913043 0 0  0.2478260869565218 0 0  0.2560869565217391 0 0  0.2643478260869565 0 0  0.2726086956521739 0 0  0.2808695652173913 0 0  0.2891304347826087 0 0  0.2973913043478261 0 0  0.3056521739130434 0 0  0.3139130434782609 0 0  0.3221739130434783 0 0  0.3304347826086956 0 0  0.338695652173913 0 0  0.3469565217391304 0 0  0.3552173913043478 0 0  0.3634782608695652 0 0  0.3717391304347826 0 0  0.3799999999999999 0 0  0.3882608695652174 0 0  0.3965217391304348 0 0  0.4047826086956521 0 0  0.4130434782608696 0 0  0.4213043478260869 0 0  0.4295652173913043 0 0  0.4378260869565217 0 0  0.4460869565217391 0 0  0.4543478260869565 0 0  0.4626086956521739 0 0  0.4708695652173913 0 0  0.4791304347826086 0 0  0.4873913043478261 0 0  0.4956521739130435 0 0  0.5039130434782608 0 0  0.5121739130434783 0 0  0.5204347826086956 0 0  0.528695652173913 0 0  0.5369565217391304 0 0  0.5452173913043478 0 0  0.5534782608695652 0 0  0.5617391304347825 0 0  0.57 0 0  0.5782608695652174 0 0  0.5865217391304348 0 0  0.5947826086956521 0 0  0.6030434782608696 0 0  0.6113043478260869 0 0  0.6195652173913043 0 0  0.6278260869565218 0 0  0.6360869565217391 0 0  0.6443478260869565 0 0  0.6526086956521739 0 0  0.6608695652173913 0 0  0.6691304347826087 0 0  0.677391304347826 0 0  0.6856521739130435 0 0  0.6939130434782609 0 0  0.7021739130434783 0 0  0.7104347826086956 0 0  0.718695652173913 0 0  0.7269565217391304 0 0  0.7352173913043478 0 0  0.7434782608695653 0 0  0.7517391304347827 0 0  0.7599999999999999 0 0  0.7682608695652173 0 0  0.7765217391304348 0 0  0.7847826086956522 0 0  0.7930434782608695 0 0  0.8013043478260868 0 0  0.8095652173913043 0 0  0.8178260869565217 0 0  0.8260869565217391 0 0  0.8343478260869565 0 0  0.8426086956521739 0 0  0.8508695652173912 0 0  0.8591304347826086 0 0  0.8673913043478261 0 0  0.8756521739130434 0 0  0.8839130434782608 0 0  0.8921739130434783 0 0  0.9004347826086956 0 0  0.908695652173913 0 0  0.9169565217391303 0 0  0.9252173913043478 0 0  0.9334782608695652 0 0  0.9417391304347826 0 0  0.95 0 0  0.9582608695652173 0 0  0.9665217391304347 0 0  0.9747826086956521 0 0  0.9830434782608696 0 0  0.991304347826087 0 0  0.9995652173913042 0 0  1.007826086956522 0 0  1.016086956521739 0 0  1.024347826086957 0 0  1.032608695652174 0 0  1.040869565217391 0 0  1.049130434782609 0 0  1.057391304347826 0 0  1.065652173913043 0 0  1.073913043478261 0 0  1.082173913043478 0 0  1.090434782608696 0 0  1.098695652173913 0 0  1.10695652173913 0 0  1.115217391304348 0 0  1.123478260869565 0 0  1.131739130434783 0 0  1.14 0 0  1.148260869565217 0 0  1.156521739130435 0 0  1.164782608695652 0 0  1.17304347826087 0 0  1.181304347826087 0 0  1.189565217391304 0 0  1.197826086956522 0 0  1.206086956521739 0 0  1.214347826086956 0 0  1.222608695652174 0 0  1.230869565217391 0 0  1.239130434782609 0 0  1.247391304347826 0 0  1.255652173913044 0 0  1.263913043478261 0 0  1.272173913043478 0 0  1.280434782608696 0 0  1.288695652173913 0 0  1.296956521739131 0 0  1.305217391304348 0 0  1.313478260869565 0 0  1.321739130434783 0 0  1.33 0 0  1.338260869565217 0 0  1.346521739130435 0 0  1.354782608695652 0 0  1.36304347826087 0 0  1.371304347826087 0 0  1.379565217391304 0 0  1.387826086956522 0 0  1.396086956521739 0 0  1.404347826086957 0 0  1.412608695652174 0 0  1.420869565217391 0 0  1.429130434782609 0 0  1.437391304347826 0 0  1.445652173913043 0 0  1.453913043478261 0 0  1.462173913043478 0 0  1.470434782608696 0 0  1.478695652173913 0 0  1.486956521739131 0 0  1.495217391304348 0 0  1.503478260869565 0 0  1.511739130434782 0 0  1.52 0 0  1.528260869565217 0 0  1.536521739130435 0 0  1.544782608695652 0 0  1.55304347826087 0 0  1.561304347826087 0 0  1.569565217391304 0 0  1.577826086956522 0 0  1.586086956521739 0 0  1.594347826086957 0 0  1.602608695652174 0 0  1.610869565217391 0 0  1.619130434782609 0 0  1.627391304347826 0 0  1.635652173913043 0 0  1.643913043478261 0 0  1.652173913043478 0 0  1.660434782608696 0 0  1.668695652173913 0 0  1.67695652173913 0 0  1.685217391304348 0 0  1.693478260869565 0 0  1.701739130434782 0 0  1.71 0 0  1.718260869565217 0 0  1.726521739130435 0 0  1.734782608695652 0 0  1.743043478260869 0 0  1.751304347826087 0 0  1.759565217391304 0 0  1.767826086956522 0 0  1.776086956521739 0 0  1.784347826086957 0 0  1.792608695652174 0 0  1.800869565217391 0 0  1.809130434782608 0 0  1.817391304347826 0 0  1.825652173913043 0 0  1.833913043478261 0 0  1.842173913043478 0 0  1.850434782608696 0 0  1.858695652173913 0 0  1.86695652173913 0 0  1.875217391304348 0 0  1.883478260869565 0 0  1.891739130434782 0 0  1.9 0 0  1.908260869565217 0 0  1.916521739130435 0 0  1.924782608695652 0 0  1.933043478260869 0 0  1.941304347826087 0 0  1.949565217391304 0 0  1.957826086956522 0 0  1.966086956521739 0 0  1.974347826086956 0 0  1.982608695652174 0 0  1.990869565217391 0 0  1.999130434782608 0 0  2.007391304347826 0 0  2.015652173913043 0 0  2.023913043478261 0 0  2.032173913043478 0 0  2.040434782608695 0 0  2.048695652173913 0 0  2.05695652173913 0 0  2.065217391304348 0 0  2.073478260869565 0 0  2.081739130434782 0 0  2.09 0 0  2.098260869565217 0 0  2.106521739130435 0 0  2.114782608695652 0 0  2.12304347826087 0 0  2.131304347826087 0 0  2.139565217391304 0 0  2.147826086956522 0 0  2.156086956521739 0 0  2.164347826086956 0 0  2.172608695652174 0 0  2.180869565217391 0 0  2.189130434782609 0 0  2.197391304347826 0 0  2.205652173913043 0 0  2.213913043478261 0 0  2.222173913043478 0 0  2.230434782608695 0 0  2.238695652173913 0 0  2.24695652173913 0 0  2.255217391304348 0 0  2.263478260869565 0 0  2.271739130434783 0 0  2.28 0 0  2.288260869565217 0 0  2.296521739130434 0 0  2.304782608695652 0 0  2.31304347826087 0 0  2.321304347826087 0 0  2.329565217391304 0 0  2.337826086956521 0 0  2.346086956521739 0 0  2.354347826086956 0 0  2.362608695652174 0 0  2.370869565217391 0 0  2.379130434782609 0 0  2.387391304347826 0 0  2.395652173913044 0 0  2.403913043478261 0 0  2.412173913043478 0 0  2.420434782608695 0 0  2.428695652173913 0 0  2.43695652173913 0 0  2.445217391304348 0 0  2.453478260869565 0 0  2.461739130434782 0 0  2.47 0 0  2.478260869565217 0 0  2.486521739130435 0 0  2.494782608695652 0 0  2.503043478260869 0 0  2.511304347826087 0 0  2.519565217391305 0 0  2.527826086956522 0 0  2.536086956521739 0 0  2.544347826086956 0 0  2.552608695652174 0 0  2.560869565217391 0 0  2.569130434782608 0 0  2.577391304347826 0 0  2.585652173913043 0 0  2.593913043478261 0 0  2.602173913043478 0 0  2.610434782608696 0 0  2.618695652173913 0 0  2.62695652173913 0 0  2.635217391304348 0 0  2.643478260869565 0 0  2.651739130434783 0 0  2.66 0 0  2.668260869565217 0 0  2.676521739130435 0 0  2.684782608695652 0 0  2.693043478260869 0 0  2.701304347826087 0 0  2.709565217391304 0 0  2.717826086956522 0 0  2.726086956521739 0 0  2.734347826086956 0 0  2.742608695652174 0 0  2.750869565217391 0 0  2.759130434782609 0 0  2.767391304347826 0 0  2.775652173913044 0 0  2.783913043478261 0 0  2.792173913043478 0 0  2.800434782608696 0 0  2.808695652173913 0 0  2.81695652173913 0 0  2.825217391304347 0 0  2.833478260869565 0 0  2.841739130434783 0 0  2.85 0 0  2.858260869565217 0 0  2.866521739130435 0 0  2.874782608695652 0 0  2.88304347826087 0 0  2.891304347826087 0 0  2.899565217391304 0 0  2.907826086956522 0 0  2.916086956521739 0 0  2.924347826086957 0 0  2.932608695652174 0 0  2.940869565217391 0 0  2.949130434782608 0 0  2.957391304347826 0 0  2.965652173913043 0 0  2.973913043478261 0 0  2.982173913043478 0 0  2.990434782608696 0 0  2.998695652173913 0 0  3.006956521739131 0 0  3.015217391304348 0 0  3.023478260869565 0 0  3.031739130434782 0 0  3.04 0 0  3.048260869565218 0 0  3.056521739130435 0 0  3.064782608695652 0 0  3.073043478260869 0 0  3.081304347826087 0 0  3.089565217391304 0 0  3.097826086956522 0 0  3.106086956521739 0 0  3.114347826086956 0 0  3.122608695652174 0 0  3.130869565217391 0 0  3.139130434782609 0 0  3.147391304347826 0 0  3.155652173913043 0 0  3.163913043478261 0 0  3.172173913043478 0 0  3.180434782608696 0 0  3.188695652173913 0 0  3.19695652173913 0 0  3.205217391304347 0 0  3.213478260869565 0 0  3.221739130434782 0 0  3.23 0 0  3.238260869565217 0 0  3.246521739130435 0 0  3.254782608695652 0 0  3.26304347826087 0 0  3.271304347826087 0 0  3.279565217391304 0 0  3.287826086956521 0 0  3.296086956521739 0 0  3.304347826086957 0 0  3.312608695652174 0 0  3.320869565217391 0 0  3.329130434782608 0 0  3.337391304347826 0 0  3.345652173913043 0 0  3.353913043478261 0 0  3.362173913043478 0 0  3.370434782608696 0 0  3.378695652173913 0 0  3.386956521739131 0 0  3.395217391304348 0 0  3.403478260869565 0 0  3.411739130434782 0 0  3.419999999999999 0 0  3.428260869565217 0 0  3.436521739130435 0 0  3.444782608695652 0 0  3.453043478260869 0 0  3.461304347826087 0 0  3.469565217391304 0 0  3.477826086956522 0 0  3.486086956521739 0 0  3.494347826086956 0 0  3.502608695652174 0 0  3.510869565217391 0 0  3.519130434782609 0 0  3.527391304347826 0 0  3.535652173913043 0 0  3.54391304347826
[...]
<PointData  Scalars="rho_bar"> 
<DataArray  type="Float64"  Name="rho_bar"  format="ascii">9.9999979577333520e-01  1.0000006825417562e+00  1.0000013502912177e+00  1.0000025093607823e+00  1.0000040382596469e+00  1.0000059445415723e+00  1.0000077638147202e+00  1.0000088049458957e+00  1.0000079339852130e+00  1.0000045756225042e+00  9.9999972501991896e-01  9.9999426463436158e-01  9.9998740515832363e-01  9.9997889784546623e-01  9.9997098548202334e-01  9.9996737006859693e-01  9.9997161115910682e-01  9.9998422099181772e-01  1.0000007304651650e+00  1.0000163859706743e+00  1.0000312705704533e+00  1.0000472537464855e+00  1.0000631629659409e+00  1.0000759692024368e+00  1.0000840739912857e+00  1.0000876622697665e+00  1.0000873568386273e+00  1.0000834971907631e+00  1.0000761670752982e+00  1.0000655338551616e+00  1.0000523996839064e+00  1.0000383715199466e+00  1.0000248398342446e+00  1.0000117058462292e+00  9.9999812076605310e-01  9.9998482872712458e-01  9.9997457270743706e-01  9.9996958157396987e-01  9.9996968375552264e-01  9.9997321172672060e-01  9.9997854342275128e-01  9.9998436339528662e-01  9.9998956368289416e-01  9.9999367232936864e-01  9.9999702670282831e-01  1.0000001462269443e+00  1.0000030956721264e+00  1.0000055566985553e+00  1.0000072635788138e+00  1.0000082041592653e+00  1.0000085208762250e+00  1.0000083653386740e+00  1.0000078436296898e+00  1.0000070105203216e+00  1.0000058806350811e+00  1.0000045153571036e+00  1.0000031011236366e+00  1.0000017686763136e+00  1.0000003857524939e+00  9.9999891589023293e-01  9.9999791606360622e-01  9.9999807508306238e-01  9.9999918307191193e-01  1.0000001639985518e+00  1.0000003363999181e+00  1.0000000655599868e+00  9.9999993708958701e-01  9.9999998603879259e-01  1.0000000131617295e+00  1.0000000002036162e+00  9.9999999765640701e-01  1.0000000006844203e+00  1.0000000001370069e+00  9.9999999983776644e-01  1.0000000000486933e+00  1.0000000000026144e+00  9.9999999999593614e-01  9.9999999997697031e-01  1.0000000000652778e+00  9.9999999997193822e-01  9.9999999964927866e-01  1.0000000011156369e+00  9.9999999946091123e-01  9.9999999456345523e-01  1.0000000128801232e+00  1.0000000103013655e+00  9.9999992329060361e-01  1.0000000085909382e+00  1.0000003461877633e+00  9.9999997983238720e-01  9.9999862317687083e-01  9.9999886569484397e-01  1.0000028674338399e+00  1.0000072631789447e+00  1.0000063778758612e+00  9.9999980744046613e-01  9.9999170204875820e-01  9.9998475280371968e-01  9.9997943170117531e-01  9.9997601447637274e-01  9.9997432921859231e-01  9.9997358201087305e-01  9.9997314469691956e-01  9.9997273203474135e-01  9.9997221085758647e-01  9.9997154151156897e-01  9.9997075895431442e-01  9.9996995900448249e-01  9.9996926056604407e-01  9.9996876247182864e-01  9.9996854525662315e-01  9.9996869850992587e-01  9.9996933126783671e-01  9.9997056013190422e-01  9.9997248958610618e-01  9.9997518599760482e-01  9.9997864410740178e-01  9.9998276311901202e-01  9.9998735392919014e-01  9.9999217334633894e-01  9.9999696486449274e-01  1.0000014993671715e+00  1.0000056108570945e+00  1.0000092099551114e+00  1.0000122752603904e+00  1.0000148412876626e+00  1.0000169843181401e+00  1.0000187998628354e+00  1.0000203808011345e+00  1.0000218023867242e+00  1.0000231135456696e+00  1.0000243416612820e+00  1.0000255109987239e+00  1.0000266570520702e+00  1.0000278234699893e+00  1.0000290488630197e+00  1.0000303583050474e+00  1.0000317628885078e+00  1.0000332592651691e+00  1.0000348239821137e+00  1.0000364104776978e+00  1.0000379596002853e+00  1.0000394151152845e+00  1.0000407238647882e+00  1.0000418219080003e+00  1.0000426282185759e+00  1.0000430569204433e+00  1.0000430398148556e+00  1.0000425434533529e+00  1.0000415718894604e+00  1.0000401613954701e+00  1.0000383767557703e+00  1.0000363090109567e+00  1.0000340726113652e+00  1.0000318028003532e+00  1.0000296474773662e+00  1.0000277452945301e+00  1.0000261991515391e+00  1.0000250705587910e+00  1.0000244025730547e+00  1.0000242457443556e+00  1.0000246649024447e+00  1.0000257353641224e+00  1.0000275434952133e+00  1.0000301915700798e+00  1.0000338014667336e+00  1.0000385050346401e+00  1.0000443935838204e+00  1.0000514514053485e+00  1.0000595558715570e+00  1.0000684415491938e+00  1.0000774902009499e+00  1.0000856587974332e+00  1.0000918585903233e+00  1.0000950622355014e+00  1.0000937613065979e+00  1.0000850496574951e+00  1.0000629457584771e+00  1.0000254387862573e+00  9.9999068210424702e-01  9.9998310243560129e-01  9.9999575299942478e-01  1.0000028516829458e+00  1.0000006443105911e+00  9.9999939057114473e-01  1.0000000556148489e+00  1.0000000798997819e+00  9.9999995956136134e-01  1.0000000058396263e+00  1.0000000030146925e+00  9.9999999774615533e-01  1.0000000007912544e+00  9.9999999946025475e-01  1.0000000010274250e+00  1.0000000001473595e+00  9.9999999395946582e-01  1.0000000080962033e+00  1.0000000228350876e+00  9.9999994465925879e-01  9.9999991902085117e-01  1.0000002466113567e+00  1.0000003953760197e+00  9.9999930268800430e-01  9.9999802920953929e-01  9.9999987068349538e-01  1.0000050305486581e+00  1.0000080755602225e+00  1.0000040027256711e+00  9.9999350429016687e-01  9.9998075755105620e-01  9.9997040172440099e-01  9.9996689193483945e-01  9.9997257604746204e-01  9.9998526870221560e-01  9.9999968310697807e-01  1.0000121811321292e+00  1.0000230003872483e+00  1.0000340283970275e+00  1.0000462505488694e+00  1.0000593228399064e+00  1.0000722461638309e+00  1.0000840557754158e+00  1.0000941472134233e+00  1.0001022323465081e+00  1.0001081951250743e+00  1.0001120651876254e+00  1.0001140877621328e+00  1.0001147467187357e+00  1.0001146657598694e+00  1.0001144118626604e+00  1.0001142555718678e+00  1.0001139682378917e+00  1.0001127867977448e+00  1.0001096454315139e+00  1.0001035612703919e+00  1.0000939173576731e+00  1.0000807058644374e+00  1.0000649623004625e+00  1.0000488300037953e+00  1.0000344685657312e+00  1.0000226679657196e+00  1.0000128468352933e+00  1.0000042394495396e+00  9.9999664443874681e-01  9.9999020077653777e-01  9.9998494076889932e-01  9.9998066275328834e-01  9.9997704101917095e-01  9.9997378654431879e-01  9.9997084881590204e-01  9.9996873392231178e-01  9.9996871491407646e-01  9.9997261650772307e-01  9.9998185433310194e-01  9.9999459881991026e-01  1.0000040553917546e+00  1.0000049269618450e+00  1.0000009768457767e+00  9.9999909131387754e-01  9.9999977441126686e-01  1.0000001876254232e+00  1.0000000029885798e+00  9.9999996794811519e-01  1.0000000102391311e+00  1.0000000009455854e+00  9.9999999816412521e-01  1.0000000006122427e+00  9.9999999977772747e-01  1.0000000013934092e+00  9.9999999581926513e-01  1.0000000038968075e+00  1.0000000162202616e+00  9.9999993118608943e-01  1.0000000638357907e+00  1.0000002775195127e+00  9.9999919544939719e-01  9.9999945466201601e-01  1.0000042258488300e+00  1.0000014950743468e+00  9.9998318075539760e-01  9.9998156261407911e-01  1.0000305122544499e+00  1.0000949467500242e+00  1.0001041382779063e+00  1.0000479078272548e+00  9.9997934709380998e-01  9.9993711421954068e-01  9.9992039487159279e-01  9.9992001549900389e-01  9.9993183079178871e-01  9.9995237321474839e-01  9.9997841093302631e-01  1.0000067624437243e+00  1.0000338047507591e+00  1.0000565764205851e+00  1.0000737170957446e+00  1.0000854725560329e+00  1.0000930378716251e+00  1.0000977292020541e+00  1.0001005289907081e+00  1.0001020664645988e+00  1.0001027405489467e+00  1.0001028238562790e+00  1.0001025271025057e+00  1.0001020301569850e+00  1.0001014964329153e+00  1.0001010707755607e+00  1.0001008544127401e+00  1.0001008778100575e+00  1.0001010930116232e+00  1.0001013886076568e+00  1.0001016250017092e+00  1.0001016658477053e+00  1.0001013781204151e+00  1.0001006085612494e+00  1.0000991542049182e+00  1.0000967263189466e+00  1.0000928973770644e+00  1.0000870545905451e+00  1.0000784775111671e+00  1.0000666592210470e+00  1.0000516995169861e+00  1.0000343571064658e+00  1.0000157800150928e+00  9.9999743806102148e-01  9.9998118559116389e-01  9.9996903205857612e-01  9.9996311010928518e-01  9.9996595587222870e-01  9.9998182611172004e-01  1.0000177559268355e+00  1.0000695084658751e+00  1.0001000238760036e+00  1.0000719526829007e+00  1.0000137574395978e+00  9.9998707662495911e-01  9.9999537771514124e-01  1.0000023673476410e+00  1.0000003335025642e+00  9.9999952807561465e-01  1.0000001165027474e+00  1.0000000244645844e+00  9.9999997068447355e-01  1.0000000109632912e+00  9.9999999898136138e-01  9.9999999966050468e-01  9.9999999436280762e-01  1.0000000134968654e+00  1.0000000083591074e+00  9.9999990779353576e-01  1.0000000848325432e+00  1.0000003707027358e+00  9.9999929233413631e-01  9.9999859077369058e-01  1.0000031393494750e+00  1.0000064989544899e+00  9.9999336468007882e-01  9.9997312326952548e-01  9.9998342689194486e-01  1.0000409566807289e+00  1.0001048534267474e+00  1.0001084631107733e+00  1.0000365924466013e+00  9.9993706150789452e-01  9.9984899177635700e-01  9.9978250489458320e-01  9.9975165648048292e-01  9.9977088624906885e-01  9.9985025031467534e-01  9.9997777996555059e-01  1.0000715732636765e+00  1.0000592722676809e+00  1.0000017335214373e+00  9.9998747296608015e-01  1.0000004286885718e+00  1.0000021177957599e+00  9.9999933363550841e-01  9.9999989676152534e-01  1.0000001456429317e+00  9.9999993101151829e-01  1.0000001590513652e+00  9.9999922580530920e-01  1.0000020230610749e+00  1.0000057603489541e+00  9.9988902381228417e-01  1.0008231604137587e+00  9.9569276868392953e-01  1.0172793400646833e+00  9.4699488643784513e-01  1.1188335782353025e+00  -1.4351534377057638e-03  1.9726396118958781e-03  -2.8163023782708176e-04  3.5616793164389134e-05  -1.0095016215967468e-05  3.3507071572018619e-06  -6.7185889796728172e-07  -1.2296993078163658e-09  6.1505515136966203e-08  -3.0193961433769652e-08  1.0186900900867498e-08  -2.8856389178901498e-09  7.5031052570452289e-10  -1.9037617693684810e-10  4.8964849234714301e-11  -1.2852319610727537e-11  3.3713691469398024e-12  -8.5290288463651729e-13  1.9828409813175620e-13  -3.8544661442935628e-14  4.2477442732160186e-15  1.1457674274687380e-15  -1.0922789282307511e-15  5.3964153191608146e-16  -2.1458317887443930e-16  7.4672121316793322e-17  -2.3250334384055544e-17  6.4443124900590997e-18  -1.5330689370635625e-18  2.7629399142250691e-19  -1.4453933895377632e-20  -1.7745261491271558e-20  1.1568239395955323e-20  -4.9866887526429962e-21  1.7865910973457723e-21  -5.6431674353741565e-22  1.5991040694913161e-22  -4.0453848625209491e-23  8.8313262762879327e-24  -1.4775278890533779e-24  7.8346147674398061e-26  7.9389606865923897e-26  -5.0378474832589420e-26  2.1384811755834545e-26  -7.7487828864567899e-27  2.5679664484386424e-27  -8.0219763113973279e-28  2.3994199243854292e-28  -6.9285886288339911e-29  1.9374948608807105e-29  -5.2408070537087864e-30  1.3658445728930352e-30  -3.4070777501667759e-31  8.0384995173365277e-32  -1.7621006800024494e-32  3.5140062191655062e-33  -6.1113998132216880e-34  7.7046939602723508e-35  6.2741555489242149e-37  -3.7871070608576420e-36  1.1391720041949695e-36  -3.1060870371748386e-37  1.5113519404956474e-37  -5.2509214632720469e-38  -4.9187598487168717e-40  6.8754319740044660e-39  -9.7265243601371156e-40  -1.1311381234769296e-39  4.8300364529925828e-40  8.9005419523379124e-41  -1.7494994471761004e-40  1.0000017393257550e+00  9.9999919751956579e-01  9.9999818182287969e-01  9.9999617135218921e-01  9.9999360629002221e-01  9.9999005197985136e-01  9.9998621335823923e-01  9.9998312045385762e-01  9.9998261580848025e-01  9.9998689195167123e-01  9.9999555167824250e-01  1.0000058531335592e+00  1.0000177878742267e+00  1.0000334154108801e+00  1.0000506957325366e+00  1.0000632138643537e+00  1.0000633776092824e+00  1.0000459933831811e+00  1.0000151728292210e+00  9.9998233229403055e-01  9.9995250927612878e-01  9.9992185915392418e-01  9.9988916283841378e-01  9.9985973678929352e-01  9.9983873712477345e-01  9.9982722516525768e-01  9.9982407261047190e-01  9.9982827714336620e-01  9.9983946932736500e-01  9.9985751392375888e-01  9.9988160113113689e-01  9.9990924712957074e-01  9.9993701855149553e-01  9.9996342326266574e-01  9.9998997889848429e-01  1.0000173915166659e+00  1.0000417755652029e+00  1.0000573011619274e+00  1.0000618258846747e+00  1.0000577261984016e+00  1.0000485250322912e+00  1.0000370571384425e+00  1.0000257991228660e+00  1.0000164919661148e+00  1.0000091958529094e+00  1.0000028147604418e+00  9.9999668537124198e-01  9.9999117614962041e-01  9.9998697412923487e-01  9.9998435470540514e-01  9.9998314058927074e-01  9.9998301203307616e-01  9.9998370969793571e-01  9.9998507148348770e-01  9.9998703482315232e-01  9.9998956033288311e-01  9.9999240271643874e-01  9.9999515189593702e-01  9.9999779863705240e-01  1.0000007018221846e+00  1.0000033995990603e+00  1.0000043567234667e+00  1.0000028684595779e+00  1.0000004627838730e+00  9.9999928548454853e-01  9.9999959053642151e-01  1.0000000760388601e+00  1.0000000868929806e+00  9.9999997986497580e-01  9.9999998752862307e-01  1.0000000064514527e+00  1.0000000001353024e+00  9.9999999891472313e-01  1.0000000004131544e+00  9.9999999998068956e-01  9.9999999995303213e-01  1.0000000000168039e+00  1.0000000000055889e+00  1.0000000000328848e+00  9.9999999979682186e-01  1.0000000004300793e+00  1.0000000000782885e+00  9.9999999701969877e-01  1.0000000067580139e+00  1.0000000033810978e+00  9.9999995554611620e-01  1.0000000454644180e+00  1.0000001752176102e+00  9.9999966427038300e-01  9.9999930295465689e-01  1.0000012728658572e+00  1.0000034348399081e+00  9.9999922277019826e-01  9.9998911049138084e-01  9.9998447731692874e-01  9.9999285374577573e-01  1.0000086839705098e+00  1.0000239297611138e+00  1.0000362449527551e+00  1.0000450763036659e+00  1.0000499998073269e+00  1.0000522142932669e+00  1.0000533027163505e+00  1.0000541061700765e+00  1.0000550199484384e+00  1.0000562107056405e+00  1.0000576798536962e+00  1.0000592930253274e+00  1.0000608202010404e+00  1.0000620373626656e+00  1.0000627723105060e+00  1.0000628614287403e+00  1.0000621047792440e+00  1.0000602720963252e+00  1.0000571370809865e+00  1.0000525210959339e+00  1.0000463540644902e+00  1.0000387390549883e+00  1.0000299725696700e+00  1.0000204974100755e+00  1.0000108231540572e+00  1.0000014458957001e+00  9.9999276814198124e-01  9.9998504462558502e-01  9.9997838245032944e-01  9.9997276614710329e-01  9.9996808020063288e-01  9.9996414626968633e-01  9.9996077158216001e-01  9.9995778488964626e-01  9.9995506077676866e-01  9.9995252656220845e-01  9.9995013618173600e-01  9.9994783146540245e-01  9.9994553014401533e-01  9.9994314648845894e-01  9.9994061603495021e-01  9.9993790317412867e-01  9.9993499937522290e-01  9.9993192939394304e-01  9.9992876378826545e-01  9.9992561298742499e-01  9.9992259541520845e-01  9.9991981750638415e-01  9.9991739238759048e-01  9.9991546584670754e-01  9.9991421008332293e-01  9.9991378513861218e-01  9.9991429522990283e-01  9.9991576855786068e-01  9.9991816334932537e-01  9.9992137814162896e-01  9.9992525638782648e-01  9.9992959189571584e-01  9.9993413436451362e-01  9.9993859719004197e-01  9.9994268633039951e-01  9.9994615447153934e-01  9.9994884014716934e-01  9.9995064731414296e-01  9.9995148681510182e-01  9.9995124221406539e-01  9.9994977252434381e-01  9.9994691718444340e-01  9.9994248886279835e-01  9.9993626394597013e-01  9.9992798335144961e-01  9.9991740401933460e-01  9.9990443700919163e-01  9.9988923404705465e-01  9.9987215186098277e-01  9.9985400045516137e-01  9.9983647876865356e-01  9.9982187044338933e-01  9.9981219326915449e-01  9.9980981007586212e-01  9.9981885005782922e-01  9.9984764743713306e-01  9.9990827106554603e-01  9.9998859864430989e-01  1.0000350844320101e+00  1.0000223907093426e+00  9.9999737323309978e-01  9.9999587306304605e-01  1.0000010728781275e+00  1.0000004054457106e+00  9.9999969247427278e-01  1.0000000602382690e+00  1.0000000182079365e+00  9.9999998298514892e-01  1.0000000061778740e+00  9.9999999868067890e-01  1.0000000003423442e+00  1.0000000003675440e+00  9.9999999674636508e-01  1.0000000053181028e+00  1.0000000086817120e+00  9.9999995863239277e-01  9.9999999648460602e-01  1.0000001986096412e+00  9.9999994869248898e-01  9.9999915427499864e-01  9.9999988494725334e-01  1.0000029946959457e+00  1.0000033309896785e+00  9.9999552708072803e-01  9.9998540815143144e-01  9.9998584853072769e-01  1.0000013533670562e+00  1.0000257536240724e+00  1.0000500207154661e+00  1.0000649493683753e+00  1.0000628859411662e+00  1.0000433055979114e+00  1.0000147587182122e+00  9.9998746704367270e-01  9.9996464781281869e-01  9.9994324626084952e-01  9.9992004307999893e-01  9.9989452965491865e-01  9.9986825346900365e-01  9.9984331873183263e-01  9.9982131725328283e-01  9.9980309704547055e-01  9.9978903474573633e-01  9.9977923111194922e-01  9.9977343188153511e-01  9.9977089887884374e-01  9.9977048420389625e-01  9.9977093922573379e-01  9.9977136452034276e-01  9.9977167871369432e-01  9.9977289538773451e-01  9.9977693738423656e-01  9.9978595228706746e-01  9.9980158250707696e-01  9.9982453185241149e-01  9.9985391072514063e-01  9.9988643443929859e-01  9.9991736011617327e-01  9.9994348520183796e-01  9.9996485320046180e-01  9.9998315258600456e-01  9.9999938342833883e-01  1.0000134631423661e+00  1.0000251419241841e+00  1.0000346040041943e+00  1.0000424168418958e+00  1.0000492354517794e+00  1.0000554599977189e+00  1.0000607333212543e+00  1.0000632830468126e+00  1.0000598969959320e+00  1.0000469688572999e+00  1.0000238604795688e+00  9.9999938819826417e-01  9.9998868273558583e-01  9.9999402026010442e-01  1.0000010400646937e+00  1.0000013103651433e+00  9.9999972693139749e-01  9.9999982149240052e-01  1.0000000917550833e+00  9.9999999778670856e-01  9.9999998704903892e-01  1.0000000059125678e+00  9.9999999881612878e-01  1.0000000003762082e+00  9.9999999928777550e-01  9.9999999873349288e-01  1.0000000111635967e+00  9.9999997112620820e-01  1.0000000126715503e+00  1.0000001537421461e+00  9.9999955039767174e-01  9.9999998740118701e-01  1.0000025601598486e+00  9.9999736520498106e-01  9.9998948238034080e-01  1.0000123290944973e+00  1.0000465997950880e+00  1.0000018658577425e+00  9.9986834269684643e-01  9.9977949178689374e-01  9.9983666609074062e-01  9.9997786774162711e-01  1.0000915799535339e+00  1.0001472064051273e+00  1.0001630441207889e+00  1.0001507965504282e+00  1.0001175167171514e+00  1.0000702427758650e+00  1.0000149565952980e+00  9.9995864823092717e-01  9.9990826808378541e-01  9.9986824173026656e-01  9.9983958249322802e-01  9.9982062235405422e-01  9.9980866315115136e-01  9.9980136581071188e-01  9.9979714938309971e-01  9.9979501645260338e-01  9.9979431673949948e-01  9.9979457786536285e-01  9.9979541381994896e-01  9.9979648394087484e-01  9.9979747629361571e-01  9.9979813595639744e-01  9.9979832651210576e-01  9.9979806634507806e-01  9.9979752141073652e-01  9.9979695375916899e-01  9.9979664400756341e-01  9.9979685688779663e-01  9.9979787154601318e-01  9.9980003660709615e-01  9.9980383333756229e-01  9.9980996191410021e-01  9.9981945549943363e-01  9.9983369328425920e-01  9.9985401727585399e-01  9.9988091654629707e-01  9.9991347673830722e-01  9.9994971217552175e-01  9.9998705019467005e-01  1.0000221528183029e+00  1.0000510553475384e+00  1.0000697006256345e+00  1.0000734750802669e+00  1.0000561891917843e+00  1.0000064765728902e+00  9.9991458835732605e-01  9.9981799634330470e-01  9.9981120145410629e-01  9.9991604983929361e-01  1.0000131631879388e+00  1.0000210393597952e+00  9.9999810550847046e-01  9.9999693683974744e-01  1.0000011149409236e+00  1.0000000758295686e+00  9.9999979839208109e-01  1.0000000846205461e+00  9.9999998561208669e-01  9.9999999666511330e-01  1.0000000010788963e+00  1.0000000032674965e+00  1.0000000070653874e+00  9.9999995108305051e-01  1.0000000631944199e+00  1.0000001668291376e+00  9.9999943942508807e-01  9.9999975988335521e-01  1.0000028823760145e+00  1.0000001294611029e+00  9.9998790762637291e-01  9.9999434349537131e-01  1.0000357513523754e+00  1.0000564830530274e+00  9.9998619629600261e-01  9.9984679350245587e-01  9.9976393632154192e-01  9.9983995140945514e-01  1.0000275089413988e+00  1.0002185144234299e+00  1.0003747270462457e+00  1.0004774341415541e+00  1