<?xml version="1.0"?>
<VTKFile type="UnstructuredGrid"  version="0.1"  >
<UnstructuredGrid>
<Piece  NumberOfPoints="28121" NumberOfCells="55200">
<Points>
<DataArray  type="Float64"  NumberOfComponents="3"  format="ascii">0 0 0  0.008260869565217391 0 0  0.01652173913043478 0 0  0.02478260869565217 0 0  0.03304347826086956 0 0  0.04130434782608695 0 0  0.04956521739130434 0 0  0.05782608695652174 0 0  0.06608695652173913 0 0  0.07434782608695652 0 0  0.08260869565217391 0 0  0.0908695652173913 0 0  0.09913043478260869 0 0  0.1073913043478261 0 0  0.1156521739130435 0 0  0.1239130434782609 0 0  0.1321739130434783 0 0  0.1404347826086956 0 0  0.148695652173913 0 0  0.1569565217391304 0 0  0.1652173913043478 0 0  0.1734782608695652 0 0  0.1817391304347826 0 0  0.19 0 0  0.1982608695652174 0 0  0.2065217391304348 0 0  0.2147826086956522 0 0  0.2230434782608696 0 0  0.2313043478260869 0 0  0.2395652173913043 0 0  0.2478260869565218 0 0  0.2560869565217391 0 0  0.2643478260869565 0 0  0.2726086956521739 0 0  0.2808695652173913 0 0  0.2891304347826087 0 0  0.2973913043478261 0 0  0.3056521739130434 0 0  0.3139130434782609 0 0  0.3221739130434783 0 0  0.3304347826086956 0 0  0.338695652173913 0 0  0.3469565217391304 0 0  0.3552173913043478 0 0  0.3634782608695652 0 0  0.3717391304347826 0 0  0.3799999999999999 0 0  0.3882608695652174 0 0  0.3965217391304348 0 0  0.4047826086956521 0 0  0.4130434782608696 0 0  0.4213043478260869 0 0  0.4295652173913043 0 0  0.4378260869565217 0 0  0.4460869565217391 0 0  0.4543478260869565 0 0  0.4626086956521739 0 0  0.4708695652173913 0 0  0.4791304347826086 0 0  0.4873913043478261 0 0  0.4956521739130435 0 0  0.5039130434782608 0 0  0.5121739130434783 0 0  0.5204347826086956 0 0  0.528695652173913 0 0  0.5369565217391304 0 0  0.5452173913043478 0 0  0.5534782608695652 0 0  0.5617391304347825 0 0  0.57 0 0  0.5782608695652174 0 0  0.5865217391304348 0 0  0.5947826086956521 0 0  0.6030434782608696 0 0  0.6113043478260869 0 0  0.6195652173913043 0 0  0.6278260869565218 0 0  0.6360869565217391 0 0  0.6443478260869565 0 0  0.6526086956521739 0 0  0.6608695652173913 0 0  0.6691304347826087 0 0  0.677391304347826 0 0  0.6856521739130435 0 0  0.6939130434782609 0 0  0.7021739130434783 0 0  0.7104347826086956 0 0  0.718695652173913 0 0  0.7269565217391304 0 0  0.7352173913043478 0 0  0.7434782608695653 0 0  0.7517391304347827 0 0  0.7599999999999999 0 0  0.7682608695652173 0 0  0.7765217391304348 0 0  0.7847826086956522 0 0  0.7930434782608695 0 0  0.8013043478260868 0 0  0.8095652173913043 0 0  0.8178260869565217 0 0  0.8260869565217391 0 0  0.8343478260869565 0 0  0.8426086956521739 0 0  0.8508695652173912 0 0  0.8591304347826086 0 0  0.8673913043478261 0 0  0.8756521739130434 0 0  0.8839130434782608 0 0  0.8921739130434783 0 0  0.9004347826086956 0 0  0.908695652173913 0 0  0.9169565217391303 0 0  0.9252173913043478 0 0  0.9334782608695652 0 0  0.9417391304347826 0 0  0.95 0 0  0.9582608695652173 0 0  0.9665217391304347 0 0  0.9747826086956521 0 0  0.9830434782608696 0 0  0.991304347826087 0 0  0.9995652173913042 0 0  1.007826086956522 0 0  1.016086956521739 0 0  1.024347826086957 0 0  1.032608695652174 0 0  1.040869565217391 0 0  1.049130434782609 0 0  1.057391304347826 0 0  1.065652173913043 0 0  1.073913043478261 0 0  1.082173913043478 0 0  1.090434782608696 0 0  1.098695652173913 0 0  1.10695652173913 0 0  1.115217391304348 0 0  1.123478260869565 0 0  1.131739130434783 0 0  1.14 0 0  1.148260869565217 0 0  1.156521739130435 0 0  1.164782608695652 0 0  1.17304347826087 0 0  1.181304347826087 0 0  1.189565217391304 0 0  1.197826086956522 0 0  1.206086956521739 0 0  1.214347826086956 0 0  1.222608695652174 0 0  1.230869565217391 0 0  1.239130434782609 0 0  1.247391304347826 0 0  1.255652173913044 0 0  1.263913043478261 0 0  1.272173913043478 0 0  1.280434782608696 0 0  1.288695652173913 0 0  1.296956521739131 0 0  1.305217391304348 0 0  1.313478260869565 0 0  1.321739130434783 0 0  1.33 0 0  1.338260869565217 0 0  1.346521739130435 0 0  1.354782608695652 0 0  1.36304347826087 0 0  1.371304347826087 0 0  1.379565217391304 0 0  1.387826086956522 0 0  1.396086956521739 0 0  1.404347826086957 0 0  1.412608695652174 0 0  1.420869565217391 0 0  1.429130434782609 0 0  1.437391304347826 0 0  1.445652173913043 0 0  1.453913043478261 0 0  1.462173913043478 0 0  1.470434782608696 0 0  1.478695652173913 0 0  1.486956521739131 0 0  1.495217391304348 0 0  1.503478260869565 0 0  1.511739130434782 0 0  1.52 0 0  1.528260869565217 0 0  1.536521739130435 0 0  1.544782608695652 0 0  1.55304347826087 0 0  1.561304347826087 0 0  1.569565217391304 0 0  1.577826086956522 0 0  1.586086956521739 0 0  1.594347826086957 0 0  1.602608695652174 0 0  1.610869565217391 0 0  1.619130434782609 0 0  1.627391304347826 0 0  1.635652173913043 0 0  1.643913043478261 0 0  1.652173913043478 0 0  1.660434782608696 0 0  1.668695652173913 0 0  1.67695652173913 0 0  1.685217391304348 0 0  1.693478260869565 0 0  1.701739130434782 0 0  1.71 0 0  1.718260869565217 0 0  1.726521739130435 0 0  1.734782608695652 0 0  1.743043478260869 0 0  1.751304347826087 0 0  1.759565217391304 0 0  1.767826086956522 0 0  1.776086956521739 0 0  1.784347826086957 0 0  1.792608695652174 0 0  1.800869565217391 0 0  1.809130434782608 0 0  1.817391304347826 0 0  1.825652173913043 0 0  1.833913043478261 0 0  1.842173913043478 0 0  1.850434782608696 0 0  1.858695652173913 0 0  1.86695652173913 0 0  1.875217391304348 0 0  1.883478260869565 0 0  1.891739130434782 0 0  1.9 0 0  1.908260869565217 0 0  1.916521739130435 0 0  1.924782608695652 0 0  1.933043478260869 0 0  1.941304347826087 0 0  1.949565217391304 0 0  1.957826086956522 0 0  1.966086956521739 0 0  1.974347826086956 0 0  1.982608695652174 0 0  1.990869565217391 0 0  1.999130434782608 0 0  2.007391304347826 0 0  2.015652173913043 0 0  2.023913043478261 0 0  2.032173913043478 0 0  2.040434782608695 0 0  2.048695652173913 0 0  2.05695652173913 0 0  2.065217391304348 0 0  2.073478260869565 0 0  2.081739130434782 0 0  2.09 0 0  2.098260869565217 0 0  2.106521739130435 0 0  2.114782608695652 0 0  2.12304347826087 0 0  2.131304347826087 0 0  2.139565217391304 0 0  2.147826086956522 0 0  2.156086956521739 0 0  2.164347826086956 0 0  2.172608695652174 0 0  2.180869565217391 0 0  2.189130434782609 0 0  2.197391304347826 0 0  2.205652173913043 0 0  2.213913043478261 0 0  2.222173913043478 0 0  2.230434782608695 0 0  2.238695652173913 0 0  2.24695652173913 0 0  2.255217391304348 0 0  2.263478260869565 0 0  2.271739130434783 0 0  2.28 0 0  2.288260869565217 0 0  2.296521739130434 0 0  2.304782608695652 0 0  2.31304347826087 0 0  2.321304347826087 0 0  2.329565217391304 0 0  2.337826086956521 0 0  2.346086956521739 0 0  2.354347826086956 0 0  2.362608695652174 0 0  2.370869565217391 0 0  2.379130434782609 0 0  2.387391304347826 0 0  2.395652173913044 0 0  2.403913043478261 0 0  2.412173913043478 0 0  2.420434782608695 0 0  2.428695652173913 0 0  2.43695652173913 0 0  2.445217391304348 0 0  2.453478260869565 0 0  2.461739130434782 0 0  2.47 0 0  2.478260869565217 0 0  2.486521739130435 0 0  2.494782608695652 0 0  2.503043478260869 0 0  2.511304347826087 0 0  2.519565217391305 0 0  2.527826086956522 0 0  2.536086956521739 0 0  2.544347826086956 0 0  2.552608695652174 0 0  2.560869565217391 0 0  2.569130434782608 0 0  2.577391304347826 0 0  2.585652173913043 0 0  2.593913043478261 0 0  2.602173913043478 0 0  2.610434782608696 0 0  2.618695652173913 0 0  2.62695652173913 0 0  2.635217391304348 0 0  2.643478260869565 0 0  2.651739130434783 0 0  2.66 0 0  2.668260869565217 0 0  2.676521739130435 0 0  2.684782608695652 0 0  2.693043478260869 0 0  2.701304347826087 0 0  2.709565217391304 0 0  2.717826086956522 0 0  2.726086956521739 0 0  2.734347826086956 0 0  2.742608695652174 0 0  2.750869565217391 0 0  2.759130434782609 0 0  2.767391304347826 0 0  2.775652173913044 0 0  2.783913043478261 0 0  2.792173913043478 0 0  2.800434782608696 0 0  2.808695652173913 0 0  2.81695652173913 0 0  2.825217391304347 0 0  2.833478260869565 0 0  2.841739130434783 0 0  2.85 0 0  2.858260869565217 0 0  2.866521739130435 0 0  2.874782608695652 0 0  2.88304347826087 0 0  2.891304347826087 0 0  2.899565217391304 0 0  2.907826086956522 0 0  2.916086956521739 0 0  2.924347826086957 0 0  2.932608695652174 0 0  2.940869565217391 0 0  2.949130434782608 0 0  2.957391304347826 0 0  2.965652173913043 0 0  2.973913043478261 0 0  2.982173913043478 0 0  2.990434782608696 0 0  2.998695652173913 0 0  3.006956521739131 0 0  3.015217391304348 0 0  3.023478260869565 0 0  3.031739130434782 0 0  3.04 0 0  3.048260869565218 0 0  3.056521739130435 0 0  3.064782608695652 0 0  3.073043478260869 0 0  3.081304347826087 0 0  3.089565217391304 0 0  3.097826086956522 0 0  3.106086956521739 0 0  3.114347826086956 0 0  3.122608695652174 0 0  3.130869565217391 0 0  3.139130434782609 0 0  3.147391304347826 0 0  3.155652173913043 0 0  3.163913043478261 0 0  3.172173913043478 0 0  3.180434782608696 0 0  3.188695652173913 0 0  3.19695652173913 0 0  3.205217391304347 0 0  3.213478260869565 0 0  3.221739130434782 0 0  3.23 0 0  3.238260869565217 0 0  3.246521739130435 0 0  3.254782608695652 0 0  3.26304347826087 0 0  3.271304347826087 0 0  3.279565217391304 0 0  3.287826086956521 0 0  3.296086956521739 0 0  3.304347826086957 0 0  3.312608695652174 0 0  3.320869565217391 0 0  3.329130434782608 0 0  3.337391304347826 0 0  3.345652173913043 0 0  3.353913043478261 0 0  3.362173913043478 0 0  3.370434782608696 0 0  3.378695652173913 0 0  3.386956521739131 0 0  3.395217391304348 0 0  3.403478260869565 0 0  3.411739130434782 0 0  3.419999999999999 0 0  3.428260869565217 0 0  3.436521739130435 0 0  3.444782608695652 0 0  3.453043478260869 0 0  3.461304347826087 0 0  3.469565217391304 0 0  3.477826086956522 0 0  3.486086956521739 0 0  3.494347826086956 0 0  3.502608695652174 0 0  3.510869565217391 0 0  3.519130434782609 0 0  3.527391304347826 0 0  3.535652173913043 0 0  3.54391304347826
[...]
<PointData  Scalars="rho"> 
<DataArray  type="Float64"  Name="rho"  format="ascii">9.8476757277418847e-01  9.7613740628755430e-01  9.7233805138872620e-01  9.7164944608087001e-01  9.7074777040269788e-01  9.6966280355156920e-01  9.7049933188405602e-01  9.6887836480221012e-01  9.6717364039203835e-01  9.6356815818151242e-01  9.6202932930705265e-01  9.6054250041059697e-01  9.5911855746803032e-01  9.5808913287223307e-01  9.5669431483516965e-01  9.5535519273934255e-01  9.5450322700625279e-01  9.5374139071674191e-01  9.5370470751378389e-01  9.5391201396161873e-01  9.5482833138969403e-01  9.5938430287732523e-01  9.5671445637812846e-01  9.6202123805345374e-01  9.6789303207692245e-01  9.7485920779193724e-01  9.7758985749772886e-01  9.8361535479485707e-01  9.9050090320202600e-01  9.9385460933216729e-01  9.9500688863871045e-01  9.9523435570032714e-01  9.9539425828658812e-01  9.9543318879559883e-01  9.9539697050821707e-01  9.9526114463224302e-01  9.9502688157996100e-01  9.9469316384599349e-01  9.9428856054707526e-01  9.9373831604400320e-01  9.9315711558567188e-01  9.9247143977438412e-01  9.9174005032333978e-01  9.9097102423012551e-01  9.9018727497107395e-01  9.8940928590923360e-01  9.8840518512735409e-01  9.8689066291626282e-01  9.8504969263159092e-01  9.8203336495272364e-01  9.8045297268351206e-01  9.7800184592522077e-01  9.7597782910979136e-01  9.7457450895433362e-01  9.7380402951415379e-01  9.7354031720425394e-01  9.7528089268863172e-01  9.7554704521492708e-01  9.7619108421931666e-01  9.7701874448234538e-01  9.7793095824790077e-01  9.7866381137763370e-01  9.7845397061830375e-01  9.7795500761305354e-01  9.7325147911100351e-01  9.7427713666369098e-01  9.7242035245786651e-01  9.6981159923615201e-01  9.5510077657774550e-01  9.4433607933953223e-01  9.3778874414065316e-01  9.3318118796980631e-01  9.1291105500703218e-01  9.1658478500598406e-01  9.2006415407774989e-01  9.3007751604632904e-01  9.2707527806295709e-01  9.2941900684713907e-01  9.3491120790255411e-01  9.3830169039522793e-01  9.3664841003951071e-01  9.3297198776467005e-01  9.2986436836345476e-01  9.1932926406292947e-01  9.0570862675117836e-01  8.8665249165438720e-01  8.7289246958603095e-01  8.5979645573168617e-01  8.5448611577611944e-01  8.4663238407539088e-01  8.6501502161974486e-01  8.5091343535591224e-01  7.9373675320856230e-01  8.1223259780813994e-01  8.3650470095000451e-01  8.7518309964914864e-01  9.2896400546970814e-01  9.9383696038660940e-01  9.9426204007986307e-01  9.9531405865944766e-01  9.9577493101432657e-01  9.9733057385375379e-01  9.9780139483904629e-01  9.9817073065446493e-01  9.9843119795263024e-01  9.9861397494191273e-01  9.9864812023871674e-01  9.9856536872051516e-01  9.9836803326002055e-01  9.9806147816832103e-01  9.9765418353018553e-01  9.9762665088085556e-01  9.9711898778677599e-01  9.9678734361805399e-01  9.9616932295857707e-01  9.9552839339408528e-01  9.9489203447158048e-01  9.9442092563547801e-01  9.9399139481787857e-01  9.9321505695030654e-01  9.9277751063064590e-01  9.9243339216402637e-01  9.9219520165174424e-01  9.9206263301937792e-01  9.9203058544889733e-01  9.9208967225148736e-01  9.9246547674586227e-01  9.9246904915586687e-01  9.9251854083510094e-01  9.9260810640022923e-01  9.9273193843909158e-01  9.9288441780598935e-01  9.9306019122579203e-01  9.9325421932990809e-01  9.9346181100627662e-01  9.9252918585104499e-01  9.9276734724478366e-01  9.9226008436435231e-01  9.9250647382116541e-01  9.9275439195192361e-01  9.9300103875085599e-01  9.9324384748745254e-01  9.9348046704708470e-01  9.9370876393640406e-01  9.9392683443928409e-01  9.9471215567921412e-01  9.9467005247120510e-01  9.9481600702121198e-01  9.9495117584080350e-01  9.9530483723761609e-01  9.9541501517713016e-01  9.9496474148817438e-01  9.9483463018295126e-01  9.9464245116623173e-01  9.9446878539967443e-01  9.9352707330578827e-01  9.9313120887912332e-01  9.9302062975772332e-01  9.9305352129069524e-01  9.9331103043015934e-01  9.9361354308466199e-01  9.9356947413091556e-01  9.9425661073373472e-01  9.9493930478253112e-01  9.9573181465616900e-01  9.9602363301986574e-01  9.9526101668365896e-01  9.9621837752580022e-01  9.9601383695625434e-01  9.9622290735920283e-01  9.9647942462429406e-01  9.9604952906082689e-01  9.9608137417777032e-01  9.9591893804332521e-01  9.9589843743260142e-01  9.9583909076963928e-01  9.9573377629640836e-01  9.9557466061581290e-01  9.9547152594461652e-01  9.9526996266369949e-01  9.1205555810766958e-01  8.5845611911326847e-01  8.2267619268652881e-01  8.6512241032747772e-01  8.4188041888792808e-01  8.2489912491679396e-01  8.3526926482603803e-01  8.2673710811377232e-01  8.1594798491691667e-01  8.4545968360215917e-01  8.6200217554411307e-01  8.7912567992321300e-01  9.1688761793242279e-01  9.2876106201316766e-01  9.3867733649772167e-01  9.4452047149100682e-01  9.4833751421845802e-01  9.6004619275198144e-01  9.6208152859921570e-01  9.6166907173314797e-01  9.5945623447826212e-01  9.5574133874789480e-01  9.4765901692092491e-01  9.4299162448165030e-01  9.4056090049774443e-01  9.3214564734246130e-01  9.2606231012445028e-01  9.2182906938779685e-01  9.1453602861407779e-01  9.2185931010495581e-01  9.2706850449905842e-01  9.3874353858290560e-01  9.4697079385945782e-01  9.5833960707628230e-01  9.7254833446224220e-01  9.7706983278539594e-01  9.8215550575831279e-01  9.8473459014455955e-01  9.8601002045584585e-01  9.8728372048686519e-01  9.8803833026022347e-01  9.9072112469788698e-01  9.9124988998561170e-01  9.9125115891119597e-01  9.9122763660447255e-01  9.9112979595258544e-01  9.9111340486858779e-01  9.9112859248065932e-01  9.9106352581143786e-01  9.9060139889811261e-01  9.8746396376263312e-01  9.8725000258925311e-01  9.8686176102896905e-01  9.9105696505497098e-01  9.9270806191891414e-01  9.9321975243757743e-01  9.9483161401486497e-01  9.9583648560697191e-01  9.9704828672754364e-01  9.9802959856571338e-01  9.9855614899201761e-01  9.9998898811635617e-01  1.0000000000000000e+00  1.0000000000000000e+00  1.0000000000000000e+00  1.0000000000000000e+00  9.9940815243704550e-01  9.9934380512684751e-01  9.9907739982821064e-01  9.9879053910071947e-01  9.9841578240170492e-01  9.9798561987997525e-01  9.9541397292811551e-01  9.8950588695634667e-01  9.8896222739239947e-01  9.8411733575828098e-01  9.7727717043015483e-01  9.5410992007055606e-01  9.3883471830403442e-01  9.4269375023393842e-01  9.2900731370994405e-01  9.1988843530822018e-01  9.1391347208294504e-01  9.0976418161430450e-01  8.9842559958502866e-01  9.1013619171308524e-01  9.1869443683001972e-01  9.2171796287665586e-01  9.2452346768547666e-01  9.2574885654054628e-01  9.2730902548604788e-01  9.2626084328723191e-01  9.2728485425698315e-01  9.2245386606554758e-01  9.1553298560920626e-01  9.0698045254992110e-01  8.9803581716075487e-01  8.4306442407259585e-01  8.1782542317686979e-01  8.0405648872903512e-01  7.9433188704849966e-01  7.9349620908977403e-01  7.9609184067856675e-01  8.0924894150559090e-01  8.4116944061519439e-01  8.7316170240164892e-01  8.9336173298549038e-01  9.1550496099444201e-01  9.9642979095457040e-01  9.9987487302600997e-01  9.9993171210116072e-01  9.9993579372844965e-01  9.9991454420392878e-01  9.9991970871632574e-01  9.9994751517843361e-01  9.9995871158947236e-01  9.9996088568144725e-01  9.9996280376735769e-01  9.9996449478890026e-01  9.9996599407540421e-01  9.9996734077427596e-01  9.9997800325911879e-01  9.9996339985721272e-01  9.9996477639218895e-01  9.9998342228792869e-01  9.9998667257305285e-01  9.9996559810047692e-01  9.9989768513942157e-01  9.9984380223826597e-01  9.9980966713920782e-01  9.9979640174762263e-01  9.9980440961138417e-01  9.9982605021077520e-01  9.9988218245344695e-01  9.9992331581797311e-01  9.9992643035128492e-01  9.9997069480490008e-01  9.9998254589866664e-01  9.9999628864326295e-01  1.0000000000000000e+00  1.0000000000000000e+00  1.0000000000000000e+00  1.0000000000000000e+00  1.0000000000000000e+00  1.0000000000000000e+00  1.0000000000000000e+00  1.0000000000000000e+00  9.9999064472515642e-01  9.9997209675682952e-01  9.9978135108699773e-01  9.9963331896850327e-01  9.9861395720091151e-01  9.9469091932575127e-01  9.9123324254725764e-01  9.8883139352026639e-01  9.5718138895870442e-01  9.3993244820398836e-01  9.2964973026252107e-01  9.2391542069223243e-01  9.2061767165465980e-01  9.1924454455948268e-01  8.6437614619409509e-01  6.5937347430156190e-01  6.6181154336314463e-01  7.8809316794754081e-01  7.8617938614035399e-01  8.3614552531336139e-01  8.3160630779771183e-01  8.2644347363815063e-01  9.4938091159435811e-01  9.5219728754500788e-01  9.5667122418414319e-01  9.5840003015777164e-01  9.6194095827020554e-01  9.6414101740778868e-01  9.6313019587722548e-01  9.6192640546789265e-01  9.5973714984571501e-01  8.2762981036113270e-01  8.1250513459299090e-01  7.9379044785369812e-01  8.0431941076999836e-01  8.1908988735273114e-01  8.1494565289820386e-01  8.2678825255314814e-01  9.0263135403222960e-01  9.5445636350646257e-01  8.9733143957414407e-01  9.2151469401770192e-01  7.3566758089263351e-01  6.9717394426028600e-01  5.8409575866904662e-01  6.6921273515151725e-01  6.6328148992033154e-01  5.5530576954356903e-01  5.4301277058826314e-01  5.5238784555344478e-01  6.3647293592199072e-01  5.9781220645361333e-01  6.4917416683265838e-01  6.1325294057728297e-01  5.4479758629107422e-01  4.4171496830920060e-01  2.8059045223945628e-01  2.1165935640793801e-01  1.5023806814898455e-01  1.0008833811987393e-01  5.8858935571974212e-02  3.9182318155355951e-02  1.5340864652261157e-02  1.1841539294635522e-02  9.9202966014402937e-03  9.4714105575920363e-03  9.5906692861097969e-03  9.4911521440652086e-03  9.3493232651460298e-03  9.1452032223026513e-03  8.8764176636808387e-03  8.5488843810340651e-03  8.1289171485253078e-03  7.8015657606816122e-03  7.3896220167689658e-03  6.9989442310295870e-03  6.6724114557455000e-03  6.5421416661679216e-03  6.3046834574387017e-03  5.6926174887408218e-03  5.1261900020322616e-03  4.3198626127214472e-03  4.0211279189143181e-03  3.2214908175441947e-03  2.4599408082189279e-03  1.1571031774381608e-03  7.3042267773782918e-04  6.4351012043281316e-04  5.6486428479305187e-04  4.9393231869678791e-04  4.3016631699043613e-04  3.7302865758265827e-04  3.2199698325874868e-04  2.7656864751184675e-04  2.3626407899124963e-04  2.0062818821305444e-04  1.6923203157528642e-04  1.4167320552100455e-04  1.1757699028525007e-04  9.6595151762662244e-05  7.8405553099248929e-05  6.2711210218776268e-05  4.9239658502310325e-05  3.7741608528064822e-05  2.7989649702143314e-05  1.9776948990705885e-05  1.2916122088697923e-05  7.2377763975158458e-06  2.5894331262992278e-06  0.0000000000000000e+00  0.0000000000000000e+00  8.5307596898050018e-06  5.8970146562293819e-06  3.7325049733678829e-06  1.9717881079128085e-06  5.5668165421612061e-07  0.0000000000000000e+00  0.0000000000000000e+00  0.0000000000000000e+00  0.0000000000000000e+00  0.0000000000000000e+00  0.0000000000000000e+00  0.0000000000000000e+00  0.0000000000000000e+00  0.0000000000000000e+00  0.0000000000000000e+00  0.0000000000000000e+00  0.0000000000000000e+00  0.0000000000000000e+00  0.0000000000000000e+00  0.0000000000000000e+00  0.0000000000000000e+00  0.0000000000000000e+00  0.0000000000000000e+00  9.7622965467807532e-01  9.5070841908649195e-01  9.4517178125787027e-01  9.4397225607300950e-01  9.4237190361560652e-01  9.4042574503051612e-01  9.4101725015152138e-01  9.3816474073592160e-01  9.3516032704984164e-01  9.2961835710963348e-01  9.2679170044583215e-01  9.2405845471132819e-01  9.2143735143139216e-01  9.1901868827643929e-01  9.1685211957885415e-01  9.1453876124379252e-01  9.1305758178813556e-01  9.1173989612926609e-01  9.1171545045053537e-01  9.1203570153164881e-01  9.1354615814291273e-01  9.1650515426071499e-01  9.2137243674407843e-01  9.2262451187960548e-01  9.3779187077887105e-01  9.4947443095972517e-01  9.5576151499076689e-01  9.6256439635478197e-01  9.7682954980452830e-01  9.8724634832702340e-01  9.8998999041359681e-01  9.9042137924605822e-01  9.9072486897819556e-01  9.9079285317618970e-01  9.9071972637451955e-01  9.9044946351035446e-01  9.8999009511697822e-01  9.8933706834672541e-01  9.8850057439543060e-01  9.8750754720734346e-01  9.8634677289877648e-01  9.8500577568461645e-01  9.8356944204332997e-01  9.8205907458539576e-01  9.8051710402522130e-01  9.7898312554915401e-01  9.7723049039661902e-01  9.7428114581811809e-01  9.7090388685523932e-01  9.6558588567646075e-01  9.6264458789728014e-01  9.5816588552883919e-01  9.5431009199255445e-01  9.5147707180965402e-01  9.4974589263962339e-01  9.4885689858449063e-01  9.5135667417875169e-01  9.5015975016489673e-01  9.5236837245117878e-01  9.5353711521457885e-01  9.5489796032959917e-01  9.5547519127895508e-01  9.5491932126375600e-01  9.5390086008312025e-01  9.4863042705814649e-01  9.4722508370443004e-01  9.4396199658669777e-01  9.3510342044466344e-01  9.1586929112677695e-01  8.9452794949513081e-01  8.8275220510981256e-01  8.7556565817738030e-01  8.5299271940234367e-01  8.5971530717595390e-01  8.6555916679609501e-01  8.8153390172872448e-01  8.7626899328139218e-01  8.8119969996137748e-01  8.8849631740428126e-01  8.9024530195169205e-01  8.8789526662645835e-01  8.8215605819727616e-01  8.7818505256518387e-01  8.6207910579866920e-01  8.4226682793575536e-01  8.1289755970755084e-01  7.9054552780559173e-01  7.6708287920688834e-01  7.4806951950601630e-01  7.5078263594787098e-01  7.7010259996368491e-01  7.3677308867786395e-01  7.6276628092993848e-01  6.8335608358484801e-01  7.2633647558311654e-01  7.8723494875451150e-01  8.7278427740539233e-01  8.7989046193511855e-01  9.9048862841913521e-01  9.9065092778958674e-01  9.9190296925395383e-01  9.9457938454523132e-01  9.9548929095128258e-01  9.9621125255133314e-01  9.9673119597170035e-01  9.9710524881732032e-01  9.9720212565385591e-01  9.9707807733970022e-01  9.9673571240856673e-01  9.9618359038747195e-01  9.9543642962920076e-01  9.9547642524034818e-01  9.9453056981747412e-01  9.9391098452983728e-01  9.9273766130189811e-01  9.9151141144423827e-01  9.9025240178439711e-01  9.8934153047370221e-01  9.8850609477562013e-01  9.8788635830682459e-01  9.8617912875172797e-01  9.8549472959352780e-01  9.8501335794897793e-01  9.8473571666916282e-01  9.8465307094904353e-01  9.8474816257923592e-01  9.8534642045028153e-01  9.8533863323811277e-01  9.8542153090196116e-01  9.8558375066644233e-01  9.8581402202517132e-01  9.8610144353264673e-01  9.8643562649070893e-01  9.8680676557039659e-01  9.8720570774916405e-01  9.8762401985455261e-01  9.8584606711951228e-01  9.8485834880340140e-01  9.8533792243491003e-01  9.8582163417856483e-01  9.8630398769923411e-01  9.8677992495226285e-01  9.8724479217721306e-01  9.8769433581624466e-01  9.8811199777283953e-01  9.8964931743636508e-01  9.8959895698107780e-01  9.8988890120379780e-01  9.9015791242055440e-01  9.9084494488175678e-01  9.9106618248169009e-01  9.9038993926741059e-01  9.9014148858938100e-01  9.8981844503050975e-01  9.8947618402029403e-01  9.8771478683393710e-01  9.8739858975160377e-01  9.8714017994365044e-01  9.8711367494578461e-01  9.8747687341521606e-01  9.8818734600767577e-01  9.8824520293941609e-01  9.8885263899345377e-01  9.9022723052790640e-01  9.9124335048856038e-01  9.9213578868207708e-01  9.9065170189417751e-01  9.9219418734038489e-01  9.9225009319344515e-01  9.9241448985076164e-01  9.9302527092352932e-01  9.9237147740857556e-01  9.9245253849787907e-01  9.9215436952668989e-01  9.9214131047623899e-01  9.9205662530268812e-01  9.9188608548085999e-01  9.9161294575731229e-01  9.9122877586203395e-01  9.9123435585637476e-01  8.8806691952870731e-01  8.1726582382512802e-01  7.5599424063243281e-01  8.0284826848341850e-01  7.6496215984707050e-01  7.3670318948621694e-01  7.4556178806364659e-01  7.3123931964186484e-01  7.1342044612838729e-01  7.5221560316307035e-01  7.7660758982709410e-01  8.0279262461947321e-01  8.5705214295765220e-01  8.7291962844735671e-01  8.8764163783559391e-01  8.9821910858504894e-01  9.0606974327772405e-01  9.2510681505900250e-01  9.2817644251932074e-01  9.2774345304839589e-01  9.2429101712076223e-01  9.1828624589757468e-01  9.0595807344217671e-01  8.9745934772685110e-01  8.9360894561946014e-01  8.7958169691293431e-01  8.6911152772688371e-01  8.5257022638273239e-01  8.5010811666332342e-01  8.5324155461627937e-01  8.6756180219151025e-01  8.8614929815293264e-01  9.0322626869275846e-01  9.1693025493517077e-01  9.4801690126646154e-01  9.5531126284281209e-01  9.6562176531961086e-01  9.7118327167898211e-01  9.7351655780972302e-01  9.7814476164145470e-01  9.7721943934581568e-01  9.7843152210399598e-01  9.8353097079790819e-01  9.8353983046377935e-01  9.8349902303249759e-01  9.8330742396204407e-01  9.8327151848080230e-01  9.8331299060369926e-01  9.8317192260441444e-01  9.8282168997701425e-01  9.7978467957903637e-01  9.7736030712627520e-01  9.7808390194920247e-01  9.7899409176502228e-01  9.8569851253285212e-01  9.8784784568209483e-01  9.9028927024972657e-01  9.9184227011281645e-01  9.9327580340771038e-01  9.9600038931011836e-01  9.9694819722508621e-01  9.9997769524377889e-01  1.0000000000000000e+00  1.0000000000000000e+00  1.0000000000000000e+00  1.0000000000000000e+00  1.0000000000000000e+00  9.9855500165791256e-01  9.9821117965669059e-01  9.9767779870290629e-01  9.9703530197036883e-01  9.9617485040504539e-01  9.9537192461649771e-01  9.8113940269780919e-01  9.8002353551993016e-01  9.7580918486703738e-01  9.5999043155030617e-01  9.2487178022205974e-01  8.9717545338560467e-01  8.8854096804266125e-01  8.8161294068365936e-01  8.6583339963949868e-01  8.5476536397005609e-01  8.4782487531466999e-01  8.4275916952122676e-01  8.6078891759265552e-01  8.7388658018231324e-01  8.7722297731577104e-01  8.8137805896012156e-01  8.8496621652555907e-01  8.8894741186093085e-01  8.9038913763208094e-01  8.9013319815155212e-01  8.9551000219100074e-01  8.9107720573001403e-01  8.8237116487817246e-01  8.6899057446891936e-01  7.9694307680803045e-01  7.7206539152230635e-01  7.4102590885091935e-01  7.0969874261159183e-01  7.1073479133113127e-01  7.2750614547533021e-01  7.4590744022910604e-01  7.9198280841211177e-01  8.2101572705097048e-01  8.6755390824987233e-01  8.9349256316829484e-01  9.4554618803616508e-01  9.9974592856112920e-01  9.9983498675915938e-01  9.9962022130613126e-01  9.9982809453920540e-01  9.9983857411887567e-01  9.9989453372194825e-01  9.9991706866470076e-01  9.9992146128813963e-01  9.9992532760092978e-01  9.9992872615336270e-01  9.9993172813387576e-01  9.9993441231132085e-01  9.9995580314344212e-01  9.9992640882657302e-01  9.9992910997730289e-01  9.9996659682175504e-01  9.9997310746276380e-01  9.9990005110493263e-01  9.9980610091582256e-01  9.9969947193024822e-01  9.9962984861653092e-01  9.9959963064075585e-01  9.9960985608190567e-01  9.9966010075826039e-01  9.9974395884318634e-01  9.9984714467342006e-01  9.9984979758606551e-01  9.9993460170009341e-01  9.9995913395732217e-01  9.9998695042421348e-01  1.0000000000000000e+00  1.0000000000000000e+00  1.0000000000000000e+00  1.0000000000000000e+00  1.0000000000000000e+00  1.0000000000000000e+00  1.0000000000000000e+00  1.0000000000000000e+00  9.9998971746370846e-01  9.9995949887071911e-01  9.9967702640879907e-01  9.9939050053734158e-01  9.9760977391017791e-01  9.9197581356591169e-01  9.8598775003473338e-01  9.8161312032681303e-01  9.6123591716407153e-01  9.3322202626161521e-01  9.1898111570484653e-01  9.1044988107450042e-01  9.0568656690411986e-01  9.0237334946815917e-01  9.0379542559302251e-01  9.0837937386989320e-01  7.2758962518881987e-01  7.2734204977564798e-01  7.3389059153276304e-01  8.7141585962212154e-01  8.7282029509208192e-01  9.2478133733476886e-01  9.5397555615206986e-01  9.5912928975919776e-01  9.6197662701381137e-01  9.6541042322079185e-01  9.6715927308577077e-01  9.7160112591766534e-01  9.6777870215918393e-01  9.6507453360670048e-01  9.6182347147042402e-01  9.3746191731253936e-01  9.1976618466245419e-01  8.9758910122114322e-01  9.1359762658702648e-01  9.2229502873672820e-01  9.3301572210925876e-01  9.4681304362014485e-01  9.8465970458474372e-01  1.0000000000000000e+00  1.0000000000000000e+00  1.0000000000000000e+0