<?xml version="1.0"?>
<VTKFile type="UnstructuredGrid"  version="0.1"  >
<UnstructuredGrid>
<Piece  NumberOfPoints="28121" NumberOfCells="55200">
<Points>
<DataArray  type="Float64"  NumberOfComponents="3"  format="ascii">0 0 0  0.008260869565217391 0 0  0.01652173913043478 0 0  0.02478260869565217 0 0  0.03304347826086956 0 0  0.04130434782608695 0 0  0.04956521739130434 0 0  0.05782608695652174 0 0  0.06608695652173913 0 0  0.07434782608695652 0 0  0.08260869565217391 0 0  0.0908695652173913 0 0  0.09913043478260869 0 0  0.1073913043478261 0 0  0.1156521739130435 0 0  0.1239130434782609 0 0  0.1321739130434783 0 0  0.1404347826086956 0 0  0.148695652173913 0 0  0.1569565217391304 0 0  0.1652173913043478 0 0  0.1734782608695652 0 0  0.1817391304347826 0 0  0.19 0 0  0.1982608695652174 0 0  0.2065217391304348 0 0  0.2147826086956522 0 0  0.2230434782608696 0 0  0.2313043478260869 0 0  0.2395652173913043 0 0  0.2478260869565218 0 0  0.2560869565217391 0 0  0.2643478260869565 0 0  0.2726086956521739 0 0  0.2808695652173913 0 0  0.2891304347826087 0 0  0.2973913043478261 0 0  0.3056521739130434 0 0  0.3139130434782609 0 0  0.3221739130434783 0 0  0.3304347826086956 0 0  0.338695652173913 0 0  0.3469565217391304 0 0  0.3552173913043478 0 0  0.3634782608695652 0 0  0.3717391304347826 0 0  0.3799999999999999 0 0  0.3882608695652174 0 0  0.3965217391304348 0 0  0.4047826086956521 0 0  0.4130434782608696 0 0  0.4213043478260869 0 0  0.4295652173913043 0 0  0.4378260869565217 0 0  0.4460869565217391 0 0  0.4543478260869565 0 0  0.4626086956521739 0 0  0.4708695652173913 0 0  0.4791304347826086 0 0  0.4873913043478261 0 0  0.4956521739130435 0 0  0.5039130434782608 0 0  0.5121739130434783 0 0  0.5204347826086956 0 0  0.528695652173913 0 0  0.5369565217391304 0 0  0.5452173913043478 0 0  0.5534782608695652 0 0  0.5617391304347825 0 0  0.57 0 0  0.5782608695652174 0 0  0.5865217391304348 0 0  0.5947826086956521 0 0  0.6030434782608696 0 0  0.6113043478260869 0 0  0.6195652173913043 0 0  0.6278260869565218 0 0  0.6360869565217391 0 0  0.6443478260869565 0 0  0.6526086956521739 0 0  0.6608695652173913 0 0  0.6691304347826087 0 0  0.677391304347826 0 0  0.6856521739130435 0 0  0.6939130434782609 0 0  0.7021739130434783 0 0  0.7104347826086956 0 0  0.718695652173913 0 0  0.7269565217391304 0 0  0.7352173913043478 0 0  0.7434782608695653 0 0  0.7517391304347827 0 0  0.7599999999999999 0 0  0.7682608695652173 0 0  0.7765217391304348 0 0  0.7847826086956522 0 0  0.7930434782608695 0 0  0.8013043478260868 0 0  0.8095652173913043 0 0  0.8178260869565217 0 0  0.8260869565217391 0 0  0.8343478260869565 0 0  0.8426086956521739 0 0  0.8508695652173912 0 0  0.8591304347826086 0 0  0.8673913043478261 0 0  0.8756521739130434 0 0  0.8839130434782608 0 0  0.8921739130434783 0 0  0.9004347826086956 0 0  0.908695652173913 0 0  0.9169565217391303 0 0  0.9252173913043478 0 0  0.9334782608695652 0 0  0.9417391304347826 0 0  0.95 0 0  0.9582608695652173 0 0  0.9665217391304347 0 0  0.9747826086956521 0 0  0.9830434782608696 0 0  0.991304347826087 0 0  0.9995652173913042 0 0  1.007826086956522 0 0  1.016086956521739 0 0  1.024347826086957 0 0  1.032608695652174 0 0  1.040869565217391 0 0  1.049130434782609 0 0  1.057391304347826 0 0  1.065652173913043 0 0  1.073913043478261 0 0  1.082173913043478 0 0  1.090434782608696 0 0  1.098695652173913 0 0  1.10695652173913 0 0  1.115217391304348 0 0  1.123478260869565 0 0  1.131739130434783 0 0  1.14 0 0  1.148260869565217 0 0  1.156521739130435 0 0  1.164782608695652 0 0  1.17304347826087 0 0  1.181304347826087 0 0  1.189565217391304 0 0  1.197826086956522 0 0  1.206086956521739 0 0  1.214347826086956 0 0  1.222608695652174 0 0  1.230869565217391 0 0  1.239130434782609 0 0  1.247391304347826 0 0  1.255652173913044 0 0  1.263913043478261 0 0  1.272173913043478 0 0  1.280434782608696 0 0  1.288695652173913 0 0  1.296956521739131 0 0  1.305217391304348 0 0  1.313478260869565 0 0  1.321739130434783 0 0  1.33 0 0  1.338260869565217 0 0  1.346521739130435 0 0  1.354782608695652 0 0  1.36304347826087 0 0  1.371304347826087 0 0  1.379565217391304 0 0  1.387826086956522 0 0  1.396086956521739 0 0  1.404347826086957 0 0  1.412608695652174 0 0  1.420869565217391 0 0  1.429130434782609 0 0  1.437391304347826 0 0  1.445652173913043 0 0  1.453913043478261 0 0  1.462173913043478 0 0  1.470434782608696 0 0  1.478695652173913 0 0  1.486956521739131 0 0  1.495217391304348 0 0  1.503478260869565 0 0  1.511739130434782 0 0  1.52 0 0  1.528260869565217 0 0  1.536521739130435 0 0  1.544782608695652 0 0  1.55304347826087 0 0  1.561304347826087 0 0  1.569565217391304 0 0  1.577826086956522 0 0  1.586086956521739 0 0  1.594347826086957 0 0  1.602608695652174 0 0  1.610869565217391 0 0  1.619130434782609 0 0  1.627391304347826 0 0  1.635652173913043 0 0  1.643913043478261 0 0  1.652173913043478 0 0  1.660434782608696 0 0  1.668695652173913 0 0  1.67695652173913 0 0  1.685217391304348 0 0  1.693478260869565 0 0  1.701739130434782 0 0  1.71 0 0  1.718260869565217 0 0  1.726521739130435 0 0  1.734782608695652 0 0  1.743043478260869 0 0  1.751304347826087 0 0  1.759565217391304 0 0  1.767826086956522 0 0  1.776086956521739 0 0  1.784347826086957 0 0  1.792608695652174 0 0  1.800869565217391 0 0  1.809130434782608 0 0  1.817391304347826 0 0  1.825652173913043 0 0  1.833913043478261 0 0  1.842173913043478 0 0  1.850434782608696 0 0  1.858695652173913 0 0  1.86695652173913 0 0  1.875217391304348 0 0  1.883478260869565 0 0  1.891739130434782 0 0  1.9 0 0  1.908260869565217 0 0  1.916521739130435 0 0  1.924782608695652 0 0  1.933043478260869 0 0  1.941304347826087 0 0  1.949565217391304 0 0  1.957826086956522 0 0  1.966086956521739 0 0  1.974347826086956 0 0  1.982608695652174 0 0  1.990869565217391 0 0  1.999130434782608 0 0  2.007391304347826 0 0  2.015652173913043 0 0  2.023913043478261 0 0  2.032173913043478 0 0  2.040434782608695 0 0  2.048695652173913 0 0  2.05695652173913 0 0  2.065217391304348 0 0  2.073478260869565 0 0  2.081739130434782 0 0  2.09 0 0  2.098260869565217 0 0  2.106521739130435 0 0  2.114782608695652 0 0  2.12304347826087 0 0  2.131304347826087 0 0  2.139565217391304 0 0  2.147826086956522 0 0  2.156086956521739 0 0  2.164347826086956 0 0  2.172608695652174 0 0  2.180869565217391 0 0  2.189130434782609 0 0  2.197391304347826 0 0  2.205652173913043 0 0  2.213913043478261 0 0  2.222173913043478 0 0  2.230434782608695 0 0  2.238695652173913 0 0  2.24695652173913 0 0  2.255217391304348 0 0  2.263478260869565 0 0  2.271739130434783 0 0  2.28 0 0  2.288260869565217 0 0  2.296521739130434 0 0  2.304782608695652 0 0  2.31304347826087 0 0  2.321304347826087 0 0  2.329565217391304 0 0  2.337826086956521 0 0  2.346086956521739 0 0  2.354347826086956 0 0  2.362608695652174 0 0  2.370869565217391 0 0  2.379130434782609 0 0  2.387391304347826 0 0  2.395652173913044 0 0  2.403913043478261 0 0  2.412173913043478 0 0  2.420434782608695 0 0  2.428695652173913 0 0  2.43695652173913 0 0  2.445217391304348 0 0  2.453478260869565 0 0  2.461739130434782 0 0  2.47 0 0  2.478260869565217 0 0  2.486521739130435 0 0  2.494782608695652 0 0  2.503043478260869 0 0  2.511304347826087 0 0  2.519565217391305 0 0  2.527826086956522 0 0  2.536086956521739 0 0  2.544347826086956 0 0  2.552608695652174 0 0  2.560869565217391 0 0  2.569130434782608 0 0  2.577391304347826 0 0  2.585652173913043 0 0  2.593913043478261 0 0  2.602173913043478 0 0  2.610434782608696 0 0  2.618695652173913 0 0  2.62695652173913 0 0  2.635217391304348 0 0  2.643478260869565 0 0  2.651739130434783 0 0  2.66 0 0  2.668260869565217 0 0  2.676521739130435 0 0  2.684782608695652 0 0  2.693043478260869 0 0  2.701304347826087 0 0  2.709565217391304 0 0  2.717826086956522 0 0  2.726086956521739 0 0  2.734347826086956 0 0  2.742608695652174 0 0  2.750869565217391 0 0  2.759130434782609 0 0  2.767391304347826 0 0  2.775652173913044 0 0  2.783913043478261 0 0  2.792173913043478 0 0  2.800434782608696 0 0  2.808695652173913 0 0  2.81695652173913 0 0  2.825217391304347 0 0  2.833478260869565 0 0  2.841739130434783 0 0  2.85 0 0  2.858260869565217 0 0  2.866521739130435 0 0  2.874782608695652 0 0  2.88304347826087 0 0  2.891304347826087 0 0  2.899565217391304 0 0  2.907826086956522 0 0  2.916086956521739 0 0  2.924347826086957 0 0  2.932608695652174 0 0  2.940869565217391 0 0  2.949130434782608 0 0  2.957391304347826 0 0  2.965652173913043 0 0  2.973913043478261 0 0  2.982173913043478 0 0  2.990434782608696 0 0  2.998695652173913 0 0  3.006956521739131 0 0  3.015217391304348 0 0  3.023478260869565 0 0  3.031739130434782 0 0  3.04 0 0  3.048260869565218 0 0  3.056521739130435 0 0  3.064782608695652 0 0  3.073043478260869 0 0  3.081304347826087 0 0  3.089565217391304 0 0  3.097826086956522 0 0  3.106086956521739 0 0  3.114347826086956 0 0  3.122608695652174 0 0  3.130869565217391 0 0  3.139130434782609 0 0  3.147391304347826 0 0  3.155652173913043 0 0  3.163913043478261 0 0  3.172173913043478 0 0  3.180434782608696 0 0  3.188695652173913 0 0  3.19695652173913 0 0  3.205217391304347 0 0  3.213478260869565 0 0  3.221739130434782 0 0  3.23 0 0  3.238260869565217 0 0  3.246521739130435 0 0  3.254782608695652 0 0  3.26304347826087 0 0  3.271304347826087 0 0  3.279565217391304 0 0  3.287826086956521 0 0  3.296086956521739 0 0  3.304347826086957 0 0  3.312608695652174 0 0  3.320869565217391 0 0  3.329130434782608 0 0  3.337391304347826 0 0  3.345652173913043 0 0  3.353913043478261 0 0  3.362173913043478 0 0  3.370434782608696 0 0  3.378695652173913 0 0  3.386956521739131 0 0  3.395217391304348 0 0  3.403478260869565 0 0  3.411739130434782 0 0  3.419999999999999 0 0  3.428260869565217 0 0  3.436521739130435 0 0  3.444782608695652 0 0  3.453043478260869 0 0  3.461304347826087 0 0  3.469565217391304 0 0  3.477826086956522 0 0  3.486086956521739 0 0  3.494347826086956 0 0  3.502608695652174 0 0  3.510869565217391 0 0  3.519130434782609 0 0  3.527391304347826 0 0  3.535652173913043 0 0  3.54391304347826
[...]
<PointData  Scalars="rho"> 
<DataArray  type="Float64"  Name="rho"  format="ascii">9.8088246066302753e-01  9.7030243328728083e-01  9.6644660881655253e-01  9.6567255143146247e-01  9.6465715243568761e-01  9.6343206394648451e-01  9.6410480596471937e-01  9.6229991672709114e-01  9.6039546048052815e-01  9.5657955845938425e-01  9.5482552271164189e-01  9.5312533109295383e-01  9.5149714468338964e-01  9.5028039067646852e-01  9.4854135578551646e-01  9.4706554119146769e-01  9.4611947130489948e-01  9.4531440771274600e-01  9.4529307432692045e-01  9.4558107102096922e-01  9.4700652670154073e-01  9.5184681439970076e-01  9.4931447063622987e-01  9.5492937104676257e-01  9.5904481898175642e-01  9.6660930455743665e-01  9.6997193278560956e-01  9.7703402248616300e-01  9.8464692223838290e-01  9.8890485880282752e-01  9.9051170827288426e-01  9.9138389430246610e-01  9.9214641937171111e-01  9.9273539785964260e-01  9.9318950814651563e-01  9.9348039461612070e-01  9.9359711742444279e-01  9.9346562733369348e-01  9.9337541064895196e-01  9.9305907947655148e-01  9.9265603304680894e-01  9.9207969712156807e-01  9.9143655247648510e-01  9.9072155592485278e-01  9.8996430442349359e-01  9.8919136519412487e-01  9.8814130009220991e-01  9.8663039227192817e-01  9.8478671111432214e-01  9.8176404929185046e-01  9.8017599815899681e-01  9.7771776703355484e-01  9.7568862191446704e-01  9.7354163616114586e-01  9.7271744964972839e-01  9.7242485097578168e-01  9.7501837486692211e-01  9.7527320381182370e-01  9.7591036370955475e-01  9.7672846648982015e-01  9.7761736467714455e-01  9.7830440917911188e-01  9.7802295207134482e-01  9.7742005749484850e-01  9.7257694527097449e-01  9.7342680562859174e-01  9.7136058741447162e-01  9.6851453036027069e-01  9.5432004585305297e-01  9.4345858285608430e-01  9.3681466143885306e-01  9.3232799333011762e-01  9.1198542628164569e-01  9.1557623007365163e-01  9.1844072466582960e-01  9.2838219552943280e-01  9.2641529578330684e-01  9.2893996900118925e-01  9.3420530989191808e-01  9.3756437541819304e-01  9.3610151793447016e-01  9.3144421295893276e-01  9.2824013650709836e-01  9.1759253583874545e-01  9.0384431174952040e-01  8.8464812378506763e-01  8.7074025477868999e-01  8.5749567232584833e-01  8.5204573340856360e-01  8.4407355468606371e-01  8.6237283871210957e-01  8.4823710784068229e-01  7.9108730861771692e-01  8.0933542027157179e-01  8.3465430756585235e-01  8.7343353041386107e-01  9.2751407695646626e-01  9.9246821851807432e-01  9.9300924481307506e-01  9.9409339619476556e-01  9.9459435602111512e-01  9.9644236494318705e-01  9.9703421029961470e-01  9.9753768654885233e-01  9.9787411330834197e-01  9.9661159663869170e-01  9.9668971068429146e-01  9.9655022033194729e-01  9.9634137442543924e-01  9.9597968325051800e-01  9.9547889477566687e-01  9.9532632735886317e-01  9.9467001879951933e-01  9.9407339204968803e-01  9.9331639709722375e-01  9.9255099037015881e-01  9.9179850407319459e-01  9.9124581477672502e-01  9.9068324583112388e-01  9.8981525214814559e-01  9.8934617405201564e-01  9.8900273415846152e-01  9.8878492627130621e-01  9.8869713861250608e-01  9.8873152461330971e-01  9.8887499414806390e-01  9.8934876211565348e-01  9.8945917933981409e-01  9.8964214568955644e-01  9.8982922899240033e-01  9.9005748665986693e-01  9.9033050351017060e-01  9.9061142069288932e-01  9.9089573139715625e-01  9.9118724043452511e-01  9.9031465956718001e-01  9.9059563440837817e-01  9.9011405611717529e-01  9.9085385544711913e-01  9.9113632252396411e-01  9.9139447540124426e-01  9.9164926667892339e-01  9.9189027886736048e-01  9.9214967242013630e-01  9.9236373274263734e-01  9.9312769929894806e-01  9.9283079138009966e-01  9.9289913812163189e-01  9.9303779266232672e-01  9.9358066127026312e-01  9.9367688203415361e-01  9.9315513280179968e-01  9.9323020093743608e-01  9.9301693926035906e-01  9.9289036956996801e-01  9.9181137037646616e-01  9.9145369862096966e-01  9.9141229254582652e-01  9.9153050538762022e-01  9.9189085640000951e-01  9.9231474853475743e-01  9.9241118546357454e-01  9.9325806193499599e-01  9.9412147337451306e-01  9.9451582338435762e-01  9.9497460836704166e-01  9.9431734306631370e-01  9.9543011357854216e-01  9.9539530833340606e-01  9.9579943611663124e-01  9.9634612868667272e-01  9.9609821380523000e-01  9.9630412263837043e-01  9.9630272269234177e-01  9.9642462583607971e-01  9.9648310080537872e-01  9.9646499319196602e-01  9.9620592635344996e-01  9.9612956708195743e-01  9.9589598334117890e-01  9.1265367503085548e-01  8.5897163972739909e-01  8.2306105040396849e-01  8.6527872741676382e-01  8.4180221839179981e-01  8.2459802212901423e-01  8.3477295545563712e-01  8.2491500271867180e-01  8.1377969087705859e-01  8.4314716373455856e-01  8.5960294997369047e-01  8.7667716569123022e-01  9.1440728407433247e-01  9.2624897057811428e-01  9.3654011779289015e-01  9.4225760359672206e-01  9.4591952669242474e-01  9.5743994630247165e-01  9.5925272269347017e-01  9.5858436787457613e-01  9.5608516125533061e-01  9.5205810976560434e-01  9.4364430432008251e-01  9.3863422732107382e-01  9.3739073137645113e-01  9.2710829049286081e-01  9.2070943837003205e-01  9.1619189830519399e-01  9.0865230108852335e-01  9.1586161324500048e-01  9.2097819804022896e-01  9.3260878566467653e-01  9.4083684847357851e-01  9.5224695000739357e-01  9.6653126110286636e-01  9.7115549385815136e-01  9.7550208575530917e-01  9.7783106304129019e-01  9.7916652888756717e-01  9.8051971714204444e-01  9.8137144452416492e-01  9.8416896269460008e-01  9.8483224441524475e-01  9.8484231894731000e-01  9.8499890984351879e-01  9.8511908841187112e-01  9.8536758169682181e-01  9.8570423358256198e-01  9.8524522117124391e-01  9.8521964668418116e-01  9.8261369255745679e-01  9.8303333612628174e-01  9.8338363498376524e-01  9.8932419833732665e-01  9.9220046759964764e-01  9.9103621055486124e-01  9.9371115184809922e-01  9.9519534364518014e-01  9.9691384694093288e-01  9.9840157923057538e-01  9.9927856092810752e-01  9.9926661495401514e-01  9.9925335050733322e-01  9.9923901339667009e-01  9.9922389106733078e-01  9.9920827864733164e-01  9.9919245255594613e-01  9.9917665515002430e-01  9.9916108965046901e-01  9.9914592424881676e-01  9.9913130194015609e-01  9.9911735481561981e-01  9.9910421992860432e-01  9.9578108842250057e-01  9.9533184831919319e-01  9.8575437247501752e-01  9.8359738246075690e-01  9.7382135257480795e-01  9.5767572829761205e-01  9.6072346777954964e-01  9.4538663675344203e-01  9.3448528075757842e-01  9.2667782860782288e-01  9.2071819287081502e-01  9.0764961595218163e-01  9.1775110265117843e-01  9.2590334038685074e-01  9.2764425023103370e-01  9.2928602658629700e-01  9.2945702939113573e-01  9.3005690654671003e-01  9.2812406312740547e-01  9.2931795909897141e-01  9.2370652954757271e-01  9.1605318864906615e-01  9.0681059552586563e-01  8.9727789545855507e-01  8.4171029051595947e-01  8.1644933720705037e-01  8.0240769047869431e-01  7.9248769130875252e-01  7.9237622421659359e-01  7.9417503402674450e-01  8.0747706284284937e-01  8.3973954062378486e-01  8.7273000109388077e-01  8.9261130540005018e-01  9.1496192052052261e-01  9.9668490944132737e-01  9.9948134991158233e-01  9.9959423434709693e-01  9.9972939860536059e-01  9.9973221840774784e-01  9.9960608993501476e-01  9.9961338304366898e-01  9.9957163885585032e-01  9.9952156608093834e-01  9.9946263826320225e-01  9.9939438127833680e-01  9.9931634665031499e-01  9.9922809864698003e-01  9.9945930706868147e-01  9.9972952897943967e-01  9.9928496449834714e-01  9.9915118090755906e-01  9.9902167723226465e-01  9.9888316644287600e-01  9.9846430724666824e-01  9.9941827301698216e-01  9.9930041225769706e-01  9.9921748454540504e-01  9.9919396755036249e-01  9.9917691531098085e-01  9.9919211741380598e-01  9.9915988996147675e-01  9.9896928944077412e-01  9.9894761547713529e-01  9.9893589732286414e-01  9.9891985096159497e-01  9.9890822095516962e-01  9.9958057143028445e-01  9.9959112046018139e-01  9.9960121280645031e-01  9.9961184249227075e-01  9.9962053779315696e-01  9.9962594980759700e-01  9.9962838488555339e-01  9.9962403820714241e-01  9.9918779954627179e-01  9.9934087064875732e-01  9.9920560286588900e-01  9.9813619334038683e-01  9.9415013085243631e-01  9.9062910847888974e-01  9.8817330987162799e-01  9.5641744884776203e-01  9.3914759924319990e-01  9.2887800964788647e-01  9.2319187028025784e-01  9.1997398485765558e-01  9.1870475849344357e-01  8.6394449425353204e-01  6.5903846695349833e-01  6.6152393638946594e-01  7.8785648885273407e-01  7.8597348987468763e-01  8.3594443965368459e-01  8.3138384420264089e-01  8.2548252300776104e-01  9.4834805098186181e-01  9.5114958862805021e-01  9.5549713990806029e-01  9.5709009206402884e-01  9.6049641546180453e-01  9.6254882567335065e-01  9.6138558334136248e-01  9.6011294666972968e-01  9.5788067403045862e-01  8.2577894654932349e-01  8.1068681760119310e-01  7.9218752522720814e-01  8.0283422448430675e-01  8.2008736833508067e-01  8.1636183291121678e-01  8.2853618166398157e-01  9.0457674272535893e-01  9.5642748950132594e-01  8.9913420876442152e-01  9.2295172364273914e-01  7.3655993030809408e-01  6.9745278064341143e-01  5.8244650476044713e-01  6.6720685354561304e-01  6.6083929426659638e-01  5.5279341449804020e-01  5.4055458390355471e-01  5.5008697351419367e-01  6.3444374141751791e-01  5.9613633501766172e-01  6.4795650660460236e-01  6.1259151048391991e-01  5.4479570365509566e-01  4.4202130940054651e-01  2.8161958348602212e-01  2.1401816180214442e-01  1.5355939733849228e-01  1.0640806760614401e-01  6.5779868150723037e-02  4.4085177406581140e-02  1.9924121232450874e-02  1.6803499744776983e-02  1.4721342035934634e-02  1.4061842673856404e-02  1.3948985225275806e-02  1.3591872213196734e-02  1.3175875927592996e-02  1.2688886488352957e-02  1.2135089174707767e-02  1.1525675204781113e-02  1.0831066954666638e-02  1.0239416021136982e-02  9.6080443951253314e-03  8.9976268194138700e-03  8.4600130405102624e-03  8.1402471582709759e-03  7.7158219728005644e-03  6.9352892093883477e-03  6.2159774592846538e-03  5.1370635903047659e-03  4.6608064695031516e-03  3.7485673766982637e-03  2.8840786827230148e-03  1.4935862887068643e-03  9.8943964116970018e-04  8.3592601195143937e-04  4.8172504084930209e-04  3.5991289063546928e-04  2.5501891647606694e-04  1.6539202799019842e-04  1.2356250463734175e-04  0.0000000000000000e+00  0.0000000000000000e+00  0.0000000000000000e+00  0.0000000000000000e+00  0.0000000000000000e+00  0.0000000000000000e+00  0.0000000000000000e+00  0.0000000000000000e+00  0.0000000000000000e+00  0.0000000000000000e+00  0.0000000000000000e+00  0.0000000000000000e+00  0.0000000000000000e+00  0.0000000000000000e+00  0.0000000000000000e+00  0.0000000000000000e+00  0.0000000000000000e+00  0.0000000000000000e+00  0.0000000000000000e+00  0.0000000000000000e+00  0.0000000000000000e+00  0.0000000000000000e+00  0.0000000000000000e+00  0.0000000000000000e+00  0.0000000000000000e+00  0.0000000000000000e+00  0.0000000000000000e+00  0.0000000000000000e+00  0.0000000000000000e+00  0.0000000000000000e+00  0.0000000000000000e+00  0.0000000000000000e+00  0.0000000000000000e+00  0.0000000000000000e+00  0.0000000000000000e+00  0.0000000000000000e+00  0.0000000000000000e+00  0.0000000000000000e+00  0.0000000000000000e+00  0.0000000000000000e+00  0.0000000000000000e+00  9.7036303224212495e-01  9.3906471694362148e-01  9.3342644843209099e-01  9.3206536419084385e-01  9.3024565750002963e-01  9.2802610229987548e-01  9.2829545357208076e-01  9.2507887458414528e-01  9.2167689824075849e-01  9.1571390511783546e-01  9.1245438252541733e-01  9.0928954927882200e-01  9.0625260224104642e-01  9.0344940794948991e-01  9.0059119122909748e-01  8.9798967258557361e-01  8.9630322903794679e-01  8.9488004651863695e-01  8.9486571862494591e-01  8.9532584895671197e-01  8.9711757072558873e-01  9.0138299925007348e-01  9.0649829751278388e-01  9.0835356791081390e-01  9.2424193201876881e-01  9.3281745764999990e-01  9.4038555242236654e-01  9.4856589005375924e-01  9.6498070871581276e-01  9.7722617071852724e-01  9.8088882958949808e-01  9.8262689173684747e-01  9.8415391877302660e-01  9.8534037060408663e-01  9.8626556800091936e-01  9.8686511853132186e-01  9.8718400542484441e-01  9.8688578664158899e-01  9.8667707219314948e-01  9.8616195713916299e-01  9.8536568037002736e-01  9.8424918711033860e-01  9.8299395869105277e-01  9.8159485355659459e-01  9.8010790471238884e-01  9.7858507469498213e-01  9.7672947623386963e-01  9.7378725618281836e-01  9.7040399598851401e-01  9.6507234141945486e-01  9.6211443330439939e-01  9.5762006346901352e-01  9.5375256939429365e-01  9.4947610816516115e-01  9.4763431010912835e-01  9.4668589512059620e-01  9.5088535860703294e-01  9.4967185367344564e-01  9.5187382191998393e-01  9.5303346465147143e-01  9.5435988425363405e-01  9.5486521282223524e-01  9.5417604065645112e-01  9.5296458298578668e-01  9.4742844017677152e-01  9.4568224053884775e-01  9.4200713145840764e-01  9.3267613825986306e-01  9.1388498485394010e-01  8.9283162358787160e-01  8.8086021957017846e-01  8.7390731208368289e-01  8.5118678156817473e-01  8.5774316676608453e-01  8.6237489466784611e-01  8.7820848210540225e-01  8.7394785571079592e-01  8.8026047437190824e-01  8.8710777814061648e-01  8.8880358274164140e-01  8.8638171145456968e-01  8.7917862477443187e-01  8.7502333441080904e-01  8.5870082065960218e-01  8.3864094867264516e-01  8.0899748187043452e-01  7.8635299093995092e-01  7.6259268335847952e-01  7.4329486823800894e-01  7.4576056783490952e-01  7.6489837425957030e-01  7.3148172566131697e-01  7.5750907226754371e-01  6.7757788603278080e-01  7.2093050911863066e-01  7.8376853170995198e-01  8.6957528565736109e-01  8.7720887696752681e-01  9.8808803808192769e-01  9.8827377954403917e-01  9.8959926526242026e-01  9.9282906604350085e-01  9.9398272096316875e-01  9.9497632006915337e-01  9.9565251914705721e-01  9.9325099302786735e-01  9.9344117374922103e-01  9.9333000868803722e-01  9.9287586281671480e-01  9.9221879587947126e-01  9.9128773828165351e-01  9.9107827588453168e-01  9.8983317061022180e-01  9.8888174553447816e-01  9.8729471546999636e-01  9.8572440136919559e-01  9.8422368753644018e-01  9.8313976544384285e-01  9.8202313427876420e-01  9.8137104100359218e-01  9.7943166615651744e-01  9.7872624643551664e-01  9.7828907832329925e-01  9.7809358875257624e-01  9.7813800676389784e-01  9.7839769692561906e-01  9.7918926080739110e-01  9.7939390286232653e-01  9.7974815619222499e-01  9.8008338920339466e-01  9.8054087848264104e-01  9.8106745312915722e-01  9.8161489837912885e-01  9.8216984757367043e-01  9.8273788528652972e-01  9.8327921409214081e-01  9.8158970515256594e-01  9.8065599168430961e-01  9.8209969189100699e-01  9.8265309016899438e-01  9.8316093444282571e-01  9.8366135135775079e-01  9.8413543631724776e-01  9.8464658538624417e-01  9.8505635946383252e-01  9.8655054852821888e-01  9.8599236127894518e-01  9.8612456428712880e-01  9.8639853058063887e-01  9.8746197710112182e-01  9.8765284371204265e-01  9.8683104218507955e-01  9.8699081321723814e-01  9.8662029137904783e-01  9.8636314587107743e-01  9.8432026530152528e-01  9.8407421094057823e-01  9.8394640942514988e-01  9.8408225547893646e-01  9.8464242472381991e-01  9.8558666593212196e-01  9.8598315266560077e-01  9.8683420916652398e-01  9.8860607461400041e-01  9.8880369878620611e-01  9.9001975571588796e-01  9.8874759781803245e-01  9.9059593350972586e-01  9.9098612094076399e-01  9.9153424906486065e-01  9.9271251367719149e-01  9.9242153138908884e-01  9.9285145090663485e-01  9.9287826139207191e-01  9.9315533100208608e-01  9.9331415081830432e-01  9.9332835621782534e-01  9.9286636938079398e-01  9.9254543293738595e-01  9.9250138607983229e-01  8.8929264424819121e-01  8.1833622427852937e-01  7.5682370038709412e-01  8.0321732326798445e-01  7.6485356329258092e-01  7.3613703594102808e-01  7.4459419888753986e-01  7.2765718832615900e-01  7.0917088955809282e-01  7.4767154490793120e-01  7.7189003546651858e-01  7.9798095788002454e-01  8.5218443983375691e-01  8.6799801122796372e-01  8.8263993486205117e-01  8.9381456151783867e-01  9.0136816198246728e-01  9.2004156279900917e-01  9.2267820192036498e-01  9.2174437717940672e-01  9.1772843873125842e-01  9.1110623948459735e-01  8.9811900775662823e-01  8.8893534685357400e-01  8.8740438920761566e-01  8.6968753774667573e-01  8.5857605354337629e-01  8.4145891383976246e-01  8.3849548267180352e-01  8.4138897224581310e-01  8.5551591822307593e-01  8.7400712978183948e-01  8.9107918252673113e-01  9.0486023286071315e-01  9.3609372320791628e-01  9.4359052475643923e-01  9.5236933585213923e-01  9.5744719691280367e-01  9.5989360415396285e-01  9.6467307913656453e-01  9.6393300237289892e-01  9.6536370766091972e-01  9.7071856884661167e-01  9.7103776439933454e-01  9.7103955977023249e-01  9.7126534554554933e-01  9.7173628979412030e-01  9.7239376979027548e-01  9.7147895113912719e-01  9.7196442684965079e-01  9.6995111872290363e-01  9.6875461581182776e-01  9.7091762744535481e-01  9.7526967552424371e-01  9.8415539400530383e-01  9.8474115205348178e-01  9.8792119122685851e-01  9.9042338412450470e-01  9.9290420610673991e-01  9.9658999343949928e-01  9.9855404949916027e-01  9.9853035942054813e-01  9.9850386889473586e-01  9.9847508928414053e-01  9.9844462540104240e-01  9.9841309975047798e-01  9.9838109398884256e-01  9.9834911355593436e-01  9.9831757680102762e-01  9.9828682214547171e-01  9.9825712909007891e-01  9.9822874703008446e-01  9.9820192756514792e-01  9.9349149625740141e-01  9.9259360378680594e-01  9.7908258419180971e-01  9.7243367790296120e-01  9.6403883029639992e-01  9.3470552652270522e-01  9.2453868088703939e-01  9.1507291266578483e-01  8.9530173875068519e-01  8.8061126446724369e-01  8.7007743734483056e-01  8.6156849257143353e-01  8.7639046668975940e-01  8.8860232865729405e-01  8.8938283874195223e-01  8.9121934359164456e-01  8.9270870846295025e-01  8.9478157688375071e-01  8.9446915599939469e-01  8.9257430744609767e-01  8.9827350706364473e-01  8.9237650909380217e-01  8.8228696505598492e-01  8.6759976484610535e-01  7.9445110002840003e-01  7.6945326397145930e-01  7.3783415423798182e-01  7.0607059812029982e-01  7.0685706344375177e-01  7.2360743027130514e-01  7.4223571496590957e-01  7.8894333322718624e-01  8.2001532552734957e-01  8.6708578353791865e-01  8.9224709161487836e-01  9.4591450436038771e-01  9.9873927833386322e-01  9.9918210238616401e-01  9.9945781038898840e-01  9.9946695363454163e-01  9.9921780592121912e-01  9.9923889386309650e-01  9.9915830318493226e-01  9.9906115637062576e-01  9.9894642500164410e-01  9.9881318951500686e-01  9.9866058388221401e-01  9.9848776472907652e-01  9.9895309581694025e-01  9.9947620794925573e-01  9.9860906951463291e-01  9.9834180865786293e-01  9.9808435655906835e-01  9.9736854103504768e-01  9.9697730009381857e-01  9.9884954206175514e-01  9.9860979217743595e-01  9.9843665392336578e-01  9.9824614838424197e-01  9.9834685593140204e-01  9.9837828558195674e-01  9.9832997604665585e-01  9.9827652372855469e-01  9.9790191921975024e-01  9.9787509400183749e-01  9.9785294917349010e-01  9.9782623847496921e-01  9.9916034827894018e-01  9.9918143471247256e-01  9.9920203393640039e-01  9.9922385337272868e-01  9.9924230667755443e-01  9.9925468868794309e-01  9.9925811170275980e-01  9.9925379052291852e-01  9.9837199599300941e-01  9.9866267728089175e-01  9.9851395487669836e-01  9.9663303962713223e-01  9.9087930226061727e-01  9.8476453334327074e-01  9.8027961514571860e-01  9.5982245755685169e-01  9.3161777885705332e-01  9.1739343011090158e-01  9.0894996816683149e-01  9.0434063552683375e-01  9.0123358124559017e-01  9.0288044825131020e-01  9.0766731166286019e-01  7.2699416969338537e-01  7.2685988427777704e-01  7.3348216678160427e-01  8.7102949663122753e-01  8.7240345555307641e-01  9.2284645559738321e-01  9.5194112288011523e-01  9.5690738163619404e-01  9.5967068160484659e-01  9.6283738235794913e-01  9.6427009266151420e-01  9.6846652880625261e-01  9.6443227731503012e-01  9.6150275835357968e-01  9.5816269455395620e-01  9.3379123953842225e-01  9.1618554361218907e-01  8.9441521506327482e-01  9.1067056410114755e-01  9.2394560038680507e-01  9.3552736596301289e-01  9.5003106987940933e-01  9.8833283459711829e-01  9.9593882042324677e-01  9.9586288560749703e-01  9.9567284200178052e-0