<?xml version="1.0"?>
<VTKFile type="UnstructuredGrid"  version="0.1"  >
<UnstructuredGrid>
<Piece  NumberOfPoints="28121" NumberOfCells="55200">
<Points>
<DataArray  type="Float64"  NumberOfComponents="3"  format="ascii">0 0 0  0.008260869565217391 0 0  0.01652173913043478 0 0  0.02478260869565217 0 0  0.03304347826086956 0 0  0.04130434782608695 0 0  0.04956521739130434 0 0  0.05782608695652174 0 0  0.06608695652173913 0 0  0.07434782608695652 0 0  0.08260869565217391 0 0  0.0908695652173913 0 0  0.09913043478260869 0 0  0.1073913043478261 0 0  0.1156521739130435 0 0  0.1239130434782609 0 0  0.1321739130434783 0 0  0.1404347826086956 0 0  0.148695652173913 0 0  0.1569565217391304 0 0  0.1652173913043478 0 0  0.1734782608695652 0 0  0.1817391304347826 0 0  0.19 0 0  0.1982608695652174 0 0  0.2065217391304348 0 0  0.2147826086956522 0 0  0.2230434782608696 0 0  0.2313043478260869 0 0  0.2395652173913043 0 0  0.2478260869565218 0 0  0.2560869565217391 0 0  0.2643478260869565 0 0  0.2726086956521739 0 0  0.2808695652173913 0 0  0.2891304347826087 0 0  0.2973913043478261 0 0  0.3056521739130434 0 0  0.3139130434782609 0 0  0.3221739130434783 0 0  0.3304347826086956 0 0  0.338695652173913 0 0  0.3469565217391304 0 0  0.3552173913043478 0 0  0.3634782608695652 0 0  0.3717391304347826 0 0  0.3799999999999999 0 0  0.3882608695652174 0 0  0.3965217391304348 0 0  0.4047826086956521 0 0  0.4130434782608696 0 0  0.4213043478260869 0 0  0.4295652173913043 0 0  0.4378260869565217 0 0  0.4460869565217391 0 0  0.4543478260869565 0 0  0.4626086956521739 0 0  0.4708695652173913 0 0  0.4791304347826086 0 0  0.4873913043478261 0 0  0.4956521739130435 0 0  0.5039130434782608 0 0  0.5121739130434783 0 0  0.5204347826086956 0 0  0.528695652173913 0 0  0.5369565217391304 0 0  0.5452173913043478 0 0  0.5534782608695652 0 0  0.5617391304347825 0 0  0.57 0 0  0.5782608695652174 0 0  0.5865217391304348 0 0  0.5947826086956521 0 0  0.6030434782608696 0 0  0.6113043478260869 0 0  0.6195652173913043 0 0  0.6278260869565218 0 0  0.6360869565217391 0 0  0.6443478260869565 0 0  0.6526086956521739 0 0  0.6608695652173913 0 0  0.6691304347826087 0 0  0.677391304347826 0 0  0.6856521739130435 0 0  0.6939130434782609 0 0  0.7021739130434783 0 0  0.7104347826086956 0 0  0.718695652173913 0 0  0.7269565217391304 0 0  0.7352173913043478 0 0  0.7434782608695653 0 0  0.7517391304347827 0 0  0.7599999999999999 0 0  0.7682608695652173 0 0  0.7765217391304348 0 0  0.7847826086956522 0 0  0.7930434782608695 0 0  0.8013043478260868 0 0  0.8095652173913043 0 0  0.8178260869565217 0 0  0.8260869565217391 0 0  0.8343478260869565 0 0  0.8426086956521739 0 0  0.8508695652173912 0 0  0.8591304347826086 0 0  0.8673913043478261 0 0  0.8756521739130434 0 0  0.8839130434782608 0 0  0.8921739130434783 0 0  0.9004347826086956 0 0  0.908695652173913 0 0  0.9169565217391303 0 0  0.9252173913043478 0 0  0.9334782608695652 0 0  0.9417391304347826 0 0  0.95 0 0  0.9582608695652173 0 0  0.9665217391304347 0 0  0.9747826086956521 0 0  0.9830434782608696 0 0  0.991304347826087 0 0  0.9995652173913042 0 0  1.007826086956522 0 0  1.016086956521739 0 0  1.024347826086957 0 0  1.032608695652174 0 0  1.040869565217391 0 0  1.049130434782609 0 0  1.057391304347826 0 0  1.065652173913043 0 0  1.073913043478261 0 0  1.082173913043478 0 0  1.090434782608696 0 0  1.098695652173913 0 0  1.10695652173913 0 0  1.115217391304348 0 0  1.123478260869565 0 0  1.131739130434783 0 0  1.14 0 0  1.148260869565217 0 0  1.156521739130435 0 0  1.164782608695652 0 0  1.17304347826087 0 0  1.181304347826087 0 0  1.189565217391304 0 0  1.197826086956522 0 0  1.206086956521739 0 0  1.214347826086956 0 0  1.222608695652174 0 0  1.230869565217391 0 0  1.239130434782609 0 0  1.247391304347826 0 0  1.255652173913044 0 0  1.263913043478261 0 0  1.272173913043478 0 0  1.280434782608696 0 0  1.288695652173913 0 0  1.296956521739131 0 0  1.305217391304348 0 0  1.313478260869565 0 0  1.321739130434783 0 0  1.33 0 0  1.338260869565217 0 0  1.346521739130435 0 0  1.354782608695652 0 0  1.36304347826087 0 0  1.371304347826087 0 0  1.379565217391304 0 0  1.387826086956522 0 0  1.396086956521739 0 0  1.404347826086957 0 0  1.412608695652174 0 0  1.420869565217391 0 0  1.429130434782609 0 0  1.437391304347826 0 0  1.445652173913043 0 0  1.453913043478261 0 0  1.462173913043478 0 0  1.470434782608696 0 0  1.478695652173913 0 0  1.486956521739131 0 0  1.495217391304348 0 0  1.503478260869565 0 0  1.511739130434782 0 0  1.52 0 0  1.528260869565217 0 0  1.536521739130435 0 0  1.544782608695652 0 0  1.55304347826087 0 0  1.561304347826087 0 0  1.569565217391304 0 0  1.577826086956522 0 0  1.586086956521739 0 0  1.594347826086957 0 0  1.602608695652174 0 0  1.610869565217391 0 0  1.619130434782609 0 0  1.627391304347826 0 0  1.635652173913043 0 0  1.643913043478261 0 0  1.652173913043478 0 0  1.660434782608696 0 0  1.668695652173913 0 0  1.67695652173913 0 0  1.685217391304348 0 0  1.693478260869565 0 0  1.701739130434782 0 0  1.71 0 0  1.718260869565217 0 0  1.726521739130435 0 0  1.734782608695652 0 0  1.743043478260869 0 0  1.751304347826087 0 0  1.759565217391304 0 0  1.767826086956522 0 0  1.776086956521739 0 0  1.784347826086957 0 0  1.792608695652174 0 0  1.800869565217391 0 0  1.809130434782608 0 0  1.817391304347826 0 0  1.825652173913043 0 0  1.833913043478261 0 0  1.842173913043478 0 0  1.850434782608696 0 0  1.858695652173913 0 0  1.86695652173913 0 0  1.875217391304348 0 0  1.883478260869565 0 0  1.891739130434782 0 0  1.9 0 0  1.908260869565217 0 0  1.916521739130435 0 0  1.924782608695652 0 0  1.933043478260869 0 0  1.941304347826087 0 0  1.949565217391304 0 0  1.957826086956522 0 0  1.966086956521739 0 0  1.974347826086956 0 0  1.982608695652174 0 0  1.990869565217391 0 0  1.999130434782608 0 0  2.007391304347826 0 0  2.015652173913043 0 0  2.023913043478261 0 0  2.032173913043478 0 0  2.040434782608695 0 0  2.048695652173913 0 0  2.05695652173913 0 0  2.065217391304348 0 0  2.073478260869565 0 0  2.081739130434782 0 0  2.09 0 0  2.098260869565217 0 0  2.106521739130435 0 0  2.114782608695652 0 0  2.12304347826087 0 0  2.131304347826087 0 0  2.139565217391304 0 0  2.147826086956522 0 0  2.156086956521739 0 0  2.164347826086956 0 0  2.172608695652174 0 0  2.180869565217391 0 0  2.189130434782609 0 0  2.197391304347826 0 0  2.205652173913043 0 0  2.213913043478261 0 0  2.222173913043478 0 0  2.230434782608695 0 0  2.238695652173913 0 0  2.24695652173913 0 0  2.255217391304348 0 0  2.263478260869565 0 0  2.271739130434783 0 0  2.28 0 0  2.288260869565217 0 0  2.296521739130434 0 0  2.304782608695652 0 0  2.31304347826087 0 0  2.321304347826087 0 0  2.329565217391304 0 0  2.337826086956521 0 0  2.346086956521739 0 0  2.354347826086956 0 0  2.362608695652174 0 0  2.370869565217391 0 0  2.379130434782609 0 0  2.387391304347826 0 0  2.395652173913044 0 0  2.403913043478261 0 0  2.412173913043478 0 0  2.420434782608695 0 0  2.428695652173913 0 0  2.43695652173913 0 0  2.445217391304348 0 0  2.453478260869565 0 0  2.461739130434782 0 0  2.47 0 0  2.478260869565217 0 0  2.486521739130435 0 0  2.494782608695652 0 0  2.503043478260869 0 0  2.511304347826087 0 0  2.519565217391305 0 0  2.527826086956522 0 0  2.536086956521739 0 0  2.544347826086956 0 0  2.552608695652174 0 0  2.560869565217391 0 0  2.569130434782608 0 0  2.577391304347826 0 0  2.585652173913043 0 0  2.593913043478261 0 0  2.602173913043478 0 0  2.610434782608696 0 0  2.618695652173913 0 0  2.62695652173913 0 0  2.635217391304348 0 0  2.643478260869565 0 0  2.651739130434783 0 0  2.66 0 0  2.668260869565217 0 0  2.676521739130435 0 0  2.684782608695652 0 0  2.693043478260869 0 0  2.701304347826087 0 0  2.709565217391304 0 0  2.717826086956522 0 0  2.726086956521739 0 0  2.734347826086956 0 0  2.742608695652174 0 0  2.750869565217391 0 0  2.759130434782609 0 0  2.767391304347826 0 0  2.775652173913044 0 0  2.783913043478261 0 0  2.792173913043478 0 0  2.800434782608696 0 0  2.808695652173913 0 0  2.81695652173913 0 0  2.825217391304347 0 0  2.833478260869565 0 0  2.841739130434783 0 0  2.85 0 0  2.858260869565217 0 0  2.866521739130435 0 0  2.874782608695652 0 0  2.88304347826087 0 0  2.891304347826087 0 0  2.899565217391304 0 0  2.907826086956522 0 0  2.916086956521739 0 0  2.924347826086957 0 0  2.932608695652174 0 0  2.940869565217391 0 0  2.949130434782608 0 0  2.957391304347826 0 0  2.965652173913043 0 0  2.973913043478261 0 0  2.982173913043478 0 0  2.990434782608696 0 0  2.998695652173913 0 0  3.006956521739131 0 0  3.015217391304348 0 0  3.023478260869565 0 0  3.031739130434782 0 0  3.04 0 0  3.048260869565218 0 0  3.056521739130435 0 0  3.064782608695652 0 0  3.073043478260869 0 0  3.081304347826087 0 0  3.089565217391304 0 0  3.097826086956522 0 0  3.106086956521739 0 0  3.114347826086956 0 0  3.122608695652174 0 0  3.130869565217391 0 0  3.139130434782609 0 0  3.147391304347826 0 0  3.155652173913043 0 0  3.163913043478261 0 0  3.172173913043478 0 0  3.180434782608696 0 0  3.188695652173913 0 0  3.19695652173913 0 0  3.205217391304347 0 0  3.213478260869565 0 0  3.221739130434782 0 0  3.23 0 0  3.238260869565217 0 0  3.246521739130435 0 0  3.254782608695652 0 0  3.26304347826087 0 0  3.271304347826087 0 0  3.279565217391304 0 0  3.287826086956521 0 0  3.296086956521739 0 0  3.304347826086957 0 0  3.312608695652174 0 0  3.320869565217391 0 0  3.329130434782608 0 0  3.337391304347826 0 0  3.345652173913043 0 0  3.353913043478261 0 0  3.362173913043478 0 0  3.370434782608696 0 0  3.378695652173913 0 0  3.386956521739131 0 0  3.395217391304348 0 0  3.403478260869565 0 0  3.411739130434782 0 0  3.419999999999999 0 0  3.428260869565217 0 0  3.436521739130435 0 0  3.444782608695652 0 0  3.453043478260869 0 0  3.461304347826087 0 0  3.469565217391304 0 0  3.477826086956522 0 0  3.486086956521739 0 0  3.494347826086956 0 0  3.502608695652174 0 0  3.510869565217391 0 0  3.519130434782609 0 0  3.527391304347826 0 0  3.535652173913043 0 0  3.54391304347826
[...]
<PointData  Scalars="rho_bar"> 
<DataArray  type="Float64"  Name="rho_bar"  format="ascii">1.0000020393538469e+00  1.0000019938514086e+00  1.0000034063586651e+00  1.0000047439814239e+00  1.0000062417759470e+00  1.0000073989092053e+00  1.0000075519165104e+00  1.0000059769582597e+00  1.0000025492611970e+00  9.9999785023278820e-01  9.9999223552418626e-01  9.9998559224532457e-01  9.9997856460597978e-01  9.9997317640792704e-01  9.9997188282894356e-01  9.9997622965147515e-01  9.9998581307854406e-01  9.9999832009436052e-01  1.0000112209671153e+00  1.0000232884555675e+00  1.0000342021102280e+00  1.0000434523113289e+00  1.0000501952865064e+00  1.0000537602082804e+00  1.0000539003444631e+00  1.0000507020213698e+00  1.0000445046113202e+00  1.0000359010758602e+00  1.0000256124406299e+00  1.0000142494292901e+00  1.0000023696881235e+00  9.9999095465824861e-01  9.9998158609833065e-01  9.9997573190461742e-01  9.9997383530669526e-01  9.9997523557260681e-01  9.9997877138996505e-01  9.9998328471867781e-01  9.9998784781744210e-01  9.9999192419823002e-01  9.9999540284114130e-01  9.9999839618095709e-01  1.0000009883308942e+00  1.0000031580849902e+00  1.0000048515262747e+00  1.0000060576432259e+00  1.0000068224909124e+00  1.0000072242997211e+00  1.0000073447826279e+00  1.0000072522265053e+00  1.0000069952824373e+00  1.0000066026052885e+00  1.0000060864669043e+00  1.0000054492541797e+00  1.0000046913163987e+00  1.0000038220498324e+00  1.0000028673214805e+00  1.0000018405816340e+00  1.0000007038872563e+00  9.9999947143380119e-01  9.9999844835727436e-01  9.9999817859875550e-01  9.9999884284294804e-01  9.9999981822043194e-01  1.0000002816227336e+00  1.0000001590527750e+00  9.9999996974008076e-01  9.9999996569056260e-01  1.0000000075113289e+00  1.0000000050674609e+00  9.9999999753558266e-01  9.9999999986106591e-01  1.0000000004554745e+00  9.9999999984284971e-01  1.0000000000027234e+00  1.0000000000053015e+00  1.0000000000157585e+00  1.0000000000451192e+00  9.9999999965371478e-01  1.0000000008749472e+00  9.9999999954933638e-01  9.9999999569448172e-01  1.0000000140495675e+00  9.9999999308858589e-01  9.9999993227444128e-01  1.0000001563289487e+00  1.0000001467596293e+00  9.9999904959051689e-01  9.9999987181306416e-01  1.0000042935555549e+00  1.0000018884414370e+00  9.9998615456531126e-01  9.9997802128899216e-01  1.0000020241340093e+00  1.0000485693924801e+00  1.0000870235857613e+00  1.0001014203833885e+00  1.0000975033579367e+00  1.0000883230711453e+00  1.0000824491754992e+00  1.0000817309082684e+00  1.0000845861671097e+00  1.0000887932994136e+00  1.0000924498302115e+00  1.0000943456529203e+00  1.0000940536636420e+00  1.0000917890997172e+00  1.0000881379825421e+00  1.0000837679304662e+00  1.0000792614893421e+00  1.0000750647301186e+00  1.0000714785446543e+00  1.0000686719837271e+00  1.0000667147318625e+00  1.0000656096241207e+00  1.0000653120855405e+00  1.0000657391682586e+00  1.0000667776841290e+00  1.0000682965710310e+00  1.0000701526406692e+00  1.0000721809774875e+00  1.0000741886687201e+00  1.0000759710207878e+00  1.0000773446823930e+00  1.0000781879259975e+00  1.0000784720195752e+00  1.0000782522512230e+00  1.0000776184685651e+00  1.0000766518057249e+00  1.0000754133258234e+00  1.0000739453390073e+00  1.0000722751637543e+00  1.0000704303793291e+00  1.0000684562209969e+00  1.0000664147197893e+00  1.0000643674120355e+00  1.0000623601449552e+00  1.0000604192992846e+00  1.0000585539421396e+00  1.0000567569207903e+00  1.0000550081619761e+00  1.0000532854705926e+00  1.0000515728619501e+00  1.0000498529330613e+00  1.0000480918759977e+00  1.0000462367144605e+00  1.0000442290102118e+00  1.0000420245538804e+00  1.0000396059623875e+00  1.0000369822223130e+00  1.0000341819740457e+00  1.0000312495873296e+00  1.0000282444091877e+00  1.0000252418043400e+00  1.0000223362148764e+00  1.0000196391752445e+00  1.0000172621536216e+00  1.0000152910667985e+00  1.0000137771058220e+00  1.0000127537562451e+00  1.0000122582559723e+00  1.0000123369539251e+00  1.0000130404414087e+00  1.0000144194822544e+00  1.0000165210302689e+00  1.0000193813998290e+00  1.0000230171555262e+00  1.0000274142730285e+00  1.0000325182738845e+00  1.0000382352757626e+00  1.0000444195307234e+00  1.0000507555285367e+00  1.0000566043945107e+00  1.0000609524160926e+00  1.0000624157206031e+00  1.0000594307242623e+00  1.0000494144625918e+00  1.0000287391510452e+00  1.0000015888916596e+00  9.9998530417138665e-01  9.9998941883180725e-01  9.9999975335896207e-01  1.0000020019190823e+00  9.9999993526437825e-01  9.9999967356656350e-01  1.0000000963786788e+00  1.0000000188530931e+00  9.9999997817876030e-01  1.0000000067823525e+00  9.9999999978058463e-01  9.9999999925472849e-01  1.0000000004683232e+00  9.9999999952915974e-01  1.0000000005599288e+00  1.0000000008243903e+00  9.9999999564582431e-01  1.0000000017056239e+00  1.0000000213530715e+00  9.9999997568400634e-01  9.9999991020147472e-01  1.0000001125705578e+00  1.0000003923481804e+00  9.9999981782934610e-01  9.9999849493469251e-01  9.9999873349603696e-01  1.0000022534295328e+00  1.0000065706373513e+00  1.0000067627546498e+00  1.0000009577757552e+00  9.9999151583596890e-01  9.9998170794878050e-01  9.9997419037501845e-01  9.9997113719403519e-01  9.9997333349802797e-01  9.9997978377895946e-01  9.9998865659826164e-01  9.9999831301331732e-01  1.0000078586713679e+00  1.0000171404620950e+00  1.0000263777912468e+00  1.0000358151970667e+00  1.0000455128498404e+00  1.0000552564327718e+00  1.0000646009696350e+00  1.0000730256547428e+00  1.0000801054302335e+00  1.0000856091959160e+00  1.0000895120354576e+00  1.0000919521341769e+00  1.0000931506752844e+00  1.0000932999167964e+00  1.0000924387913277e+00  1.0000903699073262e+00  1.0000866853498223e+00  1.0000809285597205e+00  1.0000728532073653e+00  1.0000626735849545e+00  1.0000511330236819e+00  1.0000392539844130e+00  1.0000279041567648e+00  1.0000175539252674e+00  1.0000083884229853e+00  1.0000005166775201e+00  9.9999400846419484e-01  9.9998880989446037e-01  9.9998471244032994e-01  9.9998141704472110e-01  9.9997863649912222e-01  9.9997619080275635e-01  9.9997413307553629e-01  9.9997297391407780e-01  9.9997380224756538e-01  9.9997810052653724e-01  9.9998674872851145e-01  9.9999739467704141e-01  1.0000040402333561e+00  1.0000035825405424e+00  1.0000003462437548e+00  9.9999930592785857e-01  9.9999992695869311e-01  1.0000001304001407e+00  9.9999998564628323e-01  9.9999998298837689e-01  1.0000000080323566e+00  9.9999999937395512e-01  9.9999999917000471e-01  1.0000000004160967e+00  9.9999999971971765e-01  1.0000000012147212e+00  9.9999999678936791e-01  1.0000000022782718e+00  1.0000000144231815e+00  9.9999994642589340e-01  1.0000000389408825e+00  1.0000002378477928e+00  9.9999939354071188e-01  9.9999944409133901e-01  1.0000033777277328e+00  1.0000016707352095e+00  9.9998630194686255e-01  9.9998387812914058e-01  1.0000249702652240e+00  1.0000801047767542e+00  1.0000873263585917e+00  1.0000359445928113e+00  9.9996908042709776e-01  9.9992151850870903e-01  9.9989804436487861e-01  9.9989342302876516e-01  9.9990327350085717e-01  9.9992319311672795e-01  9.9994889029028045e-01  9.9997658818529023e-01  1.0000030385771155e+00  1.0000259221222354e+00  1.0000441346335907e+00  1.0000576727189676e+00  1.0000672348631323e+00  1.0000737579908239e+00  1.0000780928126649e+00  1.0000808883440075e+00  1.0000826086711283e+00  1.0000835856897479e+00  1.0000840643313014e+00  1.0000842325687120e+00  1.0000842413670445e+00  1.0000842119929259e+00  1.0000842249462325e+00  1.0000843045006582e+00  1.0000844162637281e+00  1.0000844795250543e+00  1.0000843897450855e+00  1.0000840360793426e+00  1.0000832982595464e+00  1.0000820279924869e+00  1.0000800267672645e+00  1.0000770220351565e+00  1.0000726388782812e+00  1.0000663880796263e+00  1.0000577367705661e+00  1.0000463138270903e+00  1.0000321673787522e+00  1.0000158596521462e+00  9.9999834874323978e-01  9.9998090108669579e-01  9.9996510808690264e-01  9.9995289057313708e-01  9.9994668853458502e-01  9.9994955309109634e-01  9.9996509236401421e-01  9.9999761907494478e-01  1.0000438010376078e+00  1.0000762854544709e+00  1.0000625938942076e+00  1.0000179305294254e+00  9.9999184379325623e-01  9.9999526059022570e-01  1.0000014419252075e+00  1.0000005027149321e+00  9.9999964522181095e-01  1.0000000484367786e+00  1.0000000326850038e+00  9.9999997757473713e-01  1.0000000065353083e+00  9.9999999977737464e-01  1.0000000003692526e+00  9.9999999579760701e-01  1.0000000047450299e+00  1.0000000170770911e+00  9.9999994188329600e-01  9.9999999174620036e-01  1.0000003131683424e+00  9.9999981395525883e-01  9.9999863315094994e-01  1.0000008403985594e+00  1.0000056422439272e+00  1.0000007848570041e+00  9.9998287761372362e-01  9.9997574978065140e-01  1.0000047502414995e+00  1.0000597080982847e+00  1.0000996278963730e+00  1.0000917097304112e+00  1.0000414358552570e+00  9.9998211993803732e-01  9.9994114514458565e-01  9.9992915049270803e-01  9.9995402743975836e-01  1.0000144253990049e+00  1.0000684369731005e+00  1.0000622081436366e+00  1.0000137229550332e+00  9.9998861185636956e-01  9.9999623635036139e-01  1.0000023882503484e+00  1.0000001910954783e+00  9.9999954746696107e-01  1.0000001300846975e+00  1.0000000229317603e+00  9.9999993969706247e-01  1.0000000876098811e+00  1.0000003377309037e+00  9.9999481220120201e-01  1.0000351157925020e+00  9.9983981821400270e-01  1.0004618182822902e+00  9.9986204754067998e-01  9.9249107750563292e-01  1.0493854696674372e+00  7.8795150171657036e-01  -3.0133810958658865e-02  6.1094268720771744e-04  6.2671424188838498e-04  -1.5052156598941040e-04  1.7213973135048996e-05  -1.7927665535224608e-07  -2.0252296709744598e-07  -4.5471215192282133e-08  4.8158802181480387e-08  -1.8873683140442049e-08  5.3293050403957115e-09  -1.2829114150546126e-09  2.9887462275329624e-10  -7.6204191280510001e-11  2.2325994193059909e-11  -7.0947235410491080e-12  2.2575544693638889e-12  -6.8530035556589783e-13  1.9307372775929740e-13  -4.8900625475909219e-14  1.0334654899724665e-14  -1.3524601680186915e-15  -2.1783449963307186e-16  2.6326877273708407e-16  -1.3347811938843262e-16  5.2040362428891992e-17  -1.7070992906909409e-17  4.7400156885838249e-18  -1.0486523734928294e-18  1.3593610738532864e-19  2.5127470487280907e-20  -2.7763104118944966e-20  1.3468412820365226e-20  -5.0223570661878516e-21  1.5770135077658072e-21  -4.2167597674186367e-22  9.1407881690551117e-23  -1.2547734734821464e-23  -1.3593978415455326e-24  1.9351587094834791e-24  -9.7952339005554374e-25  3.8321793167199728e-25  -1.3061145450207884e-25  4.0441051744326901e-26  -1.1591432616582281e-26  3.1041708664577980e-27  -7.8041600884581109e-28  1.8484341275527302e-28  -4.1515952364205864e-29  8.9937094713702210e-30  -1.9546507207692924e-30  4.5692697131218264e-31  -1.2275270235622457e-31  3.7556234778042209e-32  -1.2161597760903360e-32  3.9138088681100719e-33  -1.2044311469169435e-33  3.4320699416367383e-34  -8.9022087906809970e-35  2.1521530788773512e-35  -5.0111634081171269e-36  1.0123571030431817e-36  -1.1083446117709351e-37  -9.7025156798654786e-39  -1.5225308143965336e-39  4.4443893402956643e-39  -4.7526746176316520e-40  -9.3015868939171347e-40  3.9847694593844275e-40  5.4600471607300953e-41  -1.3072105916514027e-40  9.9999617754745584e-01  9.9999683559286179e-01  9.9999445999664227e-01  9.9999195201093116e-01  9.9998899197747426e-01  9.9998621124935150e-01  9.9998469517678468e-01  9.9998596113992866e-01  9.9999105739641059e-01  9.9999938122443732e-01  1.0000096756844532e+00  1.0000218965038576e+00  1.0000359266949763e+00  1.0000489951602898e+00  1.0000562518982066e+00  1.0000533965848473e+00  1.0000390665063226e+00  1.0000162193840716e+00  9.9999030330835059e-01  9.9996522951274680e-01  9.9994219357793368e-01  9.9992182970210763e-01  9.9990561465723171e-01  9.9989519321207843e-01  9.9989147833274616e-01  9.9989458950058807e-01  9.9990410193567647e-01  9.9991908265752349e-01  9.9993815556339705e-01  9.9995993183670151e-01  9.9998332878703355e-01  1.0000069600832691e+00  1.0000281980303045e+00  1.0000437003781288e+00  1.0000513931935362e+00  1.0000516171386002e+00  1.0000463727884119e+00  1.0000380528910546e+00  1.0000287833456141e+00  1.0000200687410461e+00  1.0000125333331604e+00  1.0000060979525425e+00  1.0000005179176616e+00  9.9999573995603852e-01  9.9999186585994648e-01  9.9998897169678946e-01  9.9998701836469717e-01  9.9998587319091459e-01  9.9998537027301915e-01  9.9998535711588488e-01  9.9998571617199028e-01  9.9998637056474149e-01  9.9998728074467613e-01  9.9998843392484038e-01  9.9998982942093684e-01  9.9999146097783553e-01  9.9999329355370747e-01  9.9999527316610093e-01  9.9999741948461585e-01  9.9999981284588790e-01  1.0000021967304333e+00  1.0000036331814555e+00  1.0000031854221552e+00  1.0000012876393982e+00  9.9999969546645762e-01  9.9999947102873221e-01  9.9999992613152933e-01  1.0000001022765510e+00  1.0000000120260495e+00  9.9999998006094382e-01  1.0000000022132116e+00  1.0000000027157707e+00  9.9999999870549627e-01  1.0000000000761136e+00  1.0000000001662317e+00  9.9999999990151434e-01  1.0000000000733340e+00  9.9999999985417332e-01  1.0000000001757214e+00  1.0000000004030944e+00  9.9999999737053236e-01  1.0000000056967353e+00  1.0000000004203611e+00  9.9999996303939465e-01  1.0000000845328381e+00  1.0000000439350643e+00  9.9999944756104742e-01  1.0000005092003235e+00  1.0000023327417713e+00  9.9999638024599424e-01  9.9998985896008463e-01  1.0000092516551653e+00  1.0000423297836798e+00  1.0000295169996751e+00  9.9995111525754943e-01  9.9985865270509133e-01  9.9980528164955418e-01  9.9979819372785894e-01  9.9981442446898172e-01  9.9983063004450556e-01  9.9983699542299087e-01  9.9983429414564173e-01  9.9982668518400120e-01  9.9981841681439243e-01  9.9981266407003488e-01  9.9981104703382662e-01  9.9981372437532523e-01  9.9981981225764271e-01  9.9982799502597064e-01  9.9983700119450303e-01  9.9984579776384686e-01  9.9985363779865688e-01  9.9986005799532762e-01  9.9986482921514885e-01  9.9986788559920614e-01  9.9986927194583697e-01  9.9986911723773431e-01  9.9986762021731357e-01  9.9986502871168281e-01  9.9986161626848080e-01  9.9985768689398968e-01  9.9985359937935114e-01  9.9984975847650559e-01  9.9984656164653785e-01  9.9984432469305862e-01  9.9984320303700269e-01  9.9984316067349754e-01  9.9984403718557457e-01  9.9984565523645008e-01  9.9984787330534008e-01  9.9985058800164950e-01  9.9985373159479551e-01  9.9985725491521016e-01  9.9986108811774443e-01  9.9986512053651055e-01  9.9986922335839334e-01  9.9987328684827215e-01  9.9987723924095706e-01  9.9988104570215253e-01  9.9988470425070763e-01  9.9988824382896346e-01  9.9989171038822322e-01  9.9989514259143042e-01  9.9989856952875023e-01  9.9990203921527054e-01  9.9990564024934148e-01  9.9990948908460153e-01  9.9991369317497503e-01  9.9991831560531697e-01  9.9992336305141472e-01  9.9992879624908571e-01  9.9993454186318420e-01  9.9994049612590097e-01  9.9994652489672931e-01  9.9995245932743304e-01  9.9995809149036541e-01  9.9996319175467019e-01  9.9996755662102177e-01  9.9997105050873925e-01  9.9997359572416944e-01  9.9997512528981702e-01  9.9997555455221376e-01  9.9997478520345817e-01  9.9997271522116127e-01  9.9996924556365996e-01  9.9996429087210748e-01  9.9995779580303590e-01  9.9994975486115434e-01  9.9994023457172454e-01  9.9992938579824986e-01  9.9991743943753464e-01  9.9990480653305203e-01  9.9989241488356051e-01  9.9988191792604297e-01  9.9987571473514336e-01  9.9987684650263131e-01  9.9988894620670810e-01  9.9991872544654448e-01  9.9996955540730814e-01  1.0000186562458051e+00  1.0000299273719127e+00  1.0000092873641540e+00  9.9999574218200749e-01  9.9999840774848880e-01  1.0000009487153558e+00  1.0000000147633641e+00  9.9999984989074819e-01  1.0000000562712419e+00  9.9999999637474724e-01  9.9999999429851449e-01  1.0000000033411822e+00  9.9999999877017076e-01  1.0000000004329077e+00  1.0000000004654785e+00  9.9999999767795156e-01  1.0000000017459929e+00  1.0000000100515205e+00  9.9999997633215165e-01  9.9999997091380755e-01  1.0000001362568933e+00  1.0000000890113923e+00  9.9999942200209868e-01  9.9999943575340000e-01  1.0000016671171177e+00  1.0000035724161065e+00  9.9999985291366278e-01  9.9999073473103695e-01  9.9998504526480925e-01  9.9999090226467979e-01  1.0000070851127385e+00  1.0000270345170781e+00  1.0000449885310765e+00  1.0000560177724469e+00  1.0000568087088981e+00  1.0000477303104611e+00  1.0000319233043784e+00  1.0000130585043903e+00  9.9999374482019121e-01  9.9997495242669687e-01  9.9995650795329516e-01  9.9993788083915491e-01  9.9991872824210959e-01  9.9989919738246791e-01  9.9987997639300852e-01  9.9986207963064100e-01  9.9984649017240512e-01  9.9983387606775054e-01  9.9982448755504960e-01  9.9981819560274332e-01  9.9981461655365567e-01  9.9981330529458545e-01  9.9981400010791743e-01  9.9981684848140717e-01  9.9982247959424808e-01  9.9983181498827389e-01  9.9984562992152837e-01  9.9986400925812124e-01  9.9988597675577839e-01  9.9990966028551520e-01  9.9993305908205821e-01  9.9995482441796646e-01  9.9997436745484947e-01  9.9999143192524842e-01  1.0000058195593475e+00  1.0000174917314166e+00  1.0000267181092859e+00  1.0000340310820963e+00  1.0000400433004268e+00  1.0000452432683786e+00  1.0000497995286681e+00  1.0000532188810651e+00  1.0000538917115311e+00  1.0000491643230591e+00  1.0000362586077640e+00  1.0000157476039964e+00  9.9999667388343172e-01  9.9999071680743679e-01  9.9999634233224677e-01  1.0000011747022262e+00  1.0000007709129448e+00  9.9999973004696052e-01  9.9999992245011893e-01  1.0000000639167645e+00  9.9999999027877651e-01  9.9999999444297927e-01  1.0000000038339654e+00  9.9999999876098000e-01  1.0000000005458591e+00  9.9999999947956963e-01  9.9999999862171562e-01  1.0000000092636760e+00  9.9999997829522580e-01  1.0000000040831389e+00  1.0000001299571404e+00  9.9999966108336147e-01  9.9999990913245440e-01  1.0000020692758360e+00  9.9999821281591628e-01  9.9999109658760132e-01  1.0000090513694644e+00  1.0000392683577632e+00  1.0000034611487616e+00  9.9988963660259544e-01  9.9981390075512988e-01  9.9986609548377903e-01  9.9999786734243057e-01  1.0001161598153914e+00  1.0001857222284962e+00  1.0002126738136536e+00  1.0002063979490532e+00  1.0001754730522721e+00  1.0001288649997133e+00  1.0000745724633695e+00  1.0000196972422057e+00  9.9996993035018911e-01  9.9992871503369973e-01  9.9989708197216476e-01  9.9987421349307748e-01  9.9985836502173908e-01  9.9984769573705978e-01  9.9984070134070613e-01  9.9983628167568883e-01  9.9983365417905634e-01  9.9983225121575370e-01  9.9983164569228822e-01  9.9983150283632838e-01  9.9983154990686141e-01  9.9983158011426665e-01  9.9983148597994442e-01  9.9983127910905623e-01  9.9983107929324544e-01  9.9983107833876106e-01  9.9983149383578973e-01  9.9983255313154040e-01  9.9983451925219657e-01  9.9983773344025761e-01  9.9984266040612069e-01  9.9984993979903147e-01  9.9986043760526011e-01  9.9987520938191055e-01  9.9989522834756417e-01  9.9992087702509791e-01  9.9995153295258932e-01  9.9998562880206165e-01  1.0000209432881400e+00  1.0000546236506165e+00  1.0000831548169635e+00  1.0001022736907963e+00  1.0001064374429991e+00  1.0000890115008283e+00  1.0000421241552171e+00  9.9996057097039481e-01  9.9987107295033673e-01  9.9984687275505713e-01  9.9991823729816320e-01  1.0000007521312937e+00  1.0000171208684476e+00  1.0000004544789229e+00  9.9999733808559410e-01  1.0000006101940817e+00  1.0000001785641350e+00  9.9999983717200724e-01  1.0000000517671950e+00  9.9999999589842581e-01  9.9999999581958521e-01  1.0000000013960024e+00  9.9999999970874043e-01  1.0000000103412887e+00  9.9999996898626298e-01  1.0000000064682932e+00  1.0000001634701636e+00  9.9999973376540763e-01  9.9999942387882723e-01  1.0000016610957403e+00  1.0000021122744933e+00  9.9999322883238007e-01  9.9998903180804766e-01  1.0000143536921062e+00  1.0000487461478866e+00  1.0000301905825371e+00  9.9993782975347345e-01  9.9983085688266093e-01  9.9979455051357158e-01  9.9985978841823442e-01  9.9997898917784156e-01  1.0000833604965051e+00  1.0001375688254435e+00 