<?xml version="1.0"?>
<VTKFile type="UnstructuredGrid"  version="0.1"  >
<UnstructuredGrid>
<Piece  NumberOfPoints="28121" NumberOfCells="55200">
<Points>
<DataArray  type="Float64"  NumberOfComponents="3"  format="ascii">0 0 0  0.008260869565217391 0 0  0.01652173913043478 0 0  0.02478260869565217 0 0  0.03304347826086956 0 0  0.04130434782608695 0 0  0.04956521739130434 0 0  0.05782608695652174 0 0  0.06608695652173913 0 0  0.07434782608695652 0 0  0.08260869565217391 0 0  0.0908695652173913 0 0  0.09913043478260869 0 0  0.1073913043478261 0 0  0.1156521739130435 0 0  0.1239130434782609 0 0  0.1321739130434783 0 0  0.1404347826086956 0 0  0.148695652173913 0 0  0.1569565217391304 0 0  0.1652173913043478 0 0  0.1734782608695652 0 0  0.1817391304347826 0 0  0.19 0 0  0.1982608695652174 0 0  0.2065217391304348 0 0  0.2147826086956522 0 0  0.2230434782608696 0 0  0.2313043478260869 0 0  0.2395652173913043 0 0  0.2478260869565218 0 0  0.2560869565217391 0 0  0.2643478260869565 0 0  0.2726086956521739 0 0  0.2808695652173913 0 0  0.2891304347826087 0 0  0.2973913043478261 0 0  0.3056521739130434 0 0  0.3139130434782609 0 0  0.3221739130434783 0 0  0.3304347826086956 0 0  0.338695652173913 0 0  0.3469565217391304 0 0  0.3552173913043478 0 0  0.3634782608695652 0 0  0.3717391304347826 0 0  0.3799999999999999 0 0  0.3882608695652174 0 0  0.3965217391304348 0 0  0.4047826086956521 0 0  0.4130434782608696 0 0  0.4213043478260869 0 0  0.4295652173913043 0 0  0.4378260869565217 0 0  0.4460869565217391 0 0  0.4543478260869565 0 0  0.4626086956521739 0 0  0.4708695652173913 0 0  0.4791304347826086 0 0  0.4873913043478261 0 0  0.4956521739130435 0 0  0.5039130434782608 0 0  0.5121739130434783 0 0  0.5204347826086956 0 0  0.528695652173913 0 0  0.5369565217391304 0 0  0.5452173913043478 0 0  0.5534782608695652 0 0  0.5617391304347825 0 0  0.57 0 0  0.5782608695652174 0 0  0.5865217391304348 0 0  0.5947826086956521 0 0  0.6030434782608696 0 0  0.6113043478260869 0 0  0.6195652173913043 0 0  0.6278260869565218 0 0  0.6360869565217391 0 0  0.6443478260869565 0 0  0.6526086956521739 0 0  0.6608695652173913 0 0  0.6691304347826087 0 0  0.677391304347826 0 0  0.6856521739130435 0 0  0.6939130434782609 0 0  0.7021739130434783 0 0  0.7104347826086956 0 0  0.718695652173913 0 0  0.7269565217391304 0 0  0.7352173913043478 0 0  0.7434782608695653 0 0  0.7517391304347827 0 0  0.7599999999999999 0 0  0.7682608695652173 0 0  0.7765217391304348 0 0  0.7847826086956522 0 0  0.7930434782608695 0 0  0.8013043478260868 0 0  0.8095652173913043 0 0  0.8178260869565217 0 0  0.8260869565217391 0 0  0.8343478260869565 0 0  0.8426086956521739 0 0  0.8508695652173912 0 0  0.8591304347826086 0 0  0.8673913043478261 0 0  0.8756521739130434 0 0  0.8839130434782608 0 0  0.8921739130434783 0 0  0.9004347826086956 0 0  0.908695652173913 0 0  0.9169565217391303 0 0  0.9252173913043478 0 0  0.9334782608695652 0 0  0.9417391304347826 0 0  0.95 0 0  0.9582608695652173 0 0  0.9665217391304347 0 0  0.9747826086956521 0 0  0.9830434782608696 0 0  0.991304347826087 0 0  0.9995652173913042 0 0  1.007826086956522 0 0  1.016086956521739 0 0  1.024347826086957 0 0  1.032608695652174 0 0  1.040869565217391 0 0  1.049130434782609 0 0  1.057391304347826 0 0  1.065652173913043 0 0  1.073913043478261 0 0  1.082173913043478 0 0  1.090434782608696 0 0  1.098695652173913 0 0  1.10695652173913 0 0  1.115217391304348 0 0  1.123478260869565 0 0  1.131739130434783 0 0  1.14 0 0  1.148260869565217 0 0  1.156521739130435 0 0  1.164782608695652 0 0  1.17304347826087 0 0  1.181304347826087 0 0  1.189565217391304 0 0  1.197826086956522 0 0  1.206086956521739 0 0  1.214347826086956 0 0  1.222608695652174 0 0  1.230869565217391 0 0  1.239130434782609 0 0  1.247391304347826 0 0  1.255652173913044 0 0  1.263913043478261 0 0  1.272173913043478 0 0  1.280434782608696 0 0  1.288695652173913 0 0  1.296956521739131 0 0  1.305217391304348 0 0  1.313478260869565 0 0  1.321739130434783 0 0  1.33 0 0  1.338260869565217 0 0  1.346521739130435 0 0  1.354782608695652 0 0  1.36304347826087 0 0  1.371304347826087 0 0  1.379565217391304 0 0  1.387826086956522 0 0  1.396086956521739 0 0  1.404347826086957 0 0  1.412608695652174 0 0  1.420869565217391 0 0  1.429130434782609 0 0  1.437391304347826 0 0  1.445652173913043 0 0  1.453913043478261 0 0  1.462173913043478 0 0  1.470434782608696 0 0  1.478695652173913 0 0  1.486956521739131 0 0  1.495217391304348 0 0  1.503478260869565 0 0  1.511739130434782 0 0  1.52 0 0  1.528260869565217 0 0  1.536521739130435 0 0  1.544782608695652 0 0  1.55304347826087 0 0  1.561304347826087 0 0  1.569565217391304 0 0  1.577826086956522 0 0  1.586086956521739 0 0  1.594347826086957 0 0  1.602608695652174 0 0  1.610869565217391 0 0  1.619130434782609 0 0  1.627391304347826 0 0  1.635652173913043 0 0  1.643913043478261 0 0  1.652173913043478 0 0  1.660434782608696 0 0  1.668695652173913 0 0  1.67695652173913 0 0  1.685217391304348 0 0  1.693478260869565 0 0  1.701739130434782 0 0  1.71 0 0  1.718260869565217 0 0  1.726521739130435 0 0  1.734782608695652 0 0  1.743043478260869 0 0  1.751304347826087 0 0  1.759565217391304 0 0  1.767826086956522 0 0  1.776086956521739 0 0  1.784347826086957 0 0  1.792608695652174 0 0  1.800869565217391 0 0  1.809130434782608 0 0  1.817391304347826 0 0  1.825652173913043 0 0  1.833913043478261 0 0  1.842173913043478 0 0  1.850434782608696 0 0  1.858695652173913 0 0  1.86695652173913 0 0  1.875217391304348 0 0  1.883478260869565 0 0  1.891739130434782 0 0  1.9 0 0  1.908260869565217 0 0  1.916521739130435 0 0  1.924782608695652 0 0  1.933043478260869 0 0  1.941304347826087 0 0  1.949565217391304 0 0  1.957826086956522 0 0  1.966086956521739 0 0  1.974347826086956 0 0  1.982608695652174 0 0  1.990869565217391 0 0  1.999130434782608 0 0  2.007391304347826 0 0  2.015652173913043 0 0  2.023913043478261 0 0  2.032173913043478 0 0  2.040434782608695 0 0  2.048695652173913 0 0  2.05695652173913 0 0  2.065217391304348 0 0  2.073478260869565 0 0  2.081739130434782 0 0  2.09 0 0  2.098260869565217 0 0  2.106521739130435 0 0  2.114782608695652 0 0  2.12304347826087 0 0  2.131304347826087 0 0  2.139565217391304 0 0  2.147826086956522 0 0  2.156086956521739 0 0  2.164347826086956 0 0  2.172608695652174 0 0  2.180869565217391 0 0  2.189130434782609 0 0  2.197391304347826 0 0  2.205652173913043 0 0  2.213913043478261 0 0  2.222173913043478 0 0  2.230434782608695 0 0  2.238695652173913 0 0  2.24695652173913 0 0  2.255217391304348 0 0  2.263478260869565 0 0  2.271739130434783 0 0  2.28 0 0  2.288260869565217 0 0  2.296521739130434 0 0  2.304782608695652 0 0  2.31304347826087 0 0  2.321304347826087 0 0  2.329565217391304 0 0  2.337826086956521 0 0  2.346086956521739 0 0  2.354347826086956 0 0  2.362608695652174 0 0  2.370869565217391 0 0  2.379130434782609 0 0  2.387391304347826 0 0  2.395652173913044 0 0  2.403913043478261 0 0  2.412173913043478 0 0  2.420434782608695 0 0  2.428695652173913 0 0  2.43695652173913 0 0  2.445217391304348 0 0  2.453478260869565 0 0  2.461739130434782 0 0  2.47 0 0  2.478260869565217 0 0  2.486521739130435 0 0  2.494782608695652 0 0  2.503043478260869 0 0  2.511304347826087 0 0  2.519565217391305 0 0  2.527826086956522 0 0  2.536086956521739 0 0  2.544347826086956 0 0  2.552608695652174 0 0  2.560869565217391 0 0  2.569130434782608 0 0  2.577391304347826 0 0  2.585652173913043 0 0  2.593913043478261 0 0  2.602173913043478 0 0  2.610434782608696 0 0  2.618695652173913 0 0  2.62695652173913 0 0  2.635217391304348 0 0  2.643478260869565 0 0  2.651739130434783 0 0  2.66 0 0  2.668260869565217 0 0  2.676521739130435 0 0  2.684782608695652 0 0  2.693043478260869 0 0  2.701304347826087 0 0  2.709565217391304 0 0  2.717826086956522 0 0  2.726086956521739 0 0  2.734347826086956 0 0  2.742608695652174 0 0  2.750869565217391 0 0  2.759130434782609 0 0  2.767391304347826 0 0  2.775652173913044 0 0  2.783913043478261 0 0  2.792173913043478 0 0  2.800434782608696 0 0  2.808695652173913 0 0  2.81695652173913 0 0  2.825217391304347 0 0  2.833478260869565 0 0  2.841739130434783 0 0  2.85 0 0  2.858260869565217 0 0  2.866521739130435 0 0  2.874782608695652 0 0  2.88304347826087 0 0  2.891304347826087 0 0  2.899565217391304 0 0  2.907826086956522 0 0  2.916086956521739 0 0  2.924347826086957 0 0  2.932608695652174 0 0  2.940869565217391 0 0  2.949130434782608 0 0  2.957391304347826 0 0  2.965652173913043 0 0  2.973913043478261 0 0  2.982173913043478 0 0  2.990434782608696 0 0  2.998695652173913 0 0  3.006956521739131 0 0  3.015217391304348 0 0  3.023478260869565 0 0  3.031739130434782 0 0  3.04 0 0  3.048260869565218 0 0  3.056521739130435 0 0  3.064782608695652 0 0  3.073043478260869 0 0  3.081304347826087 0 0  3.089565217391304 0 0  3.097826086956522 0 0  3.106086956521739 0 0  3.114347826086956 0 0  3.122608695652174 0 0  3.130869565217391 0 0  3.139130434782609 0 0  3.147391304347826 0 0  3.155652173913043 0 0  3.163913043478261 0 0  3.172173913043478 0 0  3.180434782608696 0 0  3.188695652173913 0 0  3.19695652173913 0 0  3.205217391304347 0 0  3.213478260869565 0 0  3.221739130434782 0 0  3.23 0 0  3.238260869565217 0 0  3.246521739130435 0 0  3.254782608695652 0 0  3.26304347826087 0 0  3.271304347826087 0 0  3.279565217391304 0 0  3.287826086956521 0 0  3.296086956521739 0 0  3.304347826086957 0 0  3.312608695652174 0 0  3.320869565217391 0 0  3.329130434782608 0 0  3.337391304347826 0 0  3.345652173913043 0 0  3.353913043478261 0 0  3.362173913043478 0 0  3.370434782608696 0 0  3.378695652173913 0 0  3.386956521739131 0 0  3.395217391304348 0 0  3.403478260869565 0 0  3.411739130434782 0 0  3.419999999999999 0 0  3.428260869565217 0 0  3.436521739130435 0 0  3.444782608695652 0 0  3.453043478260869 0 0  3.461304347826087 0 0  3.469565217391304 0 0  3.477826086956522 0 0  3.486086956521739 0 0  3.494347826086956 0 0  3.502608695652174 0 0  3.510869565217391 0 0  3.519130434782609 0 0  3.527391304347826 0 0  3.535652173913043 0 0  3.54391304347826
[...]
<PointData  Scalars="rho_bar"> 
<DataArray  type="Float64"  Name="rho_bar"  format="ascii">7.3385000943631939e-01  7.3348639176191333e-01  7.3323616442505946e-01  7.3298053681817388e-01  7.3268536498776804e-01  7.3233839540616308e-01  7.3193551011476621e-01  7.3147464984824906e-01  7.3095588504981057e-01  7.3037981805226415e-01  7.2974805567264311e-01  7.2906243768442591e-01  7.2832545031438178e-01  7.2753963590545179e-01  7.2670801720818190e-01  7.2583350374687194e-01  7.2491943074663689e-01  7.2396887831411461e-01  7.2298540939897760e-01  7.2197232729271210e-01  7.2093344829229222e-01  7.1987240726375790e-01  7.1879337407902566e-01  7.1770022435008907e-01  7.1659740642179348e-01  7.1548913844487561e-01  7.1438032028070730e-01  7.1327561870264256e-01  7.1218025236651383e-01  7.1109909190928289e-01  7.1003726389075872e-01  7.0899922825298467e-01  7.0798954090030075e-01  7.0701197808659655e-01  7.0607031582971624e-01  7.0516745256643343e-01  7.0430623976635898e-01  7.0348876345239075e-01  7.0271711386016811e-01  7.0199258051061542e-01  7.0131647950475129e-01  7.0068955324158733e-01  7.0011273278360553e-01  6.9958624886392839e-01  6.9911040508919797e-01  6.9868489504160403e-01  6.9830946968897245e-01  6.9798318275653659e-01  6.9770512575611432e-01  6.9747363784285943e-01  6.9728705636772936e-01  6.9714289711422295e-01  6.9703872546747303e-01  6.9697142126239553e-01  6.9693792181259262e-01  6.9693461630825360e-01  6.9695812334378326e-01  6.9700452377939914e-01  6.9707013107895710e-01  6.9715072530031441e-01  6.9724238360736790e-01  6.9734085245891342e-01  6.9744227822023208e-01  6.9754258343578956e-01  6.9763832791275915e-01  6.9772600667270168e-01  6.9780280952167340e-01  6.9786588227836355e-01  6.9791297888004100e-01  6.9794165265818853e-01  6.9794972970437452e-01  6.9793440530355388e-01  6.9789284203316382e-01  6.9782136088766455e-01  6.9771618669487345e-01  6.9757266674223173e-01  6.9738616633812311e-01  6.9715141813738946e-01  6.9686335224658946e-01  6.9651648922937703e-01  6.9610594577835827e-01  6.9562678863018956e-01  6.9507495567680533e-01  6.9444658774853874e-01  6.9373890858800535e-01  6.9294967342187153e-01  6.9207794910964415e-01  6.9112341430908908e-01  6.9008706367042327e-01  6.8897044243022376e-01  6.8777636063411307e-01  6.8650798305806437e-01  6.8516960695419704e-01  6.8376582142116116e-01  6.8230211739222446e-01  6.8078402288398399e-01  6.7921778571384805e-01  6.7760949443139251e-01  6.7596571978727549e-01  6.7429259269334996e-01  6.7259637098433733e-01  6.7088260248493270e-01  6.6915663240648882e-01  6.6742282476368386e-01  6.6568531144741783e-01  6.6394732183806648e-01  6.6221200538783098e-01  6.6048167064889685e-01  6.5875869687489597e-01  6.5704482723603341e-01  6.5534196961048397e-01  6.5365149149272916e-01  6.5197504741718371e-01  6.5031382035190788e-01  6.4866929273318663e-01  6.4704244875883210e-01  6.4543452147062252e-01  6.4384633741470654e-01  6.4227902446760599e-01  6.4073334250593428e-01  6.3921049271989128e-01  6.3771147257370764e-01  6.3623792435989568e-01  6.3479136733535579e-01  6.3337409249578747e-01  6.3198840171977566e-01  6.3063725774476531e-01  6.2932335990672805e-01  6.2804973717462509e-01  6.2681874460790854e-01  6.2563269840321367e-01  6.2449295681121497e-01  6.2340057774743540e-01  6.2235558514548095e-01  6.2135766772369816e-01  6.2040549797841860e-01  6.1949752639912881e-01  6.1863127726648526e-01  6.1780422598680218e-01  6.1701305525816508e-01  6.1625452855078600e-01  6.1552481378004620e-01  6.1482028475622363e-01  6.1413682933002478e-01  6.1347070126969094e-01  6.1281771210683711e-01  6.1217420556370750e-01  6.1153624404831619e-01  6.1090057013374310e-01  6.1026389751871013e-01  6.0962372377744067e-01  6.0897754665576476e-01  6.0832377472296018e-01  6.0766095750324678e-01  6.0698875021810295e-01  6.0630708298433611e-01  6.0561711924386563e-01  6.0492052095397675e-01  6.0422005463882034e-01  6.0351856575931329e-01  6.0281944310850177e-01  6.0212549094500700e-01  6.0143936475451110e-01  6.0076244461297001e-01  6.0009559394313028e-01  5.9943845661049355e-01  5.9879016537240537e-01  5.9814868702846657e-01  5.9751172935398622e-01  5.9687623124120670e-01  5.9623932840247718e-01  5.9559774919672970e-01  5.9494873636181900e-01  5.9428955785760496e-01  5.9361827140608758e-01  5.9293309351530055e-01  5.9223329313784179e-01  5.9151867202101793e-01  5.9079033106628864e-01  5.9004965389364972e-01  5.8929884820791023e-01  5.8853991729017840e-01  5.8777507908877991e-01  5.8700581875544644e-01  5.8623357634633799e-01  5.8545896612986514e-01  5.8468256838728816e-01  5.8390420726586711e-01  5.8312375813561268e-01  5.8234056153694658e-01  5.8155412985257815e-01  5.8076347571827736e-01  5.7996787992066789e-01  5.7916621002677826e-01  5.7835765682122919e-01  5.7754091126846385e-01  5.7671497086050283e-01  5.7587841413770413e-01  5.7503008160903846e-01  5.7416830976956279e-01  5.7329168004606190e-01  5.7239826736353228e-01  5.7148638976328991e-01  5.7055386255467422e-01  5.6959875920493042e-01  5.6861880887223715e-01  5.6761210319159316e-01  5.6657645134617862e-01  5.6551018197834357e-01  5.6441153661557875e-01  5.6327949640850772e-01  5.6211309072981686e-01  5.6091234818927882e-01  5.5967766781875683e-01  5.5841031685014852e-01  5.5711137128986910e-01  5.5578222603110483e-01  5.5442358094817612e-01  5.5303599583616747e-01  5.5161919710260909e-01  5.5017311253460066e-01  5.4869767948548964e-01  5.4719398634571847e-01  5.4566399513794628e-01  5.4411152231171234e-01  5.4254153206863243e-01  5.4096056881968224e-01  5.3937559294991511e-01  5.3779461416010754e-01  5.3622599264397341e-01  5.3467916829672468e-01  5.3316373487286894e-01  5.3168962151323762e-01  5.3026554952635707e-01  5.2889900764748909e-01  5.2759508492000406e-01  5.2635697494280442e-01  5.2518503414629980e-01  5.2407670154368668e-01  5.2302493172038145e-01  5.2201867554860504e-01  5.2104326524523681e-01  5.2008302053978117e-01  5.1912237149000151e-01  5.1814800789681514e-01  5.1714907934479182e-01  5.1611823090142162e-01  5.1505078895185119e-01  5.1394490811773175e-01  5.1280015523430933e-01  5.1161787841009720e-01  5.1040041833671101e-01  5.0915208686766111e-01  5.0787873586752241e-01  5.0658829439343578e-01  5.0528928387099714e-01  5.0399046748044907e-01  5.0269945829505513e-01  5.0142321297605164e-01  5.0016726723974581e-01  4.9893661635530884e-01  4.9773518092146368e-01  4.9656658279458699e-01  4.9543344776361603e-01  4.9433811789114884e-01  4.9328177393034489e-01  4.9226493730843962e-01  4.9128642112234500e-01  4.9034392909739749e-01  4.8943381914690026e-01  4.8855291942862061e-01  4.8769915968525440e-01  4.8687252103675799e-01  4.8607365147645681e-01  4.8530327721711997e-01  4.8456014419678284e-01  4.8384081621884151e-01  4.8313884490027076e-01  4.8244579204587257e-01  4.8175109072329103e-01  4.8104321851897752e-01  4.8030971584345911e-01  4.7953892217957345e-01  4.7872032722565699e-01  4.7784593683055548e-01  4.7690969034722036e-01  4.7590781560847756e-01  4.7483783806330132e-01  4.7369910922428060e-01  4.7249221062273894e-01  4.7121980109942158e-01  4.6988598509969187e-01  4.6849653573607958e-01  4.6705712425997359e-01  4.6557242231683532e-01  4.6404463753021535e-01  4.6247439237926452e-01  4.6086100186725348e-01  4.5920431107943793e-01  4.5750495955148240e-01  4.5576523340180086e-01  4.5398709086503880e-01  4.5217105044242584e-01  4.5031500366420418e-01  4.4841571979650641e-01  4.4646990768604478e-01  4.4447684587272041e-01  4.4243878434309430e-01  4.4036029425515411e-01  4.3824522445344105e-01  4.3609614426024601e-01  4.3391407401568821e-01  4.3170089099834830e-01  4.2946052316327377e-01  4.2719789225217214e-01  4.2491488194363236e-01  4.2261141781658779e-01  4.2028742873389607e-01  4.1794723992128840e-01  4.1560365457420512e-01  4.1327721267132517e-01  4.1098862562739391e-01  4.0876097945650469e-01  4.0661969524967656e-01  4.0458115129606831e-01  4.0265028435486083e-01  4.0082257691579326e-01  3.9908167433987080e-01  3.9739987294443657e-01  3.9575077766703354e-01  3.9410842015904263e-01  3.9243818523640517e-01  3.9070123630446868e-01  3.8886871085695429e-01  3.8692320811441372e-01  3.8485551595404383e-01  3.8266280618764598e-01  3.8034873041948380e-01  3.7793157727274540e-01  3.7544926678821799e-01  3.7295825343701572e-01  3.7052444783612498e-01  3.6820367300042312e-01  3.6602796713916436e-01  3.6400467856296259e-01  3.6211791081094752e-01  3.6033798418802965e-01  3.5862951079954292e-01  3.5696247001774861e-01  3.5531070243705193e-01  3.5364971296517517e-01  3.5195578128951127e-01  3.5020489111581227e-01  3.4837369062920931e-01  3.4644349633349081e-01  3.4440048434353565e-01  3.4223623866176700e-01  3.3994598598221959e-01  3.3752773722857721e-01  3.3498093047075073e-01  3.3230652359384771e-01  3.2950650479283311e-01  3.2658488018273041e-01  3.2354765329248120e-01  3.2040275724246770e-01  3.1715835854643576e-01  3.1382262271218098e-01  3.1040362398984556e-01  3.0691024242650616e-01  3.0335150870546196e-01  2.9973646193705711e-01  2.9607250447970335e-01  2.9236244961615671e-01  2.8860413429636289e-01  2.8479243148862809e-01  2.8091984154752819e-01  2.7697638917408424e-01  2.7294862744538512e-01  2.6882103881181085e-01  2.6457701845780907e-01  2.6020027777018540e-01  2.5567544484101046e-01  2.5098901812901964e-01  2.4612978133972133e-01  2.4108965240825558e-01  2.3586322249731753e-01  2.3044761117118231e-01  2.2484233941361034e-01  2.1904996078650382e-01  2.1307616644676897e-01  2.0693034737981017e-01  2.0062577947165941e-01  1.9418057947953063e-01  1.8761841563061876e-01  1.8096719370224459e-01  1.7425420389951249e-01  1.6750983559796875e-01  1.6077445944544666e-01  1.5409333431544445e-01  1.4751288240244828e-01  1.4107691267488190e-01  1.3481829505801121e-01  1.2875833336012354e-01  1.2290911372184474e-01  1.1727594661585318e-01  1.1185922991084478e-01  1.0665602351397355e-01  1.0166114116567326e-01  9.6868131858539833e-02  9.2269873680705702e-02  8.7859059871567793e-02  8.3628400485412507e-02  7.9570848174918940e-02  7.5679645593637157e-02  7.1948377677203995e-02  6.8370927683022512e-02  6.4941516003654776e-02  6.1654663026675459e-02  5.8505190537689683e-02  5.5488151060640263e-02  5.2598858226443210e-02  4.9832847065432680e-02  4.7185871697242282e-02  4.4653860678550490e-02  4.2232937869380809e-02  3.9919394912014121e-02  3.7709704000134237e-02  3.5600468826524581e-02  3.3588459935436174e-02  3.1670588265749901e-02  2.9843909115118313e-02  2.8105594856886677e-02  2.6452944885503170e-02  2.4883368785013592e-02  2.3394387090785725e-02  2.1983595094771231e-02  2.0648682957436160e-02  1.9387417626786380e-02  1.8197638907451932e-02  1.7077252011582396e-02  1.6024223983816331e-02  1.5036588832120980e-02  1.4112440373837241e-02  1.3249928808274495e-02  1.2447267934375507e-02  1.1702737982310555e-02  1.1014686343744289e-02  1.0381535288453324e-02  9.8017833054614735e-03  9.2740148336916562e-03  8.7969031256113928e-03  8.3692169084755210e-03  7.9898273109861428e-03  7.6577154713098443e-03  7.3719811969030205e-03  7.1318504240359707e-03  6.9367002083685634e-03  6.7860866607527730e-03  6.6798614223541183e-03  6.6185304756039808e-03  6.6047143117991692e-03  7.3154460582414071e-01  7.3142166834224465e-01  7.3123106799826476e-01  7.3099252509509627e-01  7.3070231856301771e-01  7.3035682294282600e-01  7.2995330610371201e-01  7.2949119293489018e-01  7.2897032216320390e-01  7.2839182343440445e-01  7.2775709913432718e-01  7.2706831107182912e-01  7.2632775909050074e-01  7.2553827613067068e-01  7.2470266439924669e-01  7.2382416409201522e-01  7.2290581132520138e-01  7.2195106319757141e-01  7.2096311443124850e-01  7.1994566064377097e-01  7.1890219489527685e-01  7.1783671734077259e-01  7.1675303373727495e-01  7.1565546447270767e-01  7.1454805678521938e-01  7.1343547778114924e-01  7.1232222030750025e-01  7.1121344667746944e-01  7.1011408829610700e-01  7.0902947829206264e-01  7.0796444647347201e-01  7.0692394208136622e-01  7.0591218513117315e-01  7.0493342589907249e-01  7.0399102740090647e-01  7.0308829982628285e-01  7.0222770693293546e-01  7.0141162956889747e-01  7.0064172725738294e-01  6.9991965126549560e-01  6.9924630976692792e-01  6.9862279289568952e-01  6.9804959037963921e-01  6.9752730382361017e-01  6.9705587355123289e-01  6.9663529533959789e-01  6.9626494625466051e-01  6.9594424506656005e-01  6.9567189687668818e-01  6.9544662649143296e-01  6.9526632920281795e-01  6.9512890076575073e-01  6.9503152955742287e-01  6.9497143283964324e-01  6.9494517101153497e-01  6.9494948152676084e-01  6.9498057539902569e-01  6.9503487078989246e-01  6.9510822897739089e-01  6.9519676365482175e-01  6.9529616027797037e-01  6.9540243129120005e-01  6.9551130464428368e-01  6.9561900500736296e-01  6.9572167331606194e-01  6.9581614746630616e-01  6.9589923435876322e-01  6.9596845076158553e-01  6.9602124727559833e-01  6.9605551528876641e-01  6.9606875690436543e-01  6.9605854598515005e-01  6.9602167650291602e-01  6.9595481912129820e-01  6.9585373225425406e-01  6.9571410403721423e-01  6.9553085955393279e-01  6.9529900278684276e-01  6.9501300902482910e-01  6.9466770962282820e-01  6.9425774725447764e-01  6.9377851104182031e-01  6.9322547787735933e-01  6.9259510892676868e-01  6.9188425132183284e-01  6.9109094905066282e-01  6.9021389446842485e-01  6.8925314293084172e-01  6.8820935670185734e-01  6.8708451454841935e-01  6.8588106615872069e-01  6.8460265844861190e-01  6.8325329261651824e-01  6.8183799181256632e-01  6.8036195978206448e-01  6.7883120408991837e-01  6.7725169671335661e-01  6.7563002176333753e-01  6.7397247395192772e-01  6.7228565608820356e-01  6.7057558872240908e-01  6.6884821823549723e-01  6.6710860826416585e-01  6.6536153622027505e-01  6.6361080656664562e-01  6.6186004290501410e-01  6.6011197766319563e-01  6.5836933279093657e-01  6.5663411401882965e-01  6.5490841493278817e-01  6.5319376514793670e-01  6.5149192340788797e-01  6.4980417041573479e-01  6.4813209209259359e-01  6.4647679949501224e-01  6.4483966425555161e-01  6.4322159573831661e-01  6.4162374147228929e-01  6.4004687571079766e-01  6.3849211090078761e-01  6.3696026583710297e-01  6.3545270092843886e-01  6.3397062132816751e-01  6.3251595001281624e-01  6.3109060801429973e-01  6.2969728373350609e-01  6.2833862348354630e-01  6.2701778700468069e-01  6.2573747952763470e-01  6.2450052199740991e-01  6.2330888927610084e-01  6.2216434390740682e-01  6.2106761398021915e-01  6.2001904337710467e-01  6.1901795269388216e-01  6.1806335095932530e-01  6.1715326750189570e-01  6.1628557972523301e-01  6.1545730815943134e-01  6.1466548774191898e-01  6.1390647335397230e-01  6.1317673609368384e-01  6.1247223597611333e-01  6.1178921348600723e-01  6.1112345618099972e-01  6.1047117921440464e-01  6.0982823074985992e-01  6.0919106269532408e-01  6.0855600919902919e-01  6.0792012673167950e-01  6.0728049383618699e-01  6.0663500335600495e-01  6.0598161456496347e-01  6.0531927719718492e-01  6.0464714977342149e-01  6.0396556761109343e-01  6.0327532092602687e-01  6.0257844878101996e-01  6.0187741340928969e-01  6.0117556936676186e-01  6.0047606068856840e-01  5.9978220564913620e-01  5.9909629628906880e-01  5.9842017095848110e-01  5.9775434654365112e-01  5.9709876775751369e-01  5.9645216737990880e-01  5.9581284545181923e-01  5.9517809677441857e-01  5.9454516081513908e-01  5.9391071801160067e-01  5.9327180637857457e-01  5.9262528011450311e-01  5.9196864411530348e-01  5.9129954481254021e-01  5.9061653035738371e-01  5.8991849805024654e-01  5.8920563306718798e-01  5.8847865549610856e-01  5.8773941329664392e-01  5.8698983043932074e-01  5.8623231478722870e-01  5.8546875223311079e-01  5.8470101681150322e-01  5.8393015135170534e-01  5.8315711648000446e-01  5.8238206427225658e-01  5.8160514352293213e-01  5.8082586616702248e-01  5.8004384682910326e-01  5.7925821978364300e-01  5.7846832898654088e-01  5.7767307886880959e-01  5.7687168575165071e-01  5.7606291993783976e-01  5.7524585889302204e-01  5.7441913571263326e-01  5.7358165982726894e-01  5.7273190267538976e-01  5.7186857318317819e-01  5.7098987994252615e-01  5.7009426533622320e-01  5.6917966491977490e-01  5.6824425133505818e-01  5.6728577212122644e-01  5.6630226150245877e-01  5.6529146500385996e-01  5.6425154508121256e-01  5.6318047922218262e-01  5.6207687111799354e-01  5.6093929844531920e-01  5.5976719002221542e-01  5.5856022202782174e-01  5.5731913565696489e-01  5.5604491536984446e-01  5.5473913845644363e-01  5.5340297174437170e-01  5.5203760013729686e-01  5.5064325106707523e-01  5.4921998667109873e-01  5.4776733579181458e-01  5.4628544788871403e-01  5.4477498931106305e-01  5.4323824229833273e-01  5.4167873345812678e-01  5.4010193574948062e-01  5.3851415579270068e-01  5.3692284373449306e-01  5.3533566203010807e-01  5.3376129391894755e-01  5.3220887092779767e-01  5.3068851309963794e-01  5.2921002885717472e-01  5.2778270530284066e-01  5.2641374620068215e-01  5.2510856256713501e-01  5.2387002783033609e-01  5.2269894438638098e-01  5.2159267772637552e-01  5.2054461988506273e-01  5.1954311054137881e-01  5.1857331196031586e-01  5.1761867119694449e-01  5.1666362686966549e-01  5.1569432190650055e-01  5.1470012977235235e-01  5.1367339219720654e-01  5.1260994449132014e-01  5.1150776273317888e-01  5.1036689077887243e-01  5.0918827558893209e-01  5.0797451787479908e-01  5.0672945675888070e-01  5.0545919773898040e-01  5.0417144380468248e-01  5.0287526631183488e-01  5.0157917414067898e-01  5.0029113401246883e-01  4.9901764388450059e-01  4.9776451869791211e-01  4.9653632376316720e-01  4.9533720935383840e-01  4.9417035995395198e-01  4.9303871005011124e-01  4.9194420357670710e-01  4.9088839978703519e-01  4.8987148620802617e-01  4.8889271034842957e-01  4.8794944573234000e-01  4.8703809759830918e-01  4.8615487910028371e-01  4.8529802948501166e-01  4.8446743915311741e-01  4.8366446514608968e-01  4.8288984799352619e-01  4.8214297508024395e-01  4.8142019133745684e-01  4.8071526880540466e-01  4.8001934764369603e-01  4.7932215877496837e-01  4.7861177688655931e-01  4.7787588454562363e-01  4.7710222403126118e-01  4.7628057540204316e-01  4.7540271056759797e-01  4.7446304223865310e-01  4.7345763886300035e-01  4.7238446567138498e-01  4.7124256404319936e-01  4.7003279100041373e-01  4.6875741057553805e-01  4.6742095141440310e-01  4.6602920796563257e-01  4.6458851253248418e-01  4.6310345569156997e-01  4.6157658222763009e-01  4.6000802665369744e-01  4.5839715510304757e-01  4.5674317091051414e-01  4.5504700192530234e-01  4.5331096000537829e-01  4.5153783172048284e-01  4.4972804558041529e-01  4.4787973961086619e-01  4.4598906535664323e-01  4.4405264397465360e-01  4.4206911333505966e-01  4.4004125185563686e-01  4.3797398659529840e-01  4.3587188894774015e-01  4.3373747249541600e-01  4.3157201119873312e-01  4.2937668449633076e-01  4.2715557753321437e-01  4.2491378836524557e-01  4.2265376161315205e-01  4.2037522169288266e-01  4.1807851141783048e-01  4.1576740137511692e-01  4.1345364831259623e-01  4.1115713226638684e-01  4.0889923166532832e-01  4.0670172674508104e-01  4.0458747921848676e-01  4.0257208666323757e-01  4.0066048300377599e-01  3.9884763792078382e-01  3.9711867041745896e-01  3.9544850103144191e-01  3.9381095731998950e-01  3.9218001901462679e-01  3.9052374933230855e-01  3.8880394076935659e-01  3.8699182967150803e-01  3.8507000248395928e-01  3.8303019929494114e-01  3.8087019769839953e-01  3.7859358409100613e-01  3.7621738734617971e-01  3.7377982822310618e-01  3.7133400170930286e-01  3.6894309528424624e-01  3.6665932631749576e-01  3.6451394961018946e-01  3.6251513750372805e-01  3.6064994557388219e-01  3.5889056538788178e-01  3.5720243345300207e-01  3.5555521546375668e-01  3.5392344036713014e-01  3.5228292985107257e-01  3.5061063178092144e-01  3.4888240254288416e-01  3.4707476499063977e-01  3.4516885672899228e-01  3.4315144629882255e-01  3.4101402487093074e-01  3.3875209673386364e-01  3.3636345134019963e-01  3.3384778853883995e-01  3.3120580632082641e-01  3.2843965894456195e-01  3.2555292407257252e-01  3.2255170006495015e-01  3.1944368017190106e-01  3.1623713494413136e-01  3.1294000246587467e-01  3.0956043809039308e-01  3.06107040617