<?xml version="1.0"?>
<VTKFile type="UnstructuredGrid"  version="0.1"  >
<UnstructuredGrid>
<Piece  NumberOfPoints="28121" NumberOfCells="55200">
<Points>
<DataArray  type="Float64"  NumberOfComponents="3"  format="ascii">0 0 0  0.008260869565217391 0 0  0.01652173913043478 0 0  0.02478260869565217 0 0  0.03304347826086956 0 0  0.04130434782608695 0 0  0.04956521739130434 0 0  0.05782608695652174 0 0  0.06608695652173913 0 0  0.07434782608695652 0 0  0.08260869565217391 0 0  0.0908695652173913 0 0  0.09913043478260869 0 0  0.1073913043478261 0 0  0.1156521739130435 0 0  0.1239130434782609 0 0  0.1321739130434783 0 0  0.1404347826086956 0 0  0.148695652173913 0 0  0.1569565217391304 0 0  0.1652173913043478 0 0  0.1734782608695652 0 0  0.1817391304347826 0 0  0.19 0 0  0.1982608695652174 0 0  0.2065217391304348 0 0  0.2147826086956522 0 0  0.2230434782608696 0 0  0.2313043478260869 0 0  0.2395652173913043 0 0  0.2478260869565218 0 0  0.2560869565217391 0 0  0.2643478260869565 0 0  0.2726086956521739 0 0  0.2808695652173913 0 0  0.2891304347826087 0 0  0.2973913043478261 0 0  0.3056521739130434 0 0  0.3139130434782609 0 0  0.3221739130434783 0 0  0.3304347826086956 0 0  0.338695652173913 0 0  0.3469565217391304 0 0  0.3552173913043478 0 0  0.3634782608695652 0 0  0.3717391304347826 0 0  0.3799999999999999 0 0  0.3882608695652174 0 0  0.3965217391304348 0 0  0.4047826086956521 0 0  0.4130434782608696 0 0  0.4213043478260869 0 0  0.4295652173913043 0 0  0.4378260869565217 0 0  0.4460869565217391 0 0  0.4543478260869565 0 0  0.4626086956521739 0 0  0.4708695652173913 0 0  0.4791304347826086 0 0  0.4873913043478261 0 0  0.4956521739130435 0 0  0.5039130434782608 0 0  0.5121739130434783 0 0  0.5204347826086956 0 0  0.528695652173913 0 0  0.5369565217391304 0 0  0.5452173913043478 0 0  0.5534782608695652 0 0  0.5617391304347825 0 0  0.57 0 0  0.5782608695652174 0 0  0.5865217391304348 0 0  0.5947826086956521 0 0  0.6030434782608696 0 0  0.6113043478260869 0 0  0.6195652173913043 0 0  0.6278260869565218 0 0  0.6360869565217391 0 0  0.6443478260869565 0 0  0.6526086956521739 0 0  0.6608695652173913 0 0  0.6691304347826087 0 0  0.677391304347826 0 0  0.6856521739130435 0 0  0.6939130434782609 0 0  0.7021739130434783 0 0  0.7104347826086956 0 0  0.718695652173913 0 0  0.7269565217391304 0 0  0.7352173913043478 0 0  0.7434782608695653 0 0  0.7517391304347827 0 0  0.7599999999999999 0 0  0.7682608695652173 0 0  0.7765217391304348 0 0  0.7847826086956522 0 0  0.7930434782608695 0 0  0.8013043478260868 0 0  0.8095652173913043 0 0  0.8178260869565217 0 0  0.8260869565217391 0 0  0.8343478260869565 0 0  0.8426086956521739 0 0  0.8508695652173912 0 0  0.8591304347826086 0 0  0.8673913043478261 0 0  0.8756521739130434 0 0  0.8839130434782608 0 0  0.8921739130434783 0 0  0.9004347826086956 0 0  0.908695652173913 0 0  0.9169565217391303 0 0  0.9252173913043478 0 0  0.9334782608695652 0 0  0.9417391304347826 0 0  0.95 0 0  0.9582608695652173 0 0  0.9665217391304347 0 0  0.9747826086956521 0 0  0.9830434782608696 0 0  0.991304347826087 0 0  0.9995652173913042 0 0  1.007826086956522 0 0  1.016086956521739 0 0  1.024347826086957 0 0  1.032608695652174 0 0  1.040869565217391 0 0  1.049130434782609 0 0  1.057391304347826 0 0  1.065652173913043 0 0  1.073913043478261 0 0  1.082173913043478 0 0  1.090434782608696 0 0  1.098695652173913 0 0  1.10695652173913 0 0  1.115217391304348 0 0  1.123478260869565 0 0  1.131739130434783 0 0  1.14 0 0  1.148260869565217 0 0  1.156521739130435 0 0  1.164782608695652 0 0  1.17304347826087 0 0  1.181304347826087 0 0  1.189565217391304 0 0  1.197826086956522 0 0  1.206086956521739 0 0  1.214347826086956 0 0  1.222608695652174 0 0  1.230869565217391 0 0  1.239130434782609 0 0  1.247391304347826 0 0  1.255652173913044 0 0  1.263913043478261 0 0  1.272173913043478 0 0  1.280434782608696 0 0  1.288695652173913 0 0  1.296956521739131 0 0  1.305217391304348 0 0  1.313478260869565 0 0  1.321739130434783 0 0  1.33 0 0  1.338260869565217 0 0  1.346521739130435 0 0  1.354782608695652 0 0  1.36304347826087 0 0  1.371304347826087 0 0  1.379565217391304 0 0  1.387826086956522 0 0  1.396086956521739 0 0  1.404347826086957 0 0  1.412608695652174 0 0  1.420869565217391 0 0  1.429130434782609 0 0  1.437391304347826 0 0  1.445652173913043 0 0  1.453913043478261 0 0  1.462173913043478 0 0  1.470434782608696 0 0  1.478695652173913 0 0  1.486956521739131 0 0  1.495217391304348 0 0  1.503478260869565 0 0  1.511739130434782 0 0  1.52 0 0  1.528260869565217 0 0  1.536521739130435 0 0  1.544782608695652 0 0  1.55304347826087 0 0  1.561304347826087 0 0  1.569565217391304 0 0  1.577826086956522 0 0  1.586086956521739 0 0  1.594347826086957 0 0  1.602608695652174 0 0  1.610869565217391 0 0  1.619130434782609 0 0  1.627391304347826 0 0  1.635652173913043 0 0  1.643913043478261 0 0  1.652173913043478 0 0  1.660434782608696 0 0  1.668695652173913 0 0  1.67695652173913 0 0  1.685217391304348 0 0  1.693478260869565 0 0  1.701739130434782 0 0  1.71 0 0  1.718260869565217 0 0  1.726521739130435 0 0  1.734782608695652 0 0  1.743043478260869 0 0  1.751304347826087 0 0  1.759565217391304 0 0  1.767826086956522 0 0  1.776086956521739 0 0  1.784347826086957 0 0  1.792608695652174 0 0  1.800869565217391 0 0  1.809130434782608 0 0  1.817391304347826 0 0  1.825652173913043 0 0  1.833913043478261 0 0  1.842173913043478 0 0  1.850434782608696 0 0  1.858695652173913 0 0  1.86695652173913 0 0  1.875217391304348 0 0  1.883478260869565 0 0  1.891739130434782 0 0  1.9 0 0  1.908260869565217 0 0  1.916521739130435 0 0  1.924782608695652 0 0  1.933043478260869 0 0  1.941304347826087 0 0  1.949565217391304 0 0  1.957826086956522 0 0  1.966086956521739 0 0  1.974347826086956 0 0  1.982608695652174 0 0  1.990869565217391 0 0  1.999130434782608 0 0  2.007391304347826 0 0  2.015652173913043 0 0  2.023913043478261 0 0  2.032173913043478 0 0  2.040434782608695 0 0  2.048695652173913 0 0  2.05695652173913 0 0  2.065217391304348 0 0  2.073478260869565 0 0  2.081739130434782 0 0  2.09 0 0  2.098260869565217 0 0  2.106521739130435 0 0  2.114782608695652 0 0  2.12304347826087 0 0  2.131304347826087 0 0  2.139565217391304 0 0  2.147826086956522 0 0  2.156086956521739 0 0  2.164347826086956 0 0  2.172608695652174 0 0  2.180869565217391 0 0  2.189130434782609 0 0  2.197391304347826 0 0  2.205652173913043 0 0  2.213913043478261 0 0  2.222173913043478 0 0  2.230434782608695 0 0  2.238695652173913 0 0  2.24695652173913 0 0  2.255217391304348 0 0  2.263478260869565 0 0  2.271739130434783 0 0  2.28 0 0  2.288260869565217 0 0  2.296521739130434 0 0  2.304782608695652 0 0  2.31304347826087 0 0  2.321304347826087 0 0  2.329565217391304 0 0  2.337826086956521 0 0  2.346086956521739 0 0  2.354347826086956 0 0  2.362608695652174 0 0  2.370869565217391 0 0  2.379130434782609 0 0  2.387391304347826 0 0  2.395652173913044 0 0  2.403913043478261 0 0  2.412173913043478 0 0  2.420434782608695 0 0  2.428695652173913 0 0  2.43695652173913 0 0  2.445217391304348 0 0  2.453478260869565 0 0  2.461739130434782 0 0  2.47 0 0  2.478260869565217 0 0  2.486521739130435 0 0  2.494782608695652 0 0  2.503043478260869 0 0  2.511304347826087 0 0  2.519565217391305 0 0  2.527826086956522 0 0  2.536086956521739 0 0  2.544347826086956 0 0  2.552608695652174 0 0  2.560869565217391 0 0  2.569130434782608 0 0  2.577391304347826 0 0  2.585652173913043 0 0  2.593913043478261 0 0  2.602173913043478 0 0  2.610434782608696 0 0  2.618695652173913 0 0  2.62695652173913 0 0  2.635217391304348 0 0  2.643478260869565 0 0  2.651739130434783 0 0  2.66 0 0  2.668260869565217 0 0  2.676521739130435 0 0  2.684782608695652 0 0  2.693043478260869 0 0  2.701304347826087 0 0  2.709565217391304 0 0  2.717826086956522 0 0  2.726086956521739 0 0  2.734347826086956 0 0  2.742608695652174 0 0  2.750869565217391 0 0  2.759130434782609 0 0  2.767391304347826 0 0  2.775652173913044 0 0  2.783913043478261 0 0  2.792173913043478 0 0  2.800434782608696 0 0  2.808695652173913 0 0  2.81695652173913 0 0  2.825217391304347 0 0  2.833478260869565 0 0  2.841739130434783 0 0  2.85 0 0  2.858260869565217 0 0  2.866521739130435 0 0  2.874782608695652 0 0  2.88304347826087 0 0  2.891304347826087 0 0  2.899565217391304 0 0  2.907826086956522 0 0  2.916086956521739 0 0  2.924347826086957 0 0  2.932608695652174 0 0  2.940869565217391 0 0  2.949130434782608 0 0  2.957391304347826 0 0  2.965652173913043 0 0  2.973913043478261 0 0  2.982173913043478 0 0  2.990434782608696 0 0  2.998695652173913 0 0  3.006956521739131 0 0  3.015217391304348 0 0  3.023478260869565 0 0  3.031739130434782 0 0  3.04 0 0  3.048260869565218 0 0  3.056521739130435 0 0  3.064782608695652 0 0  3.073043478260869 0 0  3.081304347826087 0 0  3.089565217391304 0 0  3.097826086956522 0 0  3.106086956521739 0 0  3.114347826086956 0 0  3.122608695652174 0 0  3.130869565217391 0 0  3.139130434782609 0 0  3.147391304347826 0 0  3.155652173913043 0 0  3.163913043478261 0 0  3.172173913043478 0 0  3.180434782608696 0 0  3.188695652173913 0 0  3.19695652173913 0 0  3.205217391304347 0 0  3.213478260869565 0 0  3.221739130434782 0 0  3.23 0 0  3.238260869565217 0 0  3.246521739130435 0 0  3.254782608695652 0 0  3.26304347826087 0 0  3.271304347826087 0 0  3.279565217391304 0 0  3.287826086956521 0 0  3.296086956521739 0 0  3.304347826086957 0 0  3.312608695652174 0 0  3.320869565217391 0 0  3.329130434782608 0 0  3.337391304347826 0 0  3.345652173913043 0 0  3.353913043478261 0 0  3.362173913043478 0 0  3.370434782608696 0 0  3.378695652173913 0 0  3.386956521739131 0 0  3.395217391304348 0 0  3.403478260869565 0 0  3.411739130434782 0 0  3.419999999999999 0 0  3.428260869565217 0 0  3.436521739130435 0 0  3.444782608695652 0 0  3.453043478260869 0 0  3.461304347826087 0 0  3.469565217391304 0 0  3.477826086956522 0 0  3.486086956521739 0 0  3.494347826086956 0 0  3.502608695652174 0 0  3.510869565217391 0 0  3.519130434782609 0 0  3.527391304347826 0 0  3.535652173913043 0 0  3.54391304347826
[...]
<PointData  Scalars="rho_bar"> 
<DataArray  type="Float64"  Name="rho_bar"  format="ascii">9.8782119662935308e-01  9.8772415374009137e-01  9.8761361549169391e-01  9.8746399840196952e-01  9.8726718074220021e-01  9.8701954862392161e-01  9.8671898407421388e-01  9.8636356070902098e-01  9.8595162265266656e-01  9.8548145033606627e-01  9.8495147951581796e-01  9.8436018277940907e-01  9.8370636732469541e-01  9.8298914004656213e-01  9.8220828794844295e-01  9.8136430213986547e-01  9.8045881070671703e-01  9.7949454331618335e-01  9.7847586405204390e-01  9.7740865898028817e-01  9.7630085879537354e-01  9.7516226438073383e-01  9.7400496959870242e-01  9.7284293854697312e-01  9.7169229899206455e-01  9.7057059273029733e-01  9.6949685055375590e-01  9.6849046648453430e-01  9.6757100947168129e-01  9.6675690467915354e-01  9.6606502823480556e-01  9.6550944653017723e-01  9.6510132247597791e-01  9.6484790322562219e-01  9.6475268992977392e-01  9.6481460568487321e-01  9.6502856515160995e-01  9.6538525865515357e-01  9.6587220082710734e-01  9.6647402356720535e-01  9.6717403515772415e-01  9.6795471786583676e-01  9.6879923990127059e-01  9.6969171496328466e-01  9.7061832015213612e-01  9.7156718558904287e-01  9.7252889472796911e-01  9.7349600840174089e-01  9.7446329991889646e-01  9.7542713603742437e-01  9.7638563484022134e-01  9.7733799796069687e-01  9.7828463693694290e-01  9.7922654616198179e-01  9.8016531655110928e-01  9.8110248391805799e-01  9.8203954324946041e-01  9.8297731868823868e-01  9.8391600994726003e-01  9.8485468351693162e-01  9.8579140065456639e-01  9.8672293327822491e-01  9.8764499421422625e-01  9.8855214300134331e-01  9.8943820508053859e-01  9.9029639913052347e-01  9.9111991894244655e-01  9.9190215844999974e-01  9.9263724616489102e-01  9.9332022886670401e-01  9.9394741991628799e-01  9.9451640638171124e-01  9.9502615128187988e-01  9.9547676374578842e-01  9.9586937619073135e-01  9.9620578638311630e-01  9.9648823083404725e-01  9.9671900981252048e-01  9.9690024109072350e-01  9.9703352089199448e-01  9.9711971479660177e-01  9.9715863500827906e-01  9.9714882175999697e-01  9.9708716980299195e-01  9.9696861288450456e-01  9.9678561255497022e-01  9.9652763922166421e-01  9.9618040431673149e-01  9.9572508141071081e-01  9.9513728023028447e-01  9.9438614511792622e-01  9.9343347747852528e-01  9.9223366592129225e-01  9.9073458734528053e-01  9.8888042316543578e-01  9.8661640389546013e-01  9.8389645068633547e-01  9.8069257628447226e-01  9.7700511187766548e-01  9.7287010412600949e-01  9.6836309990274705e-01  9.6359770024653146e-01  9.5871808402136816e-01  9.5388405697540157e-01  9.4925405161422727e-01  9.4496747380715174e-01  9.4113247982509995e-01  9.3781892910760334e-01  9.3505958150198987e-01  9.3285371002268869e-01  9.3117444351688983e-01  9.2997516704524519e-01  9.2919719344521412e-01  9.2877539755652994e-01  9.2864470509379304e-01  9.2874286293186670e-01  9.2901368069187906e-01  9.2940720009957656e-01  9.2988111562467768e-01  9.3039985910234568e-01  9.3093535249662906e-01  9.3146550569610265e-01  9.3197457031751640e-01  9.3245129615704347e-01  9.3288914842490411e-01  9.3328458571121675e-01  9.3363720367622605e-01  9.3394817321101742e-01  9.3422062577368803e-01  9.3445822024925218e-01  9.3466585196467011e-01  9.3484839867732594e-01  9.3501155068781927e-01  9.3516071569334813e-01  9.3530180730891654e-01  9.3544018844942267e-01  9.3558150779150784e-01  9.3573056653984354e-01  9.3589222157610463e-01  9.3607017693935091e-01  9.3626769023568801e-01  9.3648634812701215e-01  9.3672668379244750e-01  9.3698725217477530e-01  9.3726575313240501e-01  9.3755836695239103e-01  9.3786124464829512e-01  9.3816974908054096e-01  9.3847967624106454e-01  9.3878638624861832e-01  9.3908565169243241e-01  9.3937267041824812e-01  9.3964303636123081e-01  9.3989185208260662e-01  9.4011494772013604e-01  9.4030807699802910e-01  9.4046826295061792e-01  9.4059328527456776e-01  9.4068283864406821e-01  9.4073799484311682e-01  9.4076243458088493e-01  9.4076188584140974e-01  9.4074532804925215e-01  9.4072435818196676e-01  9.4071459894195886e-01  9.4073547451005579e-01  9.4081150496002985e-01  9.4097204245284038e-01  9.4125246001400409e-01  9.4169329200327279e-01  9.4234048263278813e-01  9.4324316156932431e-01  9.4445215128369975e-01  9.4601603794589018e-01  9.4797763566692450e-01  9.5036618940306627e-01  9.5318820327130049e-01  9.5641641695412838e-01  9.5998516275469681e-01  9.6379152506445176e-01  9.6770601113537535e-01  9.7158817740934056e-01  9.7530460985541623e-01  9.7874489901002426e-01  9.8183422764700112e-01  9.8453652373240308e-01  9.8684896238325392e-01  9.8879223505543112e-01  9.9040129342580130e-01  9.9171716253729525e-01  9.9278149011972583e-01  9.9363293886079251e-01  9.9430548491290482e-01  9.9482760751510213e-01  9.9522243420525147e-01  9.9550801718251103e-01  9.9569795581255649e-01  9.9580185219632289e-01  9.9582586188256794e-01  9.9577302263311884e-01  9.9564365080419459e-01  9.9543552726852325e-01  9.9514418675410410e-01  9.9476302897107449e-01  9.9428360844794816e-01  9.9369580274956981e-01  9.9298820036749047e-01  9.9214838147734663e-01  9.9116350627638827e-01  9.9002076117861437e-01  9.8870813509048761e-01  9.8721492727051985e-01  9.8553264654404960e-01  9.8365552790536337e-01  9.8158132226746464e-01  9.7931151061569588e-01  9.7685181570175161e-01  9.7421189944952713e-01  9.7140546760756463e-01  9.6844939596127122e-01  9.6536369141552425e-01  9.6217058623153051e-01  9.5889465112387173e-01  9.5556207958493522e-01  9.5220133946946350e-01  9.4884283594259833e-01  9.4552000396387459e-01  9.4226895032807267e-01  9.3912964155299750e-01  9.3614527129430092e-01  9.3336272721279978e-01  9.3083090824150982e-01  9.2860013063940616e-01  9.2671908324261254e-01  9.2523338443492742e-01  9.2418207196472701e-01  9.2359656926681621e-01  9.2349805003784413e-01  9.2389745133942081e-01  9.2479403094254475e-01  9.2617650877439661e-01  9.2802240591061358e-01  9.3029984362633666e-01  9.3296746520680196e-01  9.3597657073422302e-01  9.3927157557764307e-01  9.4279253794736917e-01  9.4647634102184952e-01  9.5025962517117024e-01  9.5407996917579707e-01  9.5787858052667429e-01  9.6160103888133541e-01  9.6519918285358797e-01  9.6863142276573888e-01  9.7186402704627484e-01  9.7487100760914780e-01  9.7763461451957345e-01  9.8014452577042588e-01  9.8239768005928307e-01  9.8439700592687385e-01  9.8615065738029883e-01  9.8767051825385521e-01  9.8897113518200586e-01  9.9006822741568534e-01  9.9097768788853913e-01  9.9171432722657660e-01  9.9229111830706207e-01  9.9271822368534612e-01  9.9300237847445039e-01  9.9314601065198416e-01  9.9314646326271583e-01  9.9299479194472540e-01  9.9267445202834947e-01  9.9215931477575547e-01  9.9141138276056906e-01  9.9037766033438435e-01  9.8898691487243617e-01  9.8714625264491285e-01  9.8473915279118795e-01  9.8162599657586491e-01  9.7765071298209438e-01  9.7265545910564488e-01  9.6650551326382228e-01  9.5911993826882003e-01  9.5050327647957944e-01  9.4076664624260420e-01  9.3013226087578238e-01  9.1891620918477568e-01  9.0749548876771657e-01  8.9626400256385730e-01  8.8559069422083347e-01  8.7578300600438785e-01  8.6706628087644255e-01  8.5957431791707817e-01  8.5335670858406609e-01  8.4839256202545765e-01  8.4460956534788800e-01  8.4190008726232024e-01  8.4013784144118053e-01  8.3918712043052279e-01  8.3891295739948368e-01  8.3918445042581913e-01  8.3987968853810913e-01  8.4088595408656952e-01  8.4210310676289879e-01  8.4344260146562366e-01  8.4482970672373514e-01  8.4620103406171809e-01  8.4750560417429832e-01  8.4870154026387168e-01  8.4975626338454968e-01  8.5064312162701639e-01  8.5134222521185920e-01  8.5183781906963740e-01  8.5211990210597455e-01  8.5218214686947813e-01  8.5202402445827852e-01  8.5164909326908322e-01  8.5106674000460436e-01  8.5029045133439451e-01  8.4934002725061275e-01  8.4824055299008716e-01  8.4702582830083328e-01  8.4573841117068638e-01  8.4443397679216958e-01  8.4318208515668636e-01  8.4207050034509290e-01  8.4120517884316481e-01  8.4071290689181044e-01  8.4073793143619080e-01  8.4143943031378521e-01  8.4298070227568167e-01  8.4551708879269472e-01  8.4917756356789076e-01  8.5405055245175776e-01  8.6016384812773250e-01  8.6746889155253293e-01  8.7583194216216165e-01  8.8504171848592095e-01  8.9482553242071239e-01  9.0487876381634469e-01  9.1489732568644178e-01  9.2461221373622993e-01  9.3380510473952083e-01  9.4229595122619902e-01  9.4993588784829475e-01  9.5662767069906884e-01  9.6233575204636923e-01  9.6708401164989077e-01  9.7093661650666596e-01  9.7397925219213122e-01  9.7630301316054280e-01  9.7799201371559097e-01  9.7911600456492742e-01  9.7972766530406430e-01  9.7986035296101148e-01  9.7952795217254052e-01  9.7872512226325792e-01  9.7742889031941071e-01  9.7560016823537909e-01  9.7318567898316555e-01  9.7012094588451370e-01  9.6633673087589766e-01  9.6176833930951655e-01  9.5636946433428061e-01  9.5012729020185471e-01  9.4307976897740542e-01  9.3532792440709633e-01  9.2703635848526078e-01  9.1841495370231652e-01  9.0967924318739934e-01  9.0099681499849538e-01  8.9242233339241439e-01  8.8383351828407375e-01  8.7489798882795811e-01  8.6505701583104277e-01  8.5350949980514845e-01  8.3917177468287807e-01  8.2063197573081881e-01  7.9610915177872577e-01  7.6343780558324492e-01  7.2019891503965561e-01  6.6421724855800668e-01  5.9463612674812727e-01  5.1335469826656499e-01  4.2563868767707874e-01  3.3893493450083645e-01  2.6036047853673266e-01  1.9446096529377929e-01  1.4254662190002579e-01  1.0348680156823371e-01  7.4978889884083438e-02  5.4533760524444599e-02  3.9982573592794377e-02  2.9630878619050116e-02  2.2232890218859991e-02  1.6903593907587014e-02  1.3025579057809883e-02  1.0171404620341355e-02  8.0453823745394119e-03  6.4422533904778716e-03  5.2186101784200706e-03  4.2734294848697750e-03  3.5348678996663168e-03  2.9513315325124133e-03  2.4853859843995689e-03  2.1095874982589259e-03  1.8036076850665318e-03  1.5522394385370281e-03  1.3439940914267753e-03  1.1701106167125422e-03  1.0238430229393873e-03  8.9995422988991603e-04  7.9434278011774554e-04  7.0377067278356155e-04  6.2566081996971972e-04  5.5794746199647682e-04  4.9896278474103131e-04  4.4735122305805436e-04  4.0200272495600998e-04  3.6200356733884508e-04  3.2659713758405014e-04  2.9515296077284629e-04  2.6714306897500400e-04  2.4212269785162148e-04  2.1971605860234144e-04  1.9960353307265315e-04  1.8151201710869512e-04  1.6520721649480370e-04  1.5048763401251822e-04  1.3717888839616464e-04  1.2512959391545704e-04  1.1420768914324201e-04  1.0429807290212344e-04  9.5299635256394509e-05  8.7123313128140874e-05  7.9690444595126195e-05  7.2931510347376172e-05  6.6784748835309316e-05  6.1195157832570987e-05  5.6113618094849482e-05  5.1496362889414261e-05  4.7304141867157432e-05  4.3501788156324346e-05  4.0057718046729727e-05  3.6943598922717480e-05  3.4133987259087341e-05  3.1606071691992636e-05  2.9339406016502498e-05  2.7315718154622821e-05  2.5518719718839795e-05  2.3934010432963251e-05  2.2548900279643242e-05  2.1352304756617154e-05  2.0334683059301824e-05  1.9487984214154412e-05  1.8805635796908398e-05  1.8282576282348503e-05  1.7915592018734695e-05  1.7704660500511170e-05  1.7657995802892013e-05  9.8734371238620355e-01  9.8729521046914603e-01  9.8719322498105688e-01  9.8704099892372554e-01  9.8683680537952312e-01  9.8657877755914936e-01  9.8626497235819388e-01  9.8589369576092944e-01  9.8546310569821949e-01  9.8497149319504340e-01  9.8441708127451011e-01  9.8379829909887684e-01  9.8311372395902341e-01  9.8236242781906669e-01  9.8154399902422518e-01  9.8065897398428459e-01  9.7970884084741505e-01  9.7869654109435367e-01  9.7762641434094510e-01  9.7650475769563938e-01  9.7533969464040415e-01  9.7414166974204819e-01  9.7292319405872951e-01  9.7169920552972433e-01  9.7048648438953822e-01  9.6930384113650081e-01  9.6817114366985757e-01  9.6710923921581649e-01  9.6613866749644239e-01  9.6527925626440836e-01  9.6454868439999031e-01  9.6396216290297831e-01  9.6353129003307081e-01  9.6326410194118395e-01  9.6316407243806412e-01  9.6323042946669724e-01  9.6345755114671361e-01  9.6383577161530132e-01  9.6435147041398639e-01  9.6498848825783201e-01  9.6572866928647660e-01  9.6655355728916748e-01  9.6744487515319399e-01  9.6838596830318302e-01  9.6936193644830315e-01  9.7036044500793750e-01  9.7137138450886096e-01  9.7238717654728479e-01  9.7340216908579047e-01  9.7441281027284665e-01  9.7541696682987578e-01  9.7641407177611628e-01  9.7740446186284080e-01  9.7838943467135175e-01  9.7937059458023512e-01  9.8034983671360554e-01  9.8132867364853971e-01  9.8230824146840046e-01  9.8328869081508075e-01  9.8426925989678393e-01  9.8524785885718424e-01  9.8622124215776530e-01  9.8718482013531073e-01  9.8813298197522936e-01  9.8905911899296994e-01  9.8995618042134903e-01  9.9081688913533394e-01  9.9163434850713561e-01  9.9240228842169087e-01  9.9311553929161489e-01  9.9377016239604232e-01  9.9436369175845640e-01  9.9489502529970553e-01  9.9536439339767835e-01  9.9577302640268384e-01  9.9612294974557491e-01  9.9641658490839513e-01  9.9665648136052798e-01  9.9684493900789284e-01  9.9698376566418312e-01  9.9707394193815335e-01  9.9711540336724203e-01  9.9710669245479977e-01  9.9704469025431008e-01  9.9692417059139238e-01  9.9673737016991149e-01  9.9647333030554730e-01  9.9611720060917486e-01  9.9564926923899899e-01  9.9504399882352645e-01  9.9426886486394750e-01  9.9328355176084360e-01  9.9203959546902554e-01  9.9048143852558390e-01  9.8854915597449255e-01  9.8618372093095819e-01  9.8333481222594676e-01  9.7997136315257838e-01  9.7609223219930497e-01  9.7173516324481257e-01  9.6698022731868460e-01  9.6194877184528360e-01  9.5679466105192301e-01  9.5168920380656152e-01  9.4680160452580409e-01  9.4228122968595840e-01  9.3824288687700674e-01  9.3476089944420260e-01  9.3186861679346422e-01  9.2956421659643729e-01  9.2781707623777199e-01  9.2657682225288474e-01  9.2577981982601010e-01  9.2535697853585774e-01  9.2523852102208493e-01  9.2535909621528334e-01  9.2565891086602459e-01  9.2608581303783621e-01  9.2659478255404160e-01  9.2714898339403262e-01  9.2771847854546630e-01  9.2828073912287390e-01  9.2881886264695035e-01  9.2932179981745411e-01  9.2978246157013822e-01  9.3019781724919892e-01  9.3056720522486469e-01  9.3089254566676005e-01  9.3117677906750262e-01  9.3142439581142866e-01  9.3164008069114390e-01  9.3182954517354788e-01  9.3199834336774801e-01  9.3215267289690174e-01  9.3229832478637675e-01  9.3244147863573856e-01  9.3258759127721313e-01  9.3274229787574536e-01  9.3291024235908726e-01  9.3309593213591935e-01  9.3330246646657333e-01  9.3353206479610717e-01  9.3378487612956484e-01  9.3405979674848472e-01  9.3435373716774461e-01  9.3466308628510286e-01  9.3498309978359539e-01  9.3530936162181488e-01  9.3563696710548072e-01  9.3596151178183784e-01  9.3627810947260970e-01  9.3658221352828963e-01  9.3686864459855357e-01  9.3713271165977441e-01  9.3736935699134361e-01  9.3757450873773573e-01  9.3774445287255115e-01  9.3787712910283150e-01  9.3797163364822944e-01  9.3802943911196501e-01  9.3805386400452417e-01  9.3805132680349557e-01  9.3803065623414705e-01  9.3800441216276609e-01  9.3798846827879812e-01  9.3800344152378545e-01  9.3807452953288906e-01  9.3823290279314575e-01  9.3851531358887785e-01  9.3896495213418352e-01  9.3962994650161835e-01  9.4056288839078717e-01  9.4181760305882634e-01  9.4344656530200333e-01  9.4549562409007926e-01  9.4799725713292116e-01  9.5095916544699322e-01  9.5435399798256693e-01  9.5811257492974677e-01  9.6212623243551243e-01  9.6625677792680242e-01  9.7035432839711655e-01  9.7427582168582227e-01  9.7790311803115582e-01  9.8115582530797307e-01  9.8399593812970365e-01  9.8642110552511131e-01  9.8845449688209641e-01  9.9013416678519073e-01  9.9150460853464883e-01  9.9261054341986943e-01  9.9349341742067865e-01  9.9418936329866892e-01  9.9472866411036853e-01  9.9513571709956583e-01  9.9542959574231749e-01  9.9562454508100862e-01  9.9573064812203871e-01  9.9575427474885747e-01  9.9569857992537314e-01  9.9556377675334395e-01  9.9534748129877082e-01  9.9504485692453781e-01  9.9464889606663687e-01  9.9415055347920767e-01  9.9353908143762082e-01  9.9280226409019667e-01  9.9192691487031104e-01  9.9089926851125321e-01  9.8970570928143276e-01  9.8833329071221943e-01  9.8677063239454221e-01  9.8500850143362273e-01  9.8304074412524578e-01  9.8086473490547510e-01  9.7848209868062830e-01  9.7589870392778733e-01  9.7312497331318726e-01  9.7017520775962562e-01  9.6706752356543335e-01  9.6382283660178969e-01  9.6046481907569825e-01  9.5701902413485207e-01  9.5351323422878875e-01  9.4997693538102346e-01  9.4644228842130707e-01  9.4294384769141204e-01  9.3951985213451517e-01  9.3621184316532191e-01  9.3306562994379338e-01  9.3013023253650751e-01  9.2745787175990257e-01  9.2510146904145241e-01  9.2311331456198886e-01  9.2154134621223638e-01  9.2042761462398215e-01  9.1980493459006230e-01  9.1969623415385549e-01  9.2011251923206727e-01  9.2105355164156355e-01  9.2250688968911521e-01  9.2444944698609932e-01  9.2684715220434943e-01  9.2965704867449295e-01  9.3282745837395409e-01  9.3630024889514429e-01  9.4001173306122376e-01  9.4389561356318641e-01  9.4788441337691220e-01  9.5191253978963952e-01  9.5591738819189376e-01  9.5984173177544196e-01  9.6363426161690280e-01  9.6725120553803590e-01  9.7065657791637194e-01  9.7382312992784803e-01  9.7673186683220814e-01  9.7937217825673817e-01  9.8174074129777655e-01  9.8384098628940919e-01  9.8568161684958655e-01  9.8727557363575125e-01  9.8863842534934576e-01  9.8978720303759682e-01  9.9073892511696393e-01  9.9150964629925042e-01  9.9211329733255904e-01  9.9256098638600232e-01  9.9286007895226014e-01  9.9301351358104539e-01  9.9301878657434384e-01  9.9286690791892429e-01  9.9254079287845853e-01  9.9201339991079474e-01  9.9124502569600170e-01  9.9018023635528496e-01  9.8874402615608303e-01  9.8683831623817364e-01  9.8433930201421960e-01  9.8109819298103040e-01  9.7694751571208960e-01  9.7171744179527808e-01  9.6526221889852426e-01  9.5749454241965593e-01  9.4841885206784837e-01  9.3815472668327216e-01  9.2693990058902120e-01  9.1511251313094000e-01  9.0307349593395014e-01  8.9124168202805210e-01  8.8000693934304997e-01  8.6969468458927901e-01  8.6054125246925894e-01  8.5268709289419220e-01  8.4618095904954915e-01  8.4099838872655275e-01  8.3705913257499498e-01  8.3424810329351073e-01  8.3242949082825790e-01  8.3146079025901110e-01  8.3119899826045651e-01  8.3150764764281704e-01  8.3225796293906462e-01  8.3333271471828341e-01  8.3462586649724835e-01  8.3604556737898361e-01  8.3751247566485354e-01  8.3896143474200757e-01  8.4033842975915130e-01  8.4160090417932854e-01  8.4271411073132829e-01  8.4365137703036475e-01  8.4439099554319108e-01  8.4491747188371946e-01  8.4521918692111375e-01  8.4529047325013107e-01  8.4512986803370549e-01  8.4474210783162884e-01  8.4413631313617410e-01  8.4332772681499879e-01  8.4233615603584189e-01  8.4118876392315611e-01  8.3991965513575551e-01  8.3857402814693960e-01  8.3720878787662856e-01  8.3589722238336706e-01  8.3472987025313428e-01  8.3381840838628696e-01  8.3329456764654841e-01  8.3331099741424119e-01  8.3403463163979163e-01  8.3563965263020146e-01  8.3829067349465636e-01  8.4212554212915569e-01  8.4723702068187567e-01  8.5365684505634520e-01  8.6133531216015946e-01  8.7013476406601831e-01  8.7983302788451001e-01  8.9014384065783225e-01  9.0074380275278354e-01  9.1130901056767377e-01  9.2154793186716999e-01  9.3122427929615059e-01  9.4014961382549367e-01  9.4817117781754978e-01  9.5518792683319842e-01  9.6116416257294379e-01  9.6612656337869396e-01  9.7014555568059957e-01  9.7331379019926001e-01  9.7572935006435624e-01  9.7748194241016650e-01  9.7864597667545072e-01  9.7927737000958559e-01  9.7941186786153156e-01  9.7906424051817309e-01  9.7822927293300987e-01  9.7688283571087509e-01  9.7498408928725222e-01  9.7247728761472574e-01  9.6929570407343357e-01  9.6536756714954242e-01  9.6062708874462499e-01  9.5502873358257478e-01  9.4856415991690102e-01  9.4127916929433386e-01  9.3328767625884568e-01  9.24770322711