<?xml version="1.0"?>
<VTKFile type="UnstructuredGrid"  version="0.1"  >
<UnstructuredGrid>
<Piece  NumberOfPoints="28121" NumberOfCells="55200">
<Points>
<DataArray  type="Float64"  NumberOfComponents="3"  format="ascii">0 0 0  0.008260869565217391 0 0  0.01652173913043478 0 0  0.02478260869565217 0 0  0.03304347826086956 0 0  0.04130434782608695 0 0  0.04956521739130434 0 0  0.05782608695652174 0 0  0.06608695652173913 0 0  0.07434782608695652 0 0  0.08260869565217391 0 0  0.0908695652173913 0 0  0.09913043478260869 0 0  0.1073913043478261 0 0  0.1156521739130435 0 0  0.1239130434782609 0 0  0.1321739130434783 0 0  0.1404347826086956 0 0  0.148695652173913 0 0  0.1569565217391304 0 0  0.1652173913043478 0 0  0.1734782608695652 0 0  0.1817391304347826 0 0  0.19 0 0  0.1982608695652174 0 0  0.2065217391304348 0 0  0.2147826086956522 0 0  0.2230434782608696 0 0  0.2313043478260869 0 0  0.2395652173913043 0 0  0.2478260869565218 0 0  0.2560869565217391 0 0  0.2643478260869565 0 0  0.2726086956521739 0 0  0.2808695652173913 0 0  0.2891304347826087 0 0  0.2973913043478261 0 0  0.3056521739130434 0 0  0.3139130434782609 0 0  0.3221739130434783 0 0  0.3304347826086956 0 0  0.338695652173913 0 0  0.3469565217391304 0 0  0.3552173913043478 0 0  0.3634782608695652 0 0  0.3717391304347826 0 0  0.3799999999999999 0 0  0.3882608695652174 0 0  0.3965217391304348 0 0  0.4047826086956521 0 0  0.4130434782608696 0 0  0.4213043478260869 0 0  0.4295652173913043 0 0  0.4378260869565217 0 0  0.4460869565217391 0 0  0.4543478260869565 0 0  0.4626086956521739 0 0  0.4708695652173913 0 0  0.4791304347826086 0 0  0.4873913043478261 0 0  0.4956521739130435 0 0  0.5039130434782608 0 0  0.5121739130434783 0 0  0.5204347826086956 0 0  0.528695652173913 0 0  0.5369565217391304 0 0  0.5452173913043478 0 0  0.5534782608695652 0 0  0.5617391304347825 0 0  0.57 0 0  0.5782608695652174 0 0  0.5865217391304348 0 0  0.5947826086956521 0 0  0.6030434782608696 0 0  0.6113043478260869 0 0  0.6195652173913043 0 0  0.6278260869565218 0 0  0.6360869565217391 0 0  0.6443478260869565 0 0  0.6526086956521739 0 0  0.6608695652173913 0 0  0.6691304347826087 0 0  0.677391304347826 0 0  0.6856521739130435 0 0  0.6939130434782609 0 0  0.7021739130434783 0 0  0.7104347826086956 0 0  0.718695652173913 0 0  0.7269565217391304 0 0  0.7352173913043478 0 0  0.7434782608695653 0 0  0.7517391304347827 0 0  0.7599999999999999 0 0  0.7682608695652173 0 0  0.7765217391304348 0 0  0.7847826086956522 0 0  0.7930434782608695 0 0  0.8013043478260868 0 0  0.8095652173913043 0 0  0.8178260869565217 0 0  0.8260869565217391 0 0  0.8343478260869565 0 0  0.8426086956521739 0 0  0.8508695652173912 0 0  0.8591304347826086 0 0  0.8673913043478261 0 0  0.8756521739130434 0 0  0.8839130434782608 0 0  0.8921739130434783 0 0  0.9004347826086956 0 0  0.908695652173913 0 0  0.9169565217391303 0 0  0.9252173913043478 0 0  0.9334782608695652 0 0  0.9417391304347826 0 0  0.95 0 0  0.9582608695652173 0 0  0.9665217391304347 0 0  0.9747826086956521 0 0  0.9830434782608696 0 0  0.991304347826087 0 0  0.9995652173913042 0 0  1.007826086956522 0 0  1.016086956521739 0 0  1.024347826086957 0 0  1.032608695652174 0 0  1.040869565217391 0 0  1.049130434782609 0 0  1.057391304347826 0 0  1.065652173913043 0 0  1.073913043478261 0 0  1.082173913043478 0 0  1.090434782608696 0 0  1.098695652173913 0 0  1.10695652173913 0 0  1.115217391304348 0 0  1.123478260869565 0 0  1.131739130434783 0 0  1.14 0 0  1.148260869565217 0 0  1.156521739130435 0 0  1.164782608695652 0 0  1.17304347826087 0 0  1.181304347826087 0 0  1.189565217391304 0 0  1.197826086956522 0 0  1.206086956521739 0 0  1.214347826086956 0 0  1.222608695652174 0 0  1.230869565217391 0 0  1.239130434782609 0 0  1.247391304347826 0 0  1.255652173913044 0 0  1.263913043478261 0 0  1.272173913043478 0 0  1.280434782608696 0 0  1.288695652173913 0 0  1.296956521739131 0 0  1.305217391304348 0 0  1.313478260869565 0 0  1.321739130434783 0 0  1.33 0 0  1.338260869565217 0 0  1.346521739130435 0 0  1.354782608695652 0 0  1.36304347826087 0 0  1.371304347826087 0 0  1.379565217391304 0 0  1.387826086956522 0 0  1.396086956521739 0 0  1.404347826086957 0 0  1.412608695652174 0 0  1.420869565217391 0 0  1.429130434782609 0 0  1.437391304347826 0 0  1.445652173913043 0 0  1.453913043478261 0 0  1.462173913043478 0 0  1.470434782608696 0 0  1.478695652173913 0 0  1.486956521739131 0 0  1.495217391304348 0 0  1.503478260869565 0 0  1.511739130434782 0 0  1.52 0 0  1.528260869565217 0 0  1.536521739130435 0 0  1.544782608695652 0 0  1.55304347826087 0 0  1.561304347826087 0 0  1.569565217391304 0 0  1.577826086956522 0 0  1.586086956521739 0 0  1.594347826086957 0 0  1.602608695652174 0 0  1.610869565217391 0 0  1.619130434782609 0 0  1.627391304347826 0 0  1.635652173913043 0 0  1.643913043478261 0 0  1.652173913043478 0 0  1.660434782608696 0 0  1.668695652173913 0 0  1.67695652173913 0 0  1.685217391304348 0 0  1.693478260869565 0 0  1.701739130434782 0 0  1.71 0 0  1.718260869565217 0 0  1.726521739130435 0 0  1.734782608695652 0 0  1.743043478260869 0 0  1.751304347826087 0 0  1.759565217391304 0 0  1.767826086956522 0 0  1.776086956521739 0 0  1.784347826086957 0 0  1.792608695652174 0 0  1.800869565217391 0 0  1.809130434782608 0 0  1.817391304347826 0 0  1.825652173913043 0 0  1.833913043478261 0 0  1.842173913043478 0 0  1.850434782608696 0 0  1.858695652173913 0 0  1.86695652173913 0 0  1.875217391304348 0 0  1.883478260869565 0 0  1.891739130434782 0 0  1.9 0 0  1.908260869565217 0 0  1.916521739130435 0 0  1.924782608695652 0 0  1.933043478260869 0 0  1.941304347826087 0 0  1.949565217391304 0 0  1.957826086956522 0 0  1.966086956521739 0 0  1.974347826086956 0 0  1.982608695652174 0 0  1.990869565217391 0 0  1.999130434782608 0 0  2.007391304347826 0 0  2.015652173913043 0 0  2.023913043478261 0 0  2.032173913043478 0 0  2.040434782608695 0 0  2.048695652173913 0 0  2.05695652173913 0 0  2.065217391304348 0 0  2.073478260869565 0 0  2.081739130434782 0 0  2.09 0 0  2.098260869565217 0 0  2.106521739130435 0 0  2.114782608695652 0 0  2.12304347826087 0 0  2.131304347826087 0 0  2.139565217391304 0 0  2.147826086956522 0 0  2.156086956521739 0 0  2.164347826086956 0 0  2.172608695652174 0 0  2.180869565217391 0 0  2.189130434782609 0 0  2.197391304347826 0 0  2.205652173913043 0 0  2.213913043478261 0 0  2.222173913043478 0 0  2.230434782608695 0 0  2.238695652173913 0 0  2.24695652173913 0 0  2.255217391304348 0 0  2.263478260869565 0 0  2.271739130434783 0 0  2.28 0 0  2.288260869565217 0 0  2.296521739130434 0 0  2.304782608695652 0 0  2.31304347826087 0 0  2.321304347826087 0 0  2.329565217391304 0 0  2.337826086956521 0 0  2.346086956521739 0 0  2.354347826086956 0 0  2.362608695652174 0 0  2.370869565217391 0 0  2.379130434782609 0 0  2.387391304347826 0 0  2.395652173913044 0 0  2.403913043478261 0 0  2.412173913043478 0 0  2.420434782608695 0 0  2.428695652173913 0 0  2.43695652173913 0 0  2.445217391304348 0 0  2.453478260869565 0 0  2.461739130434782 0 0  2.47 0 0  2.478260869565217 0 0  2.486521739130435 0 0  2.494782608695652 0 0  2.503043478260869 0 0  2.511304347826087 0 0  2.519565217391305 0 0  2.527826086956522 0 0  2.536086956521739 0 0  2.544347826086956 0 0  2.552608695652174 0 0  2.560869565217391 0 0  2.569130434782608 0 0  2.577391304347826 0 0  2.585652173913043 0 0  2.593913043478261 0 0  2.602173913043478 0 0  2.610434782608696 0 0  2.618695652173913 0 0  2.62695652173913 0 0  2.635217391304348 0 0  2.643478260869565 0 0  2.651739130434783 0 0  2.66 0 0  2.668260869565217 0 0  2.676521739130435 0 0  2.684782608695652 0 0  2.693043478260869 0 0  2.701304347826087 0 0  2.709565217391304 0 0  2.717826086956522 0 0  2.726086956521739 0 0  2.734347826086956 0 0  2.742608695652174 0 0  2.750869565217391 0 0  2.759130434782609 0 0  2.767391304347826 0 0  2.775652173913044 0 0  2.783913043478261 0 0  2.792173913043478 0 0  2.800434782608696 0 0  2.808695652173913 0 0  2.81695652173913 0 0  2.825217391304347 0 0  2.833478260869565 0 0  2.841739130434783 0 0  2.85 0 0  2.858260869565217 0 0  2.866521739130435 0 0  2.874782608695652 0 0  2.88304347826087 0 0  2.891304347826087 0 0  2.899565217391304 0 0  2.907826086956522 0 0  2.916086956521739 0 0  2.924347826086957 0 0  2.932608695652174 0 0  2.940869565217391 0 0  2.949130434782608 0 0  2.957391304347826 0 0  2.965652173913043 0 0  2.973913043478261 0 0  2.982173913043478 0 0  2.990434782608696 0 0  2.998695652173913 0 0  3.006956521739131 0 0  3.015217391304348 0 0  3.023478260869565 0 0  3.031739130434782 0 0  3.04 0 0  3.048260869565218 0 0  3.056521739130435 0 0  3.064782608695652 0 0  3.073043478260869 0 0  3.081304347826087 0 0  3.089565217391304 0 0  3.097826086956522 0 0  3.106086956521739 0 0  3.114347826086956 0 0  3.122608695652174 0 0  3.130869565217391 0 0  3.139130434782609 0 0  3.147391304347826 0 0  3.155652173913043 0 0  3.163913043478261 0 0  3.172173913043478 0 0  3.180434782608696 0 0  3.188695652173913 0 0  3.19695652173913 0 0  3.205217391304347 0 0  3.213478260869565 0 0  3.221739130434782 0 0  3.23 0 0  3.238260869565217 0 0  3.246521739130435 0 0  3.254782608695652 0 0  3.26304347826087 0 0  3.271304347826087 0 0  3.279565217391304 0 0  3.287826086956521 0 0  3.296086956521739 0 0  3.304347826086957 0 0  3.312608695652174 0 0  3.320869565217391 0 0  3.329130434782608 0 0  3.337391304347826 0 0  3.345652173913043 0 0  3.353913043478261 0 0  3.362173913043478 0 0  3.370434782608696 0 0  3.378695652173913 0 0  3.386956521739131 0 0  3.395217391304348 0 0  3.403478260869565 0 0  3.411739130434782 0 0  3.419999999999999 0 0  3.428260869565217 0 0  3.436521739130435 0 0  3.444782608695652 0 0  3.453043478260869 0 0  3.461304347826087 0 0  3.469565217391304 0 0  3.477826086956522 0 0  3.486086956521739 0 0  3.494347826086956 0 0  3.502608695652174 0 0  3.510869565217391 0 0  3.519130434782609 0 0  3.527391304347826 0 0  3.535652173913043 0 0  3.54391304347826
[...]
<PointData  Scalars="rho_bar"> 
<DataArray  type="Float64"  Name="rho_bar"  format="ascii">9.9999930240223867e-01  9.9999982671805365e-01  1.0000000142632823e+00  1.0000005074423626e+00  1.0000010445566221e+00  1.0000016643830940e+00  1.0000022519146288e+00  1.0000026682729537e+00  1.0000027177282460e+00  1.0000021970080075e+00  1.0000009605859566e+00  9.9999899729713604e-01  9.9999647466061281e-01  9.9999373032232031e-01  9.9999121937926871e-01  9.9998942906804211e-01  9.9998876454896313e-01  9.9998943052029599e-01  9.9999135989581212e-01  9.9999422649164682e-01  9.9999753265577851e-01  1.0000007318907489e+00  1.0000033495841165e+00  1.0000050658269999e+00  1.0000057320499900e+00  1.0000053362880241e+00  1.0000039665696374e+00  1.0000017944547464e+00  9.9999906736862842e-01  9.9999609588823801e-01  9.9999323391229222e-01  9.9999084035287489e-01  9.9998921350943126e-01  9.9998851921667609e-01  9.9998875724319880e-01  9.9998978213406575e-01  9.9999135937479311e-01  9.9999322631572796e-01  9.9999514148196633e-01  9.9999691763157539e-01  9.9999843809393552e-01  9.9999965381009914e-01  1.0000005656046138e+00  1.0000012029709533e+00  1.0000016089297534e+00  1.0000018307561742e+00  1.0000019136521039e+00  1.0000018963605626e+00  1.0000018092031855e+00  1.0000016737642783e+00  1.0000015036034053e+00  1.0000013058028137e+00  1.0000010832428825e+00  1.0000008367612134e+00  1.0000005670827075e+00  1.0000002772908412e+00  9.9999997694007769e-01  9.9999968782922932e-01  9.9999944998658763e-01  9.9999932357138988e-01  9.9999936927331656e-01  9.9999958596182015e-01  9.9999985674580427e-01  1.0000000210343791e+00  1.0000000347307123e+00  9.9999999253490668e-01  9.9999997932282747e-01  9.9999999007135909e-01  9.9999999609835810e-01  9.9999999626552960e-01  9.9999999719389798e-01  9.9999999838622600e-01  9.9999999888619107e-01  9.9999999921274951e-01  9.9999999947423324e-01  9.9999999961545827e-01  9.9999999971746001e-01  9.9999999980368215e-01  9.9999999972121911e-01  9.9999999999982658e-01  9.9999999998101829e-01  9.9999999843980170e-01  1.0000000027031111e+00  1.0000000014991770e+00  9.9999997950460406e-01  1.0000000249575174e+00  1.0000000735694694e+00  9.9999979617540180e-01  9.9999975696718046e-01  1.0000009427401073e+00  1.0000012768818103e+00  9.9999746465089812e-01  9.9999294624465818e-01  9.9999623548302952e-01  1.0000088065457120e+00  1.0000225831952074e+00  1.0000301233779412e+00  1.0000308386674899e+00  1.0000279872047200e+00  1.0000244329200307e+00  1.0000214545065966e+00  1.0000192537559125e+00  1.0000176176877693e+00  1.0000162819377894e+00  1.0000150475340939e+00  1.0000138033579393e+00  1.0000125247277256e+00  1.0000112484166590e+00  1.0000100373436798e+00  1.0000089516790021e+00  1.0000080366913917e+00  1.0000073185334752e+00  1.0000068078536597e+00  1.0000065046402900e+00  1.0000064031726938e+00  1.0000064913625595e+00  1.0000067502402481e+00  1.0000071534982227e+00  1.0000076718169593e+00  1.0000082728177218e+00  1.0000089161910810e+00  1.0000095492041736e+00  1.0000101123467793e+00  1.0000105496480645e+00  1.0000108258135709e+00  1.0000109402130493e+00  1.0000109239830730e+00  1.0000108174973075e+00  1.0000106536261055e+00  1.0000104544261623e+00  1.0000102333453826e+00  1.0000099954185744e+00  1.0000097437023876e+00  1.0000094848425896e+00  1.0000092294571752e+00  1.0000089868449054e+00  1.0000087627873935e+00  1.0000085586137641e+00  1.0000083724257804e+00  1.0000081976527739e+00  1.0000080243302052e+00  1.0000078428980101e+00  1.0000076482055045e+00  1.0000074349311259e+00  1.0000071916410658e+00  1.0000068991978699e+00  1.0000065373266536e+00  1.0000060914210003e+00  1.0000055571435564e+00  1.0000049384265550e+00  1.0000042456806770e+00  1.0000034948659187e+00  1.0000027085175687e+00  1.0000019154592470e+00  1.0000011525164807e+00  1.0000004626415184e+00  9.9999988786743266e-01  9.9999945774489629e-01  9.9999918642059826e-01  9.9999908048778874e-01  9.9999914943722656e-01  9.9999940747778093e-01  9.9999987201593832e-01  1.0000005614512870e+00  1.0000014934087396e+00  1.0000026796067425e+00  1.0000041189935398e+00  1.0000057890320146e+00  1.0000076387027261e+00  1.0000095806430642e+00  1.0000114830964524e+00  1.0000131600808726e+00  1.0000143625884623e+00  1.0000147757356812e+00  1.0000140199696728e+00  1.0000115924587063e+00  1.0000069890338517e+00  1.0000007757066089e+00  9.9999567595250227e-01  9.9999451572741305e-01  9.9999655615715832e-01  9.9999856396048292e-01  9.9999920240954931e-01  9.9999937824779606e-01  9.9999964460104396e-01  9.9999983099005674e-01  9.9999990659283322e-01  9.9999995169355005e-01  9.9999997691097076e-01  9.9999998769611464e-01  9.9999999355602820e-01  9.9999999647717719e-01  9.9999999778358084e-01  9.9999999868484413e-01  9.9999999954441388e-01  9.9999999838499753e-01  9.9999999814024454e-01  1.0000000056359744e+00  1.0000000012805221e+00  9.9999996948151049e-01  9.9999999312549614e-01  1.0000001217453769e+00  1.0000000989986908e+00  9.9999966937977303e-01  9.9999929254287956e-01  9.9999988387307626e-01  1.0000015074920539e+00  1.0000028831144843e+00  1.0000025323457895e+00  1.0000001049120384e+00  9.9999647203492081e-01  9.9999289507294653e-01  9.9999031024178597e-01  9.9998913424561919e-01  9.9998936831363860e-01  9.9999077058122643e-01  9.9999302033200144e-01  9.9999582970788781e-01  9.9999898345657889e-01  1.0000023284389559e+00  1.0000057447911785e+00  1.0000091175519068e+00  1.0000123177250160e+00  1.0000152006252780e+00  1.0000176246010382e+00  1.0000194753457214e+00  1.0000206842681263e+00  1.0000212425318562e+00  1.0000212123597318e+00  1.0000207214029508e+00  1.0000199336194269e+00  1.0000190009106473e+00  1.0000180147297713e+00  1.0000169754881445e+00  1.0000157965370338e+00  1.0000143407199669e+00  1.0000124813473410e+00  1.0000101621177506e+00  1.0000074320264327e+00  1.0000044382929398e+00  1.0000013900645073e+00  9.9999850537655166e-01  9.9999595615817394e-01  9.9999382968603445e-01  9.9999212869142717e-01  9.9999080099235549e-01  9.9998978006963601e-01  9.9998902580216875e-01  9.9998856635668643e-01  9.9998853429185608e-01  9.9998918503722267e-01  9.9999085512519548e-01  9.9999368770493102e-01  9.9999706794731502e-01  9.9999958190699434e-01  1.0000002981381715e+00  9.9999987932061984e-01  9.9999958476358242e-01  9.9999971940906096e-01  9.9999988314992116e-01  9.9999992529317450e-01  9.9999994550873939e-01  9.9999997032723009e-01  9.9999998273509105e-01  9.9999998883796648e-01  9.9999999325557887e-01  9.9999999552486318e-01  9.9999999694313513e-01  9.9999999799299533e-01  9.9999999707466147e-01  1.0000000002137750e+00  1.0000000003601262e+00  9.9999998184261085e-01  1.0000000251092993e+00  1.0000000409415268e+00  9.9999977121839478e-01  1.0000000317613940e+00  1.0000011078327331e+00  9.9999946389721261e-01  9.9999501440498828e-01  9.9999853411236317e-01  1.0000145749928477e+00  1.0000249937603316e+00  1.0000100379338479e+00  9.9997454176490574e-01  9.9993806234316474e-01  9.9991209205861620e-01  9.9989610381941652e-01  9.9988568430705960e-01  9.9987787647218118e-01  9.9987194362018417e-01  9.9986836681617874e-01  9.9986772086933584e-01  9.9987009009397576e-01  9.9987503636629693e-01  9.9988180805720861e-01  9.9988958282066098e-01  9.9989763164251577e-01  9.9990539940789391e-01  9.9991250830409351e-01  9.9991874259060887e-01  9.9992401988537138e-01  9.9992836683992503e-01  9.9993187598816247e-01  9.9993466860042113e-01  9.9993686619736843e-01  9.9993858260475443e-01  9.9993990421307100e-01  9.9994087696127465e-01  9.9994149513795960e-01  9.9994170818481398e-01  9.9994143595502860e-01  9.9994059428955362e-01  9.9993909910473611e-01  9.9993686706663498e-01  9.9993381121648606e-01  9.9992984822743958e-01  9.9992489969253728e-01  9.9991890801962646e-01  9.9991187376281621e-01  9.9990392463196254e-01  9.9989536200766582e-01  9.9988664710995168e-01  9.9987832497146423e-01  9.9987099469462015e-01  9.9986533036792402e-01  9.9986212010879794e-01  9.9986232842474276e-01  9.9986717046561457e-01  9.9987807568324949e-01  9.9989649440741113e-01  9.9992260935672561e-01  9.9995193234046675e-01  9.9997463032156908e-01  9.9998426964764664e-01  9.9998590333779769e-01  9.9998834976222806e-01  9.9999288671364039e-01  9.9999630727803945e-01  9.9999798161759723e-01  9.9999893123872663e-01  9.9999948942174899e-01  9.9999974870094943e-01  9.9999987434701343e-01  9.9999993718253732e-01  9.9999996647496991e-01  9.9999998045992855e-01  9.9999998626966358e-01  9.9999999638373582e-01  9.9999999413206242e-01  9.9999996756872656e-01  1.0000000273635494e+00  1.0000000995991176e+00  9.9999976979097893e-01  9.9999957179945509e-01  1.0000008776138058e+00  1.0000019979978974e+00  9.9999851299109843e-01  9.9999220814610656e-01  9.9999335059666927e-01  1.0000073236334288e+00  1.0000249111639237e+00  1.0000318814483486e+00  1.0000238026959229e+00  1.0000078670165891e+00  9.9999427961484999e-01  9.9998935086862895e-01  9.9999371451358832e-01  1.0000016114085779e+00  1.0000036358238071e+00  9.9999713740982510e-01  9.9999046339077780e-01  9.9999034891952165e-01  9.9999352901126504e-01  9.9999546696264296e-01  9.9999641236440517e-01  9.9999732009090858e-01  9.9999795090196475e-01  9.9999824958711891e-01  9.9999834898772555e-01  9.9999826106452105e-01  9.9999691457834605e-01  9.9999951849513180e-01  9.9997872012883660e-01  9.9998011573731826e-01  1.0000827052602506e+00  9.9717362403855114e-01  9.9837184729692430e-01  8.5062819705770609e-01  2.2539253858995850e-01  1.9910842450956943e-02  2.2989232544856192e-03  4.6368606152001948e-04  4.0141071868053264e-05  1.2653307893936911e-05  2.3882733597612400e-06  4.9940415460117959e-07  1.6121105278056156e-07  4.2243028571812301e-08  1.4349953321064855e-08  4.9191060523972959e-09  1.9114263419164866e-09  7.6135127213021035e-10  3.3673165681136245e-10  1.5498635168107631e-10  7.5784606659303537e-11  3.9282890220377918e-11  2.1166863596198784e-11  1.2027776339111389e-11  7.0794963052281439e-12  4.3439153452951474e-12  2.7558651704759025e-12  1.8071180920820416e-12  1.2206101741617262e-12  8.4728891173418584e-13  6.0313723982008573e-13  4.3926352351702773e-13  3.2668069441254701e-13  2.4762908894717864e-13  1.9101908498679781e-13  1.4966146274531148e-13  1.1894589478305722e-13  9.5767419819281208e-14  7.8011884562585812e-14  6.4195444193840700e-14  5.3349333733388731e-14  4.4697092243919845e-14  3.7761816912875093e-14  3.2109574323281758e-14  2.7462999305445507e-14  2.3650602155302098e-14  2.0449683729892092e-14  1.7783019574244648e-14  1.5509238305706213e-14  1.3609894792399424e-14  1.1948998752482251e-14  1.0524104355390629e-14  9.3442588677153779e-15  8.2743113162462692e-15  7.3694551139620883e-15  6.5835191460169406e-15  5.8871786945102252e-15  5.2629438941789681e-15  4.7568019176279930e-15  4.2843198264570050e-15  3.8743704860791197e-15  3.5175163126011252e-15  3.2038593239195947e-15  2.9498638331028983e-15  2.6953899873919838e-15  2.4949695259347151e-15  2.2963216303641444e-15  2.1642593140461535e-15  2.0188041613146087e-15  1.9135680962351049e-15  1.8290985514260431e-15  1.7467234180312050e-15  1.6880470258163090e-15  1.6720457905439726e-15  1.6019895057426839e-15  1.6031278807761962e-15  1.0000016888158647e+00  1.0000002231380785e+00  1.0000000041528674e+00  9.9999912325905593e-01  9.9999812168058144e-01  9.9999689929683777e-01  9.9999562479206483e-01  9.9999452028700753e-01  9.9999393012998061e-01  9.9999426109497924e-01  9.9999587768271758e-01  9.9999894757911145e-01  1.0000033110826807e+00  1.0000084443242092e+00  1.0000135256496203e+00  1.0000175743721005e+00  1.0000196520716802e+00  1.0000191074357130e+00  1.0000157820114079e+00  1.0000100755400640e+00  1.0000028398325285e+00  9.9999516112053211e-01  9.9998811221972639e-01  9.9998254104062456e-01  9.9997896656889540e-01  9.9997760585351980e-01  9.9997845068277524e-01  9.9998131050173533e-01  9.9998582042239348e-01  9.9999145191719252e-01  9.9999753946823378e-01  1.0000033343909269e+00  1.0000081131702585e+00  1.0000113349504205e+00  1.0000127664547229e+00  1.0000125017439603e+00  1.0000108826797838e+00  1.0000083788935878e+00  1.0000054759523449e+00  1.0000025921316171e+00  1.0000000260288533e+00  9.9999794047933332e-01  9.9999638306535343e-01  9.9999532668513302e-01  9.9999470535763135e-01  9.9999443664735466e-01  9.9999443592780146e-01  9.9999462693881414e-01  9.9999494787888321e-01  9.9999535340248791e-01  9.9999581413277017e-01  9.9999631457364735e-01  9.9999684919211040e-01  9.9999741789746699e-01  9.9999802213465638e-01  9.9999866087887912e-01  9.9999932432070382e-01  9.9999998387289113e-01  1.0000005798890264e+00  1.0000010122860530e+00  1.0000011511332279e+00  1.0000009152386213e+00  1.0000004175252237e+00  9.9999997678140573e-01  9.9999983673708304e-01  9.9999991934064913e-01  9.9999999884259971e-01  1.0000000024641655e+00  9.9999999108287052e-01  9.9999999416781871e-01  9.9999999789838834e-01  9.9999999814397400e-01  9.9999999861860001e-01  9.9999999919770877e-01  9.9999999941934636e-01  9.9999999957723773e-01  9.9999999971373621e-01  9.9999999973420572e-01  9.9999999981093834e-01  1.0000000000233382e+00  9.9999999914938309e-01  1.0000000007549439e+00  1.0000000016192325e+00  9.9999998921752109e-01  1.0000000138499643e+00  1.0000000326206886e+00  9.9999986334465352e-01  1.0000000011704899e+00  1.0000006876958580e+00  9.9999965814072367e-01  9.9999696899663559e-01  9.9999993807187226e-01  1.0000104282371769e+00  1.0000135983786398e+00  9.9999619068682732e-01  9.9996663025148114e-01  9.9994338019134621e-01  9.9993416435373295e-01  9.9993455674099330e-01  9.9993758288888956e-01  9.9993916079973888e-01  9.9993827818977232e-01  9.9993557948518796e-01  9.9993219583084103e-01  9.9992915776638125e-01  9.9992717169620504e-01  9.9992655311816014e-01  9.9992726927580522e-01  9.9992905861604342e-01  9.9993156484292134e-01  9.9993443083764211e-01  9.9993735226065683e-01  9.9994009710607468e-01  9.9994250405904861e-01  9.9994446859115016e-01  9.9994593398009846e-01  9.9994688469643145e-01  9.9994734253029749e-01  9.9994735548180447e-01  9.9994698730712894e-01  9.9994631895037256e-01  9.9994546007822938e-01  9.9994454516389664e-01  9.9994371631082080e-01  9.9994309422859418e-01  9.9994274310072562e-01  9.9994265297153839e-01  9.9994276906554536e-01  9.9994303582417143e-01  9.9994341521390417e-01  9.9994388263197143e-01  9.9994442722373234e-01  9.9994504575253162e-01  9.9994572945196014e-01  9.9994645732433096e-01  9.9994720470125897e-01  9.9994795144950621e-01  9.9994868613430710e-01  9.9994940454499937e-01  9.9995011111712140e-01  9.9995081975530231e-01  9.9995154984625068e-01  9.9995231513905614e-01  9.9995312454268492e-01  9.9995399447771294e-01  9.9995495830764070e-01  9.9995605922759756e-01  9.9995733598481884e-01  9.9995880891577416e-01  9.9996047828275958e-01  9.9996232844573107e-01  9.9996433093550574e-01  9.9996644265922463e-01  9.9996860625850326e-01  9.9997074800310892e-01  9.9997277761321335e-01  9.9997459616925299e-01  9.9997611837197276e-01  9.9997729011605618e-01  9.9997808366597118e-01  9.9997847527639161e-01  9.9997843357241190e-01  9.9997792120513096e-01  9.9997689982631532e-01  9.9997533329268751e-01  9.9997319589288891e-01  9.9997048496865570e-01  9.9996723917083219e-01  9.9996355576439533e-01  9.9995960756078506e-01  9.9995566028337168e-01  9.9995209217748404e-01  9.9994941158193162e-01  9.9994826781614043e-01  9.9994943779589562e-01  9.9995384177278979e-01  9.9996260364173517e-01  9.9997607555446388e-01  9.9999095621784084e-01  1.0000003920426286e+00  1.0000013630623277e+00  9.9999887170827084e-01  9.9999828623608211e-01  9.9999920448577984e-01  9.9999968286297325e-01  9.9999977271155471e-01  9.9999988257968619e-01  9.9999995033056543e-01  9.9999997175169242e-01  9.9999998624289210e-01  9.9999999306551823e-01  9.9999999595779065e-01  9.9999999773819925e-01  9.9999999880002632e-01  9.9999999850094823e-01  9.9999999880428214e-01  1.0000000030114251e+00  9.9999999707475962e-01  9.9999998312276051e-01  1.0000000222797170e+00  1.0000000685574235e+00  9.9999990224038959e-01  9.9999968099590508e-01  1.0000001188275549e+00  1.0000011659624075e+00  1.0000011621302132e+00  9.9999875751709311e-01  9.9999528843110852e-01  9.9999396039431687e-01  9.9999680813540304e-01  1.0000031351395082e+00  1.0000105443712359e+00  1.0000167106478537e+00  1.0000202660206750e+00  1.0000208038811045e+00  1.0000185767061398e+00  1.0000141519419072e+00  1.0000081274722019e+00  1.0000009848191784e+00  9.9999307060714404e-01  9.9998464316930813e-01  9.9997593227442627e-01  9.9996718714307842e-01  9.9995869950858696e-01  9.9995078524701675e-01  9.9994373756994226e-01  9.9993778542970979e-01  9.9993306629027856e-01  9.9992960020186694e-01  9.9992728147231824e-01  9.9992591110393303e-01  9.9992527339859605e-01  9.9992522899346759e-01  9.9992578846297897e-01  9.9992712750609081e-01  9.9992953419355191e-01  9.9993329820046339e-01  9.9993858170362260e-01  9.9994532100303468e-01  9.9995320926016174e-01  9.9996175731902359e-01  9.9997040077418187e-01  9.9997862250678438e-01  9.9998606297634829e-01  9.9999256456656582e-01  9.9999813694595074e-01  1.0000028792381663e+00  1.0000068945920757e+00  1.0000102017377024e+00  1.0000126495889607e+00  1.0000138541227688e+00  1.0000132022216266e+00  1.0000100964769789e+00  1.0000048366801737e+00  9.9999959245891812e-01  9.9999720123085689e-01  9.9999799637104703e-01  9.9999950735018883e-01  9.9999997347079794e-01  9.9999985497016020e-01  9.9999986645098127e-01  9.9999994790411717e-01  9.9999996925659262e-01  9.9999997746396474e-01  9.9999998815012969e-01  9.9999999257338501e-01  9.9999999494822756e-01  9.9999999687736907e-01  9.9999999717426347e-01  9.9999999818094698e-01  1.0000000004550167e+00  9.9999999039670495e-01  1.0000000078842763e+00  1.0000000233463791e+00  9.9999987709232252e-01  1.0000000843539021e+00  1.0000005388001478e+00  9.9999888083177657e-01  9.9999796274139241e-01  1.0000054119279340e+00  1.0000101731047870e+00  9.9998859030823994e-01  9.9995399811539110e-01  9.9995435227004614e-01  1.0000062034281665e+00  1.0000762873006306e+00  1.0001279033695425e+00  1.0001505172049399e+00  1.0001506815020400e+00  1.0001374260220677e+00  1.0001170091120817e+00  1.0000930255687726e+00  1.0000677500934270e+00  1.0000430201714139e+00  1.0000203501003084e+00  1.0000007691448136e+00  9.9998474545354588e-01  9.9997226945055540e-01  9.9996301050922998e-01  9.9995649473085491e-01  9.9995222149344787e-01  9.9994972006711591e-01  9.9994854748003070e-01  9.9994829659712381e-01  9.9994861596967322e-01  9.9994923346681930e-01  9.9994994324353792e-01  9.9995060600230468e-01  9.9995116107381532e-01  9.9995164119328661e-01  9.9995216409478427e-01  9.9995290972049666e-01  9.9995406616796345e-01  9.9995580283192265e-01  9.9995826912006025e-01  9.9996160943028634e-01  9.9996596261208537e-01  9.9997146520201874e-01  9.9997824594586859e-01  9.9998639505683273e-01  9.9999586519990591e-01  1.0000063689832646e+00  1.0000173574178026e+00  1.0000281647330886e+00  1.0000381665006348e+00  1.0000467955064629e+00  1.0000534663269198e+00  1.0000574521350474e+00  1.0000576076642167e+00  1.0000521392873818e+00  1.0000385772603795e+00  1.0000145515836434e+00  9.9998221914539009e-01  9.9995484264863399e-01  9.9994983870229071e-01  9.9996661117214858e-01  9.9998508550320830e-01  9.9999298073760834e-01  9.9999524600442702e-01  9.9999730695016587e-01  9.9999879168912797e-01  9.9999938788834608e-01  9.9999969502407815e-01  9.9999986040254496e-01  9.9999992787460557e-01  9.9999996236847433e-01  9.9999997790643047e-01  9.9999998896999964e-01  9.9999999164395226e-01  9.9999997904378346e-01  1.0000000179110706e+00  1.0000000349701701e+00  9.9999981632567037e-01  9.9999994982109253e-01  1.0000008599609445e+00  1.0000000388049992e+00  9.9999644935720677e-01  9.9999770660553178e-01  1.0000093793459246e+00  1.0000175623309784e+00  1.0000016651465546e+00  9.9996539892170722e-01  9.9993677545715676e-01  9.9993676932184328e-01  9.9996054170478244e-01  9.9998783841890149e-01  1.0000013638689196e+00  9.9999481125788214e-01  9.99974232891