<?xml version="1.0"?>
<VTKFile type="UnstructuredGrid"  version="0.1"  >
<UnstructuredGrid>
<Piece  NumberOfPoints="28121" NumberOfCells="55200">
<Points>
<DataArray  type="Float64"  NumberOfComponents="3"  format="ascii">0 0 0  0.008260869565217391 0 0  0.01652173913043478 0 0  0.02478260869565217 0 0  0.03304347826086956 0 0  0.04130434782608695 0 0  0.04956521739130434 0 0  0.05782608695652174 0 0  0.06608695652173913 0 0  0.07434782608695652 0 0  0.08260869565217391 0 0  0.0908695652173913 0 0  0.09913043478260869 0 0  0.1073913043478261 0 0  0.1156521739130435 0 0  0.1239130434782609 0 0  0.1321739130434783 0 0  0.1404347826086956 0 0  0.148695652173913 0 0  0.1569565217391304 0 0  0.1652173913043478 0 0  0.1734782608695652 0 0  0.1817391304347826 0 0  0.19 0 0  0.1982608695652174 0 0  0.2065217391304348 0 0  0.2147826086956522 0 0  0.2230434782608696 0 0  0.2313043478260869 0 0  0.2395652173913043 0 0  0.2478260869565218 0 0  0.2560869565217391 0 0  0.2643478260869565 0 0  0.2726086956521739 0 0  0.2808695652173913 0 0  0.2891304347826087 0 0  0.2973913043478261 0 0  0.3056521739130434 0 0  0.3139130434782609 0 0  0.3221739130434783 0 0  0.3304347826086956 0 0  0.338695652173913 0 0  0.3469565217391304 0 0  0.3552173913043478 0 0  0.3634782608695652 0 0  0.3717391304347826 0 0  0.3799999999999999 0 0  0.3882608695652174 0 0  0.3965217391304348 0 0  0.4047826086956521 0 0  0.4130434782608696 0 0  0.4213043478260869 0 0  0.4295652173913043 0 0  0.4378260869565217 0 0  0.4460869565217391 0 0  0.4543478260869565 0 0  0.4626086956521739 0 0  0.4708695652173913 0 0  0.4791304347826086 0 0  0.4873913043478261 0 0  0.4956521739130435 0 0  0.5039130434782608 0 0  0.5121739130434783 0 0  0.5204347826086956 0 0  0.528695652173913 0 0  0.5369565217391304 0 0  0.5452173913043478 0 0  0.5534782608695652 0 0  0.5617391304347825 0 0  0.57 0 0  0.5782608695652174 0 0  0.5865217391304348 0 0  0.5947826086956521 0 0  0.6030434782608696 0 0  0.6113043478260869 0 0  0.6195652173913043 0 0  0.6278260869565218 0 0  0.6360869565217391 0 0  0.6443478260869565 0 0  0.6526086956521739 0 0  0.6608695652173913 0 0  0.6691304347826087 0 0  0.677391304347826 0 0  0.6856521739130435 0 0  0.6939130434782609 0 0  0.7021739130434783 0 0  0.7104347826086956 0 0  0.718695652173913 0 0  0.7269565217391304 0 0  0.7352173913043478 0 0  0.7434782608695653 0 0  0.7517391304347827 0 0  0.7599999999999999 0 0  0.7682608695652173 0 0  0.7765217391304348 0 0  0.7847826086956522 0 0  0.7930434782608695 0 0  0.8013043478260868 0 0  0.8095652173913043 0 0  0.8178260869565217 0 0  0.8260869565217391 0 0  0.8343478260869565 0 0  0.8426086956521739 0 0  0.8508695652173912 0 0  0.8591304347826086 0 0  0.8673913043478261 0 0  0.8756521739130434 0 0  0.8839130434782608 0 0  0.8921739130434783 0 0  0.9004347826086956 0 0  0.908695652173913 0 0  0.9169565217391303 0 0  0.9252173913043478 0 0  0.9334782608695652 0 0  0.9417391304347826 0 0  0.95 0 0  0.9582608695652173 0 0  0.9665217391304347 0 0  0.9747826086956521 0 0  0.9830434782608696 0 0  0.991304347826087 0 0  0.9995652173913042 0 0  1.007826086956522 0 0  1.016086956521739 0 0  1.024347826086957 0 0  1.032608695652174 0 0  1.040869565217391 0 0  1.049130434782609 0 0  1.057391304347826 0 0  1.065652173913043 0 0  1.073913043478261 0 0  1.082173913043478 0 0  1.090434782608696 0 0  1.098695652173913 0 0  1.10695652173913 0 0  1.115217391304348 0 0  1.123478260869565 0 0  1.131739130434783 0 0  1.14 0 0  1.148260869565217 0 0  1.156521739130435 0 0  1.164782608695652 0 0  1.17304347826087 0 0  1.181304347826087 0 0  1.189565217391304 0 0  1.197826086956522 0 0  1.206086956521739 0 0  1.214347826086956 0 0  1.222608695652174 0 0  1.230869565217391 0 0  1.239130434782609 0 0  1.247391304347826 0 0  1.255652173913044 0 0  1.263913043478261 0 0  1.272173913043478 0 0  1.280434782608696 0 0  1.288695652173913 0 0  1.296956521739131 0 0  1.305217391304348 0 0  1.313478260869565 0 0  1.321739130434783 0 0  1.33 0 0  1.338260869565217 0 0  1.346521739130435 0 0  1.354782608695652 0 0  1.36304347826087 0 0  1.371304347826087 0 0  1.379565217391304 0 0  1.387826086956522 0 0  1.396086956521739 0 0  1.404347826086957 0 0  1.412608695652174 0 0  1.420869565217391 0 0  1.429130434782609 0 0  1.437391304347826 0 0  1.445652173913043 0 0  1.453913043478261 0 0  1.462173913043478 0 0  1.470434782608696 0 0  1.478695652173913 0 0  1.486956521739131 0 0  1.495217391304348 0 0  1.503478260869565 0 0  1.511739130434782 0 0  1.52 0 0  1.528260869565217 0 0  1.536521739130435 0 0  1.544782608695652 0 0  1.55304347826087 0 0  1.561304347826087 0 0  1.569565217391304 0 0  1.577826086956522 0 0  1.586086956521739 0 0  1.594347826086957 0 0  1.602608695652174 0 0  1.610869565217391 0 0  1.619130434782609 0 0  1.627391304347826 0 0  1.635652173913043 0 0  1.643913043478261 0 0  1.652173913043478 0 0  1.660434782608696 0 0  1.668695652173913 0 0  1.67695652173913 0 0  1.685217391304348 0 0  1.693478260869565 0 0  1.701739130434782 0 0  1.71 0 0  1.718260869565217 0 0  1.726521739130435 0 0  1.734782608695652 0 0  1.743043478260869 0 0  1.751304347826087 0 0  1.759565217391304 0 0  1.767826086956522 0 0  1.776086956521739 0 0  1.784347826086957 0 0  1.792608695652174 0 0  1.800869565217391 0 0  1.809130434782608 0 0  1.817391304347826 0 0  1.825652173913043 0 0  1.833913043478261 0 0  1.842173913043478 0 0  1.850434782608696 0 0  1.858695652173913 0 0  1.86695652173913 0 0  1.875217391304348 0 0  1.883478260869565 0 0  1.891739130434782 0 0  1.9 0 0  1.908260869565217 0 0  1.916521739130435 0 0  1.924782608695652 0 0  1.933043478260869 0 0  1.941304347826087 0 0  1.949565217391304 0 0  1.957826086956522 0 0  1.966086956521739 0 0  1.974347826086956 0 0  1.982608695652174 0 0  1.990869565217391 0 0  1.999130434782608 0 0  2.007391304347826 0 0  2.015652173913043 0 0  2.023913043478261 0 0  2.032173913043478 0 0  2.040434782608695 0 0  2.048695652173913 0 0  2.05695652173913 0 0  2.065217391304348 0 0  2.073478260869565 0 0  2.081739130434782 0 0  2.09 0 0  2.098260869565217 0 0  2.106521739130435 0 0  2.114782608695652 0 0  2.12304347826087 0 0  2.131304347826087 0 0  2.139565217391304 0 0  2.147826086956522 0 0  2.156086956521739 0 0  2.164347826086956 0 0  2.172608695652174 0 0  2.180869565217391 0 0  2.189130434782609 0 0  2.197391304347826 0 0  2.205652173913043 0 0  2.213913043478261 0 0  2.222173913043478 0 0  2.230434782608695 0 0  2.238695652173913 0 0  2.24695652173913 0 0  2.255217391304348 0 0  2.263478260869565 0 0  2.271739130434783 0 0  2.28 0 0  2.288260869565217 0 0  2.296521739130434 0 0  2.304782608695652 0 0  2.31304347826087 0 0  2.321304347826087 0 0  2.329565217391304 0 0  2.337826086956521 0 0  2.346086956521739 0 0  2.354347826086956 0 0  2.362608695652174 0 0  2.370869565217391 0 0  2.379130434782609 0 0  2.387391304347826 0 0  2.395652173913044 0 0  2.403913043478261 0 0  2.412173913043478 0 0  2.420434782608695 0 0  2.428695652173913 0 0  2.43695652173913 0 0  2.445217391304348 0 0  2.453478260869565 0 0  2.461739130434782 0 0  2.47 0 0  2.478260869565217 0 0  2.486521739130435 0 0  2.494782608695652 0 0  2.503043478260869 0 0  2.511304347826087 0 0  2.519565217391305 0 0  2.527826086956522 0 0  2.536086956521739 0 0  2.544347826086956 0 0  2.552608695652174 0 0  2.560869565217391 0 0  2.569130434782608 0 0  2.577391304347826 0 0  2.585652173913043 0 0  2.593913043478261 0 0  2.602173913043478 0 0  2.610434782608696 0 0  2.618695652173913 0 0  2.62695652173913 0 0  2.635217391304348 0 0  2.643478260869565 0 0  2.651739130434783 0 0  2.66 0 0  2.668260869565217 0 0  2.676521739130435 0 0  2.684782608695652 0 0  2.693043478260869 0 0  2.701304347826087 0 0  2.709565217391304 0 0  2.717826086956522 0 0  2.726086956521739 0 0  2.734347826086956 0 0  2.742608695652174 0 0  2.750869565217391 0 0  2.759130434782609 0 0  2.767391304347826 0 0  2.775652173913044 0 0  2.783913043478261 0 0  2.792173913043478 0 0  2.800434782608696 0 0  2.808695652173913 0 0  2.81695652173913 0 0  2.825217391304347 0 0  2.833478260869565 0 0  2.841739130434783 0 0  2.85 0 0  2.858260869565217 0 0  2.866521739130435 0 0  2.874782608695652 0 0  2.88304347826087 0 0  2.891304347826087 0 0  2.899565217391304 0 0  2.907826086956522 0 0  2.916086956521739 0 0  2.924347826086957 0 0  2.932608695652174 0 0  2.940869565217391 0 0  2.949130434782608 0 0  2.957391304347826 0 0  2.965652173913043 0 0  2.973913043478261 0 0  2.982173913043478 0 0  2.990434782608696 0 0  2.998695652173913 0 0  3.006956521739131 0 0  3.015217391304348 0 0  3.023478260869565 0 0  3.031739130434782 0 0  3.04 0 0  3.048260869565218 0 0  3.056521739130435 0 0  3.064782608695652 0 0  3.073043478260869 0 0  3.081304347826087 0 0  3.089565217391304 0 0  3.097826086956522 0 0  3.106086956521739 0 0  3.114347826086956 0 0  3.122608695652174 0 0  3.130869565217391 0 0  3.139130434782609 0 0  3.147391304347826 0 0  3.155652173913043 0 0  3.163913043478261 0 0  3.172173913043478 0 0  3.180434782608696 0 0  3.188695652173913 0 0  3.19695652173913 0 0  3.205217391304347 0 0  3.213478260869565 0 0  3.221739130434782 0 0  3.23 0 0  3.238260869565217 0 0  3.246521739130435 0 0  3.254782608695652 0 0  3.26304347826087 0 0  3.271304347826087 0 0  3.279565217391304 0 0  3.287826086956521 0 0  3.296086956521739 0 0  3.304347826086957 0 0  3.312608695652174 0 0  3.320869565217391 0 0  3.329130434782608 0 0  3.337391304347826 0 0  3.345652173913043 0 0  3.353913043478261 0 0  3.362173913043478 0 0  3.370434782608696 0 0  3.378695652173913 0 0  3.386956521739131 0 0  3.395217391304348 0 0  3.403478260869565 0 0  3.411739130434782 0 0  3.419999999999999 0 0  3.428260869565217 0 0  3.436521739130435 0 0  3.444782608695652 0 0  3.453043478260869 0 0  3.461304347826087 0 0  3.469565217391304 0 0  3.477826086956522 0 0  3.486086956521739 0 0  3.494347826086956 0 0  3.502608695652174 0 0  3.510869565217391 0 0  3.519130434782609 0 0  3.527391304347826 0 0  3.535652173913043 0 0  3.54391304347826
[...]
<PointData  Scalars="rho"> 
<DataArray  type="Float64"  Name="rho"  format="ascii">4.0840906608398425e-01  4.1601945338605562e-01  4.1593708601326240e-01  4.1582517988854589e-01  4.1568875960755980e-01  4.1553307487674290e-01  4.1536248269561638e-01  4.1518030734238232e-01  4.1498899845581455e-01  4.1479028359309161e-01  4.1458533946324883e-01  4.1437491300350737e-01  4.1415944257028725e-01  4.1393913418493350e-01  4.1371404141084656e-01  4.1348411052617706e-01  4.1324922962896643e-01  4.1300924697146435e-01  4.1276400578970701e-01  4.1251334750785179e-01  4.1225713492867427e-01  4.1199525030299006e-01  4.1172760877457187e-01  4.1145414734063579e-01  4.1117483898548129e-01  4.1088967820690536e-01  4.1059869259319037e-01  4.1030192580348152e-01  4.0999944942594457e-01  4.0969135052046085e-01  4.0937773804544147e-01  4.0905872783906827e-01  4.0873445382003815e-01  4.0840505279240374e-01  4.0807067473218317e-01  4.0773146530209392e-01  4.0738757956595945e-01  4.0703917133277356e-01  4.0668640030352293e-01  4.0632941728536709e-01  4.0596837858516888e-01  4.0560343215376754e-01  4.0523472935713328e-01  4.0486240883574581e-01  4.0448661186803198e-01  4.0410747296699334e-01  4.0372512800145194e-01  4.0333970208770842e-01  4.0295132325886318e-01  4.0256011065120434e-01  4.0216618649085956e-01  4.0176966066086378e-01  4.0137064667776956e-01  4.0096925253403748e-01  4.0056558991991226e-01  4.0015976087779054e-01  3.9975187318331679e-01  3.9934202766749993e-01  3.9893033083232110e-01  3.9851687981111561e-01  3.9810177774904076e-01  3.9768512525291427e-01  3.9726702863920021e-01  3.9684758799358172e-01  3.9642691079874243e-01  3.9600509995432004e-01  3.9558226587013362e-01  3.9515851130300489e-01  3.9473394660571115e-01  3.9430867985938989e-01  3.9388282624549792e-01  3.9345649453654102e-01  3.9302980157291179e-01  3.9260285940599171e-01  3.9217578717450513e-01  3.9174869584043670e-01  3.9132170276656086e-01  3.9089492266173792e-01  3.9046847532189133e-01  3.9004247342533116e-01  3.8961703554581090e-01  3.8919227344514401e-01  3.8876830398889312e-01  3.8834523367722867e-01  3.8792317331709880e-01  3.8750222786931199e-01  3.8708250536328359e-01  3.8666410348828334e-01  3.8624712336717321e-01  3.8583165680887244e-01  3.8541779770190615e-01  3.8500562705798269e-01  3.8459522705514676e-01  3.8418667222503344e-01  3.8378003691045032e-01  3.8337538344198113e-01  3.8297277490022086e-01  3.8257226269763611e-01  3.8217389848017352e-01  3.8177771905250230e-01  3.8138376105388677e-01  3.8099205113662021e-01  3.8060261502364234e-01  3.8021546468439027e-01  3.7983061213957930e-01  3.7944805723082697e-01  3.7906779921385081e-01  3.7868982251999000e-01  3.7831411087409333e-01  3.7794063907343500e-01  3.7756938068671203e-01  3.7720029710921821e-01  3.7683335029239395e-01  3.7646849117986919e-01  3.7610567171587206e-01  3.7574483068614511e-01  3.7538590838079239e-01  3.7502883742465770e-01  3.7467355209814113e-01  3.7431997637168579e-01  3.7396803756824609e-01  3.7361765479967474e-01  3.7326875069102022e-01  3.7292123794219995e-01  3.7257503317162938e-01  3.7223004899668427e-01  3.7188620202527661e-01  3.7154340255987500e-01  3.7120156681570798e-01  3.7086060544778110e-01  3.7052043577906019e-01  3.7018096814207013e-01  3.6984211982301529e-01  3.6950380559738522e-01  3.6916594737709951e-01  3.6882846281066139e-01  3.6849127781746133e-01  3.6815431455802605e-01  3.6781750349010101e-01  3.6748077030028486e-01  3.6714404861247613e-01  3.6680727142909814e-01  3.6647037937352106e-01  3.6613331049176012e-01  3.6579601171466958e-01  3.6545842640804926e-01  3.6512050656276873e-01  3.6478219980442089e-01  3.6444346182481979e-01  3.6410424826531357e-01  3.6376452176945856e-01  3.6342424198922119e-01  3.6308337678350155e-01  3.6274189179726496e-01  3.6239976017529801e-01  3.6205694977401753e-01  3.6171343583425819e-01  3.6136919386567851e-01  3.6102420545992808e-01  3.6067844768917823e-01  3.6033190534566939e-01  3.5998456081300995e-01  3.5963640310965295e-01  3.5928741453655855e-01  3.5893758395469483e-01  3.5858690043759867e-01  3.5823535818997787e-01  3.5788294640058371e-01  3.5752966079437454e-01  3.5717549424818534e-01  3.5682044570141697e-01  3.5646450710191580e-01  3.5610767647292974e-01  3.5574995037662088e-01  3.5539133064380218e-01  3.5503181316123383e-01  3.5467140008402892e-01  3.5431008980931405e-01  3.5394788618126072e-01  3.5358478623952960e-01  3.5322079214443913e-01  3.5285590461531818e-01  3.5249012861824064e-01  3.5212346398117955e-01  3.5175591599307560e-01  3.5138748570238526e-01  3.5101817945781877e-01  3.5064799667137991e-01  3.5027694196281295e-01  3.4990501750066483e-01  3.4953223003961559e-01  3.4915858059314581e-01  3.4878407566970293e-01  3.4840871753234615e-01  3.4803251323929807e-01  3.4765546322943625e-01  3.4727757243878293e-01  3.4689884416349392e-01  3.4651928539249388e-01  3.4613889808450632e-01  3.4575768919960476e-01  3.4537566154043237e-01  3.4499282282504712e-01  3.4460917383385536e-01  3.4422472027179768e-01  3.4383946544080685e-01  3.4345341690467746e-01  3.4306657663905937e-01  3.4267895179140595e-01  3.4229054555053595e-01  3.4190136555434109e-01  3.4151141311085448e-01  3.4112069370357917e-01  3.4072921143493567e-01  3.4033697372768318e-01  3.3994398335818060e-01  3.3955024767672709e-01  3.3915577043905909e-01  3.3876055989806120e-01  3.3836461779950167e-01  3.3796795045727063e-01  3.3757056212905040e-01  3.3717246098178877e-01  3.3677365001020049e-01  3.3637413697303004e-01  3.3597392620309963e-01  3.3557302608357320e-01  3.3517143919887088e-01  3.3476917194251277e-01  3.3436622968853047e-01  3.3396262080443889e-01  3.3355834938926476e-01  3.3315342378742413e-01  3.3274784921349387e-01  3.3234163504323572e-01  3.3193478450021119e-01  3.3152730506054029e-01  3.3111920241477505e-01  3.3071048577142409e-01  3.3030115978517449e-01  3.2989123338505028e-01  3.2948071264108159e-01  3.2906960735476243e-01  3.2865792205077260e-01  3.2824566480805956e-01  3.2783284275842173e-01  3.2741946597877175e-01  3.2700554059382148e-01  3.2659107672034299e-01  3.2617608145805538e-01  3.2576056565195943e-01  3.2534453497672200e-01  3.2492799871576927e-01  3.2451096488792314e-01  3.2409344432210940e-01  3.2367544427895328e-01  3.2325697563040062e-01  3.2283804699338731e-01  3.2241867016857767e-01  3.2199885230742481e-01  3.2157860366733487e-01  3.2115793406696563e-01  3.2073685547678094e-01  3.2031537643665298e-01  3.1989350888180851e-01  3.1947126298037409e-01  3.1904865166964619e-01  3.1862568313732670e-01  3.1820236848391625e-01  3.1777871878108177e-01  3.1735474687474713e-01  3.1693046276109993e-01  3.1650587922623014e-01  3.1608100812071149e-01  3.1565586383602851e-01  3.1523045646701187e-01  3.1480479886134399e-01  3.1437890381971939e-01  3.1395278615791772e-01  3.1352645730952483e-01  3.1309993167052314e-01  3.1267322238563094e-01  3.1224634489839964e-01  3.1181931099319032e-01  3.1139213466791027e-01  3.1096483040365180e-01  3.1053741403770896e-01  3.1010989895922519e-01  3.0968230097097604e-01  3.0925463507339257e-01  3.0882691856631495e-01  3.0839916491945896e-01  3.0797139012895869e-01  3.0754361011091591e-01  3.0711584254131408e-01  3.0668810244014644e-01  3.0626040721018949e-01  3.0583277357283944e-01  3.0540521990184921e-01  3.0497776196383752e-01  3.0455041701537433e-01  3.0412320334809084e-01  3.0369613995035127e-01  3.0326924411494388e-01  3.0284253490639429e-01  3.0241603125924332e-01  3.0198975381584875e-01  3.0156371997843234e-01  3.0113794920177311e-01  3.0071246124990092e-01  3.0028727707633718e-01  2.9986241559762961e-01  2.9943789755508676e-01  2.9901374362452543e-01  2.9858997551598654e-01  2.9816661305274883e-01  2.9774367695783660e-01  2.9732118953226716e-01  2.9689917306417996e-01  2.9647764883586131e-01  2.9605663912421942e-01  2.9563616704768525e-01  2.9521625662756690e-01  2.9479692937066904e-01  2.9437820814571541e-01  2.9396011674645467e-01  2.9354267942309242e-01  2.9312591902090496e-01  2.9270985936803168e-01  2.9229452517816956e-01  2.9187994134301198e-01  2.9146613168518681e-01  2.9105312014853729e-01  2.9064093277701275e-01  2.9022959485348110e-01  2.8981913129377679e-01  2.8940956710771859e-01  2.8900092914837772e-01  2.8859324425870819e-01  2.8818653739536426e-01  2.8778083403955118e-01  2.8737616106837865e-01  2.8697254497283448e-01  2.8657001160148748e-01  2.8616858678945029e-01  2.8576829824032873e-01  2.8536917305236725e-01  2.8497123773150135e-01  2.8457451828445701e-01  2.8417904293219409e-01  2.8378483841635699e-01  2.8339193154451692e-01  2.8300034815443431e-01  2.8261011666590130e-01  2.8222126388043528e-01  2.8183381675235025e-01  2.8144780091681376e-01  2.8106324441094249e-01  2.8068017277566482e-01  2.8029861294936137e-01  2.7991858980129697e-01  2.7954013151432866e-01  2.7916326388845947e-01  2.7878801372458228e-01  2.7841440594212263e-01  2.7804246795385151e-01  2.7767222472864156e-01  2.7730370209174082e-01  2.7693692402848097e-01  2.7657191690004979e-01  2.7620870492089461e-01  2.7584731359581560e-01  2.7548776638340078e-01  2.7513008906809416e-01  2.7477430483170778e-01  2.7442043848746822e-01  2.7406851263566218e-01  2.7371855297225528e-01  2.7337058308918133e-01  2.7302462753360918e-01  2.7268070919906484e-01  2.7233885323453627e-01  2.7199908256978828e-01  2.7166142181424796e-01  2.7132589358101172e-01  2.7099252353030423e-01  2.7066133493706512e-01  2.7033235400460282e-01  2.7000560451280436e-01  2.6968111395181893e-01  2.6935890694951997e-01  2.6903901132804187e-01  2.6872145262934877e-01  2.6840626107823423e-01  2.6809346492666020e-01  2.6778309497226865e-01  2.6747518076311405e-01  2.6716975549891303e-01  2.6686685056504184e-01  2.6656650094144141e-01  2.6626874004765005e-01  2.6597360610835968e-01  2.6568113539080207e-01  2.6539136914088673e-01  2.6510434663681071e-01  2.6482011248211723e-01  2.6453870882201463e-01  2.6426018273184276e-01  2.6398457943206471e-01  2.6371195023803151e-01  2.6344234482163686e-01  2.6317581677262269e-01  2.6291241863502179e-01  2.6265220755091340e-01  2.6239523874973836e-01  2.6214157196084126e-01  2.6189126503223320e-01  2.6164438119709515e-01  2.6140098112093596e-01  2.6116113105837163e-01  2.6092489446828193e-01  2.6069234031192268e-01  2.6046353402067302e-01  2.6023854605536134e-01  2.6001744382671954e-01  2.5980030113122982e-01  2.5958718892539534e-01  2.5937818249952704e-01  2.5917335524332685e-01  2.5897278569841314e-01  2.5877655004447386e-01  2.5858472982267966e-01  2.5839740487263885e-01  2.5821466251215736e-01  2.5803658835858184e-01  2.5786327683849775e-01  2.5769482177328684e-01  2.5753132715344901e-01  2.5737289703477784e-01  2.5721964559406862e-01  2.5707168943631492e-01  2.5692915935674610e-01  2.5679219031705636e-01  2.5666092911603122e-01  2.5653552951713615e-01  2.5641616047113197e-01  2.5630299843264048e-01  2.5619623475615777e-01  2.5609606895526421e-01  2.5600271887366816e-01  2.5591640998328063e-01  2.5583738156692049e-01  2.5576587823335040e-01  2.5570215503229210e-01  2.5564646612350406e-01  2.5559907015393546e-01  2.5556021445334709e-01  2.5553014441206690e-01  2.5550909291034063e-01  2.5549731337084952e-01  2.9298762093751690e-01  4.1585382991581460e-01  4.2545877922018843e-01  4.2538758739657173e-01  4.2528321655738949e-01  4.2515195687830493e-01  4.2499962519071288e-01  4.2483091437999992e-01  4.2464943312693526e-01  4.2445783768936751e-01  4.2425803598650497e-01  4.2405133484055063e-01  4.2383859310800864e-01  4.2362032487861928e-01  4.2339680155743836e-01  4.2316811632042040e-01  4.2293425059818374e-01  4.2269510820008871e-01  4.2245055625871941e-01  4.2220043905640287e-01  4.2194460639087406e-01  4.2168291571678995e-01  4.2141525008757397e-01  4.2114151405834294e-01  4.2086164478719590e-01  4.2057560212468970e-01  4.2028338008901395e-01  4.1998499235150283e-01  4.1968048242231010e-01  4.1936991025421289e-01  4.1905336091684225e-01  4.1873093186761734e-01  4.1840273933404365e-01  4.1806890588362583e-01  4.1772957008822653e-01  4.1738487057701562e-01  4.1703495637037341e-01  4.1667997403336932e-01  4.1632007849004277e-01  4.1595542051558693e-01  4.1558615489672968e-01  4.1521242884481707e-01  4.1483439468203359e-01  4.1445219431278169e-01  4.1406597159712144e-01  4.1367586075818974e-01  4.1328199864218379e-01  4.1288451387645120e-01  4.1248353563839485e-01  4.1207918428966078e-01  4.1167158354734129e-01  4.1126084704845317e-01  4.1084709061505170e-01  4.1043042117148498e-01  4.1001094993194087e-01  4.0958878135327303e-01  4.0916402303704613e-01  4.0873677513506901e-01  4.0830714426082781e-01  4.0787522905958035e-01  4.0744113318251701e-01  4.0700495445158319e-01  4.0656679740051510e-01  4.0612676301682255e-01  4.0568495764820739e-01  4.0524148339541999e-01  4.0479645044212959e-01  4.0434996349750035e-01  4.0390213429309124e-01  4.0345306981784951e-01  4.0300288533136536e-01  4.0255169277966557e-01  4.0209961073036055e-01  4.0164675317273679e-01  4.0119324280777585e-01  4.0073919629507959e-01  4.0028473653260355e-01  3.9982998141186327e-01  3.9937505559825853e-01  3.9892007984973293e-01  3.9846517940837051e-01  3.9801047383355481e-01  3.9755608885340155e-01  3.9710214215848755e-01  3.9664875573893599e-01  3.9619604352608823e-01  3.9574412402182935e-01  3.9529310840171866e-01  3.9484311005673528e-01  3.9439423322412287e-01  3.9394658580278152e-01  3.9350026460277793e-01  3.9305536726890655e-01  3.9261198108482881e-01  3.9217019445276896e-01  3.9173008633139850e-01  3.9129173453329841e-01  3.9085520563072063e-01  3.9042056686914878e-01  3.8998787200892504e-01  3.8955717394446615e-01  3.8912851243576146e-01  3.8870192702238521e-01  3.8827744532213043e-01  3.8785509294240411e-01  3.8743488241695673e-01  3.8701682635115586e-01  3.8660092302911031e-01  3.8618716879510845e-01  3.8577554729036989e-01  3.8536604130456592e-01  3.8495862277760201e-01  3.8455326146826307e-01  3.8414991554979599e-01  3.8374854374633283e-01  3.8334909198097517e-01  3.8295150625522001e-01  3.8255572104609742e-01  3.8216167249242228e-01  3.8176928742039190e-01  3.8137849358279918e-01  3.8098920916342133e-01  3.8060135606402090e-01  3.8021484627357599e-01  3.7982959443819470e-01  3.7944550744711320e-01  3.7906249635197753e-01  3.7868046695777968e-01  3.7829932873423444e-01  3.7791898543767261e-01  3.7753934710829390e-01  3.7716031717455928e-01  3.7678180544853723e-01  3.7640371624086544e-01  3.7602596118317061e-01  3.7564844872355169e-01  3.7527109437689016e-01  3.7489380980567827e-01  3.7451651543403863e-01  3.7413912713410791e-01  3.7376156884752115e-01  3.7338376140979207e-01  3.7300563390267871e-01  3.7262711412346639e-01  3.7224813768376896e-01  3.7186863776706680e-01  3.7148855670126174e-01  3.7110783256330193e-01  3.7072641192964323e-01  3.7034423887095785e-01  3.6996126585099764e-01  3.6957744406801935e-01  3.6919273150484072e-01  3.6880708432769338e-01  3.6842046752994057e-01  3.6803284216452908e-01  3.6764417629051577e-01  3.6725443526715440e-01  3.6686359261933577e-01  3.6647161981721293e-01  3.6607849405841286e-01  3.6568418963057608e-01  3.6528868969559791e-01  3.6489197226545678e-01  3.6449402127090474e-01  3.6409481694123108e-01  3.6369434716511995e-01  3.6329259746488862e-01  3.6288955800144074e-01  3.6248521539751843e-01  3.6207956394347157e-01  3.6167259268266000e-01  3.6126429624679190e-01  3.6085466437983216e-01  3.6044369397741899e-01  3.6003137828178877e-01  3.5961771542771942e-01  3.5920269865871091e-01  3.5878632858813725e-01  3.5836859988708841e-01  3.5794951216255572e-01  3.5752906026895653e-01  3.5710724503589913e-01  3.5668406398674135e-01  3.5625951873698730e-01  3.5583360637402939e-01  3.5540633034063923e-01  3.5497768795282142e-01  3.5454768168557727e-01  3.5411630848594650e-01  3.5368357142034068e-01  3.5324946931736773e-01  3.5281400549114805e-01  3.5237717807810220e-01  3.5193899175633736e-01  3.5149944489596718e-01  3.5105854035687628e-01  3.5061627610487811e-01  3.5017265550183990e-01  3.4972767837989216e-01  3.4928134826294666e-01  3.4883366410519828e-01  3.4838463093055111e-01  3.4793424748705132e-01  3.4748251741521019e-01  3.4702943870819158e-01  3.4657501535154595e-01  3.4611924700912761e-01  3.4566213760469222e-01  3.4520368596062084e-01  3.4474389728957250e-01  3.4428277061650941e-01  3.4382030920025741e-01  3.4335651155400926e-01  3.4289138141341047e-01  3.4242491916494383e-01  3.4195712857743416e-01  3.4148800919206823e-01  3.4101756636209385e-01  3.4054579957473002e-01  3.4007271285910073e-01  3.3959830490850362e-01  3.3912258019563934e-01  3.3864553915202295e-01  3.3816718619044500e-01  3.3768752096760862e-01  3.3720654927409488e-01  3.3672427115688713e-01  3.3624069059674372e-01  3.3575580718231407e-01  3.3526962552293299e-01  3.3478214714881388e-01  3.3429337676018983e-01  3.3380331511565281e-01  3.3331196865563140e-01  3.3281933822113940e-01  3.3232542896272971e-01  3.3183024090623275e-01  3.3133377963523220e-01  3.3083604700419506e-01  3.3033704858420904e-01  3.2983678568339325e-01  3.2933526538994928e-01  3.2883248960110384e-01  3.2832846400744370e-01  3.2782319008537797e-01  3.2731667422407468e-01  3.2680891989238109e-01  3.2629993388168849e-01  3.2578971902914566e-01  3.2527828361089178e-01  3.2476563062784813e-01  3.2425176718632470e-01  3.2373669597579929e-01  3.2322042457490902e-01  3.2270295749964772e-01  3.2218430244810825e-01  3.2166446367369095e-01  3.2114345064505201e-01  3.2062126816941844e-01  3.2009792447811902e-01  3.1957342411828621e-01  3.1904777625522462e-01  3.1852098730189382e-01  3.1799306620094214e-01  3.1746401888036835e-01  3.1693385652802042e-01  3.1640258560100676e-01  3.1587021548565825e-01  3.1533675205764022e-01  3.1480220576195361e-01  3.1426658476925656e-01  3.1372989929628703e-01  3.1319215720018129e-01  3.1265337111054253e-01  3.1211354993834295e-01  3.1157270536417370e-01  3.1103084567210193e-01  3.1048798380135456e-01  3.0994413020102834e-01  3.0939929766459806e-01  3.0885349595608635e-01  3.0830673983228535e-01  3.0775904017911987e-01  3.0721041046195108e-01  3.0666086135394172e-01  3.0611040757862668e-01  3.0555906211415329e-01  3.0500683977483606e-01  3.0445375316350320e-01  3.0389981936531540e-01  3.0334505199615497e-01  3.0278946747151447e-01  3.0223307901841412e-01  3.0167590431133895e-01  3.0111795881785547e-01  3.0055926029153246e-01  2.9999982401705050e-01  2.9943966971895863e-01  2.9887881406315209e-01  2.9831727581549400e-01  2.9775507178100208e-01  2.9719222220293190e-01  2.9662874622319224e-01  2.9606466433738216e-01  2.9549999553262868e-01  2.9493476283856618e-01  2.9436898641248277e-01  2.9380268879655647e-01  2.9323588988698968e-01  2.9266861370472258e-01  2.9210088246820687e-01  2.9153272028243488e-01  2.9096414945459853e-01  2.9039519632236943e-01  2.8982588482309124e-01  2.8925624050255405e-01  2.8868628764320903e-01  2.8811605353318837e-01  2.8754556493771877e-01  2.8697484933104328e-01  2.8640393355518745e-01  2.8583284791726521e-01  2.8526162079781547e-01  2.8469028220028075e-01  2.8411886027921029e-01  2.8354738680043540e-01  2.8297589238354565e-01  2.8240440882728191e-01  2.8183296697003984e-01  2.8126160097638359e-01  2.8069034364953960e-01  2.8011922859551613e-01  2.7954828894714301e-01  2.7897756018696929e-01  2.7840707793881053e-01  2.7783687781180622e-01  2.7726699561769474e-01  2.7669746987922711e-01  2.7612833817964882e-01  2.7555963880098239e-01  2.7499140885740769e-01  2.7442368825487568e-01  2.7385651645912001e-01  2.7328993330528900e-01  2.7272397856972597e-01  2.7215869445294427e-01  2.7159412278774031e-01  2.7103030545697981e-01  2.7046728429997141e-01  2.6990510288071090e-01  2.6934380510494599e-01  2.6878343409295896e-01  2.6822403374379850e-01  2.6766564940753884e-01  2.6710832661804301e-01  2.6655211005414614e-01  2.6599704500398330e-01  2.6544317746601848e-01  2.6489055430767866e-01  2.6433922061761783e-01  2.6378922343448091e-01  2.6324061006450555e-01  2.6269342907444526e-01  2.6214772729816982e-01  2.6160355275642444e-01  2.6106095371740262e-01  2.6051997932126636e-01  2.5998067685086418e-01  2.5944309487985101e-0