<?xml version="1.0"?>
<VTKFile type="UnstructuredGrid"  version="0.1"  >
<UnstructuredGrid>
<Piece  NumberOfPoints="28121" NumberOfCells="55200">
<Points>
<DataArray  type="Float64"  NumberOfComponents="3"  format="ascii">0 0 0  0.008260869565217391 0 0  0.01652173913043478 0 0  0.02478260869565217 0 0  0.03304347826086956 0 0  0.04130434782608695 0 0  0.04956521739130434 0 0  0.05782608695652174 0 0  0.06608695652173913 0 0  0.07434782608695652 0 0  0.08260869565217391 0 0  0.0908695652173913 0 0  0.09913043478260869 0 0  0.1073913043478261 0 0  0.1156521739130435 0 0  0.1239130434782609 0 0  0.1321739130434783 0 0  0.1404347826086956 0 0  0.148695652173913 0 0  0.1569565217391304 0 0  0.1652173913043478 0 0  0.1734782608695652 0 0  0.1817391304347826 0 0  0.19 0 0  0.1982608695652174 0 0  0.2065217391304348 0 0  0.2147826086956522 0 0  0.2230434782608696 0 0  0.2313043478260869 0 0  0.2395652173913043 0 0  0.2478260869565218 0 0  0.2560869565217391 0 0  0.2643478260869565 0 0  0.2726086956521739 0 0  0.2808695652173913 0 0  0.2891304347826087 0 0  0.2973913043478261 0 0  0.3056521739130434 0 0  0.3139130434782609 0 0  0.3221739130434783 0 0  0.3304347826086956 0 0  0.338695652173913 0 0  0.3469565217391304 0 0  0.3552173913043478 0 0  0.3634782608695652 0 0  0.3717391304347826 0 0  0.3799999999999999 0 0  0.3882608695652174 0 0  0.3965217391304348 0 0  0.4047826086956521 0 0  0.4130434782608696 0 0  0.4213043478260869 0 0  0.4295652173913043 0 0  0.4378260869565217 0 0  0.4460869565217391 0 0  0.4543478260869565 0 0  0.4626086956521739 0 0  0.4708695652173913 0 0  0.4791304347826086 0 0  0.4873913043478261 0 0  0.4956521739130435 0 0  0.5039130434782608 0 0  0.5121739130434783 0 0  0.5204347826086956 0 0  0.528695652173913 0 0  0.5369565217391304 0 0  0.5452173913043478 0 0  0.5534782608695652 0 0  0.5617391304347825 0 0  0.57 0 0  0.5782608695652174 0 0  0.5865217391304348 0 0  0.5947826086956521 0 0  0.6030434782608696 0 0  0.6113043478260869 0 0  0.6195652173913043 0 0  0.6278260869565218 0 0  0.6360869565217391 0 0  0.6443478260869565 0 0  0.6526086956521739 0 0  0.6608695652173913 0 0  0.6691304347826087 0 0  0.677391304347826 0 0  0.6856521739130435 0 0  0.6939130434782609 0 0  0.7021739130434783 0 0  0.7104347826086956 0 0  0.718695652173913 0 0  0.7269565217391304 0 0  0.7352173913043478 0 0  0.7434782608695653 0 0  0.7517391304347827 0 0  0.7599999999999999 0 0  0.7682608695652173 0 0  0.7765217391304348 0 0  0.7847826086956522 0 0  0.7930434782608695 0 0  0.8013043478260868 0 0  0.8095652173913043 0 0  0.8178260869565217 0 0  0.8260869565217391 0 0  0.8343478260869565 0 0  0.8426086956521739 0 0  0.8508695652173912 0 0  0.8591304347826086 0 0  0.8673913043478261 0 0  0.8756521739130434 0 0  0.8839130434782608 0 0  0.8921739130434783 0 0  0.9004347826086956 0 0  0.908695652173913 0 0  0.9169565217391303 0 0  0.9252173913043478 0 0  0.9334782608695652 0 0  0.9417391304347826 0 0  0.95 0 0  0.9582608695652173 0 0  0.9665217391304347 0 0  0.9747826086956521 0 0  0.9830434782608696 0 0  0.991304347826087 0 0  0.9995652173913042 0 0  1.007826086956522 0 0  1.016086956521739 0 0  1.024347826086957 0 0  1.032608695652174 0 0  1.040869565217391 0 0  1.049130434782609 0 0  1.057391304347826 0 0  1.065652173913043 0 0  1.073913043478261 0 0  1.082173913043478 0 0  1.090434782608696 0 0  1.098695652173913 0 0  1.10695652173913 0 0  1.115217391304348 0 0  1.123478260869565 0 0  1.131739130434783 0 0  1.14 0 0  1.148260869565217 0 0  1.156521739130435 0 0  1.164782608695652 0 0  1.17304347826087 0 0  1.181304347826087 0 0  1.189565217391304 0 0  1.197826086956522 0 0  1.206086956521739 0 0  1.214347826086956 0 0  1.222608695652174 0 0  1.230869565217391 0 0  1.239130434782609 0 0  1.247391304347826 0 0  1.255652173913044 0 0  1.263913043478261 0 0  1.272173913043478 0 0  1.280434782608696 0 0  1.288695652173913 0 0  1.296956521739131 0 0  1.305217391304348 0 0  1.313478260869565 0 0  1.321739130434783 0 0  1.33 0 0  1.338260869565217 0 0  1.346521739130435 0 0  1.354782608695652 0 0  1.36304347826087 0 0  1.371304347826087 0 0  1.379565217391304 0 0  1.387826086956522 0 0  1.396086956521739 0 0  1.404347826086957 0 0  1.412608695652174 0 0  1.420869565217391 0 0  1.429130434782609 0 0  1.437391304347826 0 0  1.445652173913043 0 0  1.453913043478261 0 0  1.462173913043478 0 0  1.470434782608696 0 0  1.478695652173913 0 0  1.486956521739131 0 0  1.495217391304348 0 0  1.503478260869565 0 0  1.511739130434782 0 0  1.52 0 0  1.528260869565217 0 0  1.536521739130435 0 0  1.544782608695652 0 0  1.55304347826087 0 0  1.561304347826087 0 0  1.569565217391304 0 0  1.577826086956522 0 0  1.586086956521739 0 0  1.594347826086957 0 0  1.602608695652174 0 0  1.610869565217391 0 0  1.619130434782609 0 0  1.627391304347826 0 0  1.635652173913043 0 0  1.643913043478261 0 0  1.652173913043478 0 0  1.660434782608696 0 0  1.668695652173913 0 0  1.67695652173913 0 0  1.685217391304348 0 0  1.693478260869565 0 0  1.701739130434782 0 0  1.71 0 0  1.718260869565217 0 0  1.726521739130435 0 0  1.734782608695652 0 0  1.743043478260869 0 0  1.751304347826087 0 0  1.759565217391304 0 0  1.767826086956522 0 0  1.776086956521739 0 0  1.784347826086957 0 0  1.792608695652174 0 0  1.800869565217391 0 0  1.809130434782608 0 0  1.817391304347826 0 0  1.825652173913043 0 0  1.833913043478261 0 0  1.842173913043478 0 0  1.850434782608696 0 0  1.858695652173913 0 0  1.86695652173913 0 0  1.875217391304348 0 0  1.883478260869565 0 0  1.891739130434782 0 0  1.9 0 0  1.908260869565217 0 0  1.916521739130435 0 0  1.924782608695652 0 0  1.933043478260869 0 0  1.941304347826087 0 0  1.949565217391304 0 0  1.957826086956522 0 0  1.966086956521739 0 0  1.974347826086956 0 0  1.982608695652174 0 0  1.990869565217391 0 0  1.999130434782608 0 0  2.007391304347826 0 0  2.015652173913043 0 0  2.023913043478261 0 0  2.032173913043478 0 0  2.040434782608695 0 0  2.048695652173913 0 0  2.05695652173913 0 0  2.065217391304348 0 0  2.073478260869565 0 0  2.081739130434782 0 0  2.09 0 0  2.098260869565217 0 0  2.106521739130435 0 0  2.114782608695652 0 0  2.12304347826087 0 0  2.131304347826087 0 0  2.139565217391304 0 0  2.147826086956522 0 0  2.156086956521739 0 0  2.164347826086956 0 0  2.172608695652174 0 0  2.180869565217391 0 0  2.189130434782609 0 0  2.197391304347826 0 0  2.205652173913043 0 0  2.213913043478261 0 0  2.222173913043478 0 0  2.230434782608695 0 0  2.238695652173913 0 0  2.24695652173913 0 0  2.255217391304348 0 0  2.263478260869565 0 0  2.271739130434783 0 0  2.28 0 0  2.288260869565217 0 0  2.296521739130434 0 0  2.304782608695652 0 0  2.31304347826087 0 0  2.321304347826087 0 0  2.329565217391304 0 0  2.337826086956521 0 0  2.346086956521739 0 0  2.354347826086956 0 0  2.362608695652174 0 0  2.370869565217391 0 0  2.379130434782609 0 0  2.387391304347826 0 0  2.395652173913044 0 0  2.403913043478261 0 0  2.412173913043478 0 0  2.420434782608695 0 0  2.428695652173913 0 0  2.43695652173913 0 0  2.445217391304348 0 0  2.453478260869565 0 0  2.461739130434782 0 0  2.47 0 0  2.478260869565217 0 0  2.486521739130435 0 0  2.494782608695652 0 0  2.503043478260869 0 0  2.511304347826087 0 0  2.519565217391305 0 0  2.527826086956522 0 0  2.536086956521739 0 0  2.544347826086956 0 0  2.552608695652174 0 0  2.560869565217391 0 0  2.569130434782608 0 0  2.577391304347826 0 0  2.585652173913043 0 0  2.593913043478261 0 0  2.602173913043478 0 0  2.610434782608696 0 0  2.618695652173913 0 0  2.62695652173913 0 0  2.635217391304348 0 0  2.643478260869565 0 0  2.651739130434783 0 0  2.66 0 0  2.668260869565217 0 0  2.676521739130435 0 0  2.684782608695652 0 0  2.693043478260869 0 0  2.701304347826087 0 0  2.709565217391304 0 0  2.717826086956522 0 0  2.726086956521739 0 0  2.734347826086956 0 0  2.742608695652174 0 0  2.750869565217391 0 0  2.759130434782609 0 0  2.767391304347826 0 0  2.775652173913044 0 0  2.783913043478261 0 0  2.792173913043478 0 0  2.800434782608696 0 0  2.808695652173913 0 0  2.81695652173913 0 0  2.825217391304347 0 0  2.833478260869565 0 0  2.841739130434783 0 0  2.85 0 0  2.858260869565217 0 0  2.866521739130435 0 0  2.874782608695652 0 0  2.88304347826087 0 0  2.891304347826087 0 0  2.899565217391304 0 0  2.907826086956522 0 0  2.916086956521739 0 0  2.924347826086957 0 0  2.932608695652174 0 0  2.940869565217391 0 0  2.949130434782608 0 0  2.957391304347826 0 0  2.965652173913043 0 0  2.973913043478261 0 0  2.982173913043478 0 0  2.990434782608696 0 0  2.998695652173913 0 0  3.006956521739131 0 0  3.015217391304348 0 0  3.023478260869565 0 0  3.031739130434782 0 0  3.04 0 0  3.048260869565218 0 0  3.056521739130435 0 0  3.064782608695652 0 0  3.073043478260869 0 0  3.081304347826087 0 0  3.089565217391304 0 0  3.097826086956522 0 0  3.106086956521739 0 0  3.114347826086956 0 0  3.122608695652174 0 0  3.130869565217391 0 0  3.139130434782609 0 0  3.147391304347826 0 0  3.155652173913043 0 0  3.163913043478261 0 0  3.172173913043478 0 0  3.180434782608696 0 0  3.188695652173913 0 0  3.19695652173913 0 0  3.205217391304347 0 0  3.213478260869565 0 0  3.221739130434782 0 0  3.23 0 0  3.238260869565217 0 0  3.246521739130435 0 0  3.254782608695652 0 0  3.26304347826087 0 0  3.271304347826087 0 0  3.279565217391304 0 0  3.287826086956521 0 0  3.296086956521739 0 0  3.304347826086957 0 0  3.312608695652174 0 0  3.320869565217391 0 0  3.329130434782608 0 0  3.337391304347826 0 0  3.345652173913043 0 0  3.353913043478261 0 0  3.362173913043478 0 0  3.370434782608696 0 0  3.378695652173913 0 0  3.386956521739131 0 0  3.395217391304348 0 0  3.403478260869565 0 0  3.411739130434782 0 0  3.419999999999999 0 0  3.428260869565217 0 0  3.436521739130435 0 0  3.444782608695652 0 0  3.453043478260869 0 0  3.461304347826087 0 0  3.469565217391304 0 0  3.477826086956522 0 0  3.486086956521739 0 0  3.494347826086956 0 0  3.502608695652174 0 0  3.510869565217391 0 0  3.519130434782609 0 0  3.527391304347826 0 0  3.535652173913043 0 0  3.54391304347826
[...]
<PointData  Scalars="rho"> 
<DataArray  type="Float64"  Name="rho"  format="ascii">9.9989965537677949e-01  9.9984970931238759e-01  9.9984889282599576e-01  9.9984769298537235e-01  9.9984609933302571e-01  9.9984411833865250e-01  9.9984176443282380e-01  9.9983905700838527e-01  9.9983601945728451e-01  9.9983267850310120e-01  9.9982906389966431e-01  9.9982520822839904e-01  9.9982114698528535e-01  9.9981691888607693e-01  9.9981256645498606e-01  9.9980813684468384e-01  9.9980368270386843e-01  9.9979926314133738e-01  9.9979494433074179e-01  9.9979079988437225e-01  9.9978691062615199e-01  9.9978336370893017e-01  9.9978025068952370e-01  9.9977766463066875e-01  9.9977569603701544e-01  9.9977442814136996e-01  9.9977393138281800e-01  9.9977425784540253e-01  9.9977543580964412e-01  9.9977746549356539e-01  9.9978031635017506e-01  9.9978392674800154e-01  9.9978820605023566e-01  9.9979303960702115e-01  9.9979829596077019e-01  9.9980383565617492e-01  9.9980952015517310e-01  9.9981521988544197e-01  9.9982082036823272e-01  9.9982622607425364e-01  9.9983136195187416e-01  9.9983617323685103e-01  9.9984062394145368e-01  9.9984469448515600e-01  9.9984837887939937e-01  9.9985168191910967e-01  9.9985461679098808e-01  9.9985720310655057e-01  9.9985946537558068e-01  9.9986143173478592e-01  9.9986313287891615e-01  9.9986460112895537e-01  9.9986586971428248e-01  9.9986697225136933e-01  9.9986794247046673e-01  9.9986881410916706e-01  9.9986962092806686e-01  9.9987039682202528e-01  9.9987117588892183e-01  9.9987199245765934e-01  9.9987288107012828e-01  9.9987387635270386e-01  9.9987501286425107e-01  9.9987632471709786e-01  9.9987784505513200e-01  9.9980075227848753e-01  9.9984240168296723e-01  9.9921917542221639e-01  9.9010461348910750e-01  9.7681968500323946e-01  9.7260473623473320e-01  9.6997063368509728e-01  9.5370458342215436e-01  9.5587934904607808e-01  9.5958547359983726e-01  9.6959136068181195e-01  9.6683455262675733e-01  9.6913165528375578e-01  9.7491464575852782e-01  9.7910345370047169e-01  9.7886600985377936e-01  9.7745273561526169e-01  9.7491073280584406e-01  9.7100898621499798e-01  9.6189168280921489e-01  9.5366721679636945e-01  9.4491207873601135e-01  9.3586892953664091e-01  9.2616422480393268e-01  9.1426773586625276e-01  9.3047591270491803e-01  9.0178653369839545e-01  8.3699338301279702e-01  8.4780626083246735e-01  8.6485155069930353e-01  8.8567514858316554e-01  9.2820037498113006e-01  9.9409362604149865e-01  9.9982284756425355e-01  9.9982611383998055e-01  9.9983054882321365e-01  9.9983588174970994e-01  9.9984185821724436e-01  9.9984824964026886e-01  9.9985485777340077e-01  9.9986151519242505e-01  9.9986808342097411e-01  9.9987445194011426e-01  9.9988053828025480e-01  9.9988628816277947e-01  9.9989167398429490e-01  9.9989669158516303e-01  9.9990135578572292e-01  9.9990569577646760e-01  9.9990975073844923e-01  9.9991356604528192e-01  9.9991718981466404e-01  9.9992066983191075e-01  9.9992405068630419e-01  9.9992737121355690e-01  9.9993066234227823e-01  9.9993394544881087e-01  9.9993723121563050e-01  9.9994051907798676e-01  9.9994379751675644e-01  9.9994704563593628e-01  9.9995023603611954e-01  9.9995333852014034e-01  9.9995632363822640e-01  9.9995916524523332e-01  9.9996184160588397e-01  9.9996433528137951e-01  9.9996663226767313e-01  9.9996872096744061e-01  9.9997059131992050e-01  9.9997223425726667e-01  9.9997364133199973e-01  9.9997480444305886e-01  9.9997571551936959e-01  9.9997636621249519e-01  9.9997674763055899e-01  9.9997685026296956e-01  9.9997666416674391e-01  9.9997617950216744e-01  9.9997538727714697e-01  9.9997428013350131e-01  9.9997285294202587e-01  9.9997110346382390e-01  9.9996903336965581e-01  9.9996664973987148e-01  9.9996396659009457e-01  9.9996100579572023e-01  9.9995779689336362e-01  9.9995437584691371e-01  9.9995078298055151e-01  9.9994706057361515e-01  9.9994325042510779e-01  9.9993939159070122e-01  9.9993551834620109e-01  9.9993165852811672e-01  9.9992783243667738e-01  9.9992405263409112e-01  9.9992032451086654e-01  9.9991664730522778e-01  9.9991301509708386e-01  9.9990941741411987e-01  9.9990583936778499e-01  9.9990226145410244e-01  9.9989865908616327e-01  9.9989500227809114e-01  9.9989125532457590e-01  9.9988737678411144e-01  9.9988331983091616e-01  9.9987903367756759e-01  9.9987446684027759e-01  9.9986957364653140e-01  9.9986432534786662e-01  9.9985872720796964e-01  9.9985284056081103e-01  9.9984680824077399e-01  8.8115671681057750e-01  8.4614853794307865e-01  8.2081007620108426e-01  8.8689366162448879e-01  8.7395190976338177e-01  8.6747241381999618e-01  8.8514980196757032e-01  8.8306465126553768e-01  8.8819481440356596e-01  9.1923243881720718e-01  9.3487270777494846e-01  9.4937990044015608e-01  9.7098822968596643e-01  9.7962193802052655e-01  9.8648156567168344e-01  9.8974205938165893e-01  9.9164259735397686e-01  9.9695660773759665e-01  9.9856125352554903e-01  9.9841494819212684e-01  9.9708860168886904e-01  9.9476111593778027e-01  9.8969665830797238e-01  9.8701961109552827e-01  9.8548179981359663e-01  9.7960434541354979e-01  9.7462901158969095e-01  9.7078852368435786e-01  9.6864580099252529e-01  9.6888859069581179e-01  9.7163898740752863e-01  9.7707810064989331e-01  9.8188551268039370e-01  9.8950281298456322e-01  9.9958259299025920e-01  9.9975837377704035e-01  9.9984338454606581e-01  9.9989919986470743e-01  9.9990363238884072e-01  9.9990807062050613e-01  9.9991228849467795e-01  9.9991608246545882e-01  9.9991928189793711e-01  9.9992175787755266e-01  9.9992343005539486e-01  9.9992427134277362e-01  9.9992430983375546e-01  9.9992362774866494e-01  9.9992235680819219e-01  9.9992067003486840e-01  9.9991877001330298e-01  9.9991687428182907e-01  9.9991519850619426e-01  9.9991393848628174e-01  9.9991325206326342e-01  9.9991324311250118e-01  9.9991394992013316e-01  9.9991534041497110e-01  9.9991731516691940e-01  9.9991971791847722e-01  9.9992235162998355e-01  9.9992499800810408e-01  9.9992743786026561e-01  9.9992947061346682e-01  9.9993093149957057e-01  9.9993170530932463e-01  9.9993173569907368e-01  9.9993102949372381e-01  9.9992965595735572e-01  9.9992774246950344e-01  9.9992546815708072e-01  9.9992305693064010e-01  9.9992076954402898e-01  9.9991889413891477e-01  9.9990699277144046e-01  9.9978657686822270e-01  9.9968468552217704e-01  9.8463638257447261e-01  9.7725391515643167e-01  9.8243091910697589e-01  9.7966078815721813e-01  9.7716728315583867e-01  9.7598011877552981e-01  9.7491184448596790e-01  9.6532145335662745e-01  9.6700411309925172e-01  9.6923024609508734e-01  9.7114655509330250e-01  9.7245883275583633e-01  9.7243984954107343e-01  9.7189912685220536e-01  9.7026284787378836e-01  9.6746213603073838e-01  9.6351424883924885e-01  9.5826898912594094e-01  9.5210963394075132e-01  9.4608390675375709e-01  8.9422916653603446e-01  8.7183173558765614e-01  8.6018163863197517e-01  8.5087182055214317e-01  8.4487562768288282e-01  8.4321102497523970e-01  8.4937295777969601e-01  8.5848522265823213e-01  8.8288659580943507e-01  8.9531490772812394e-01  9.1215122166414231e-01  9.8947327529968410e-01  1.0000000000000000e+00  1.0000000000000000e+00  1.0000000000000000e+00  1.0000000000000000e+00  1.0000000000000000e+00  1.0000000000000000e+00  1.0000000000000000e+00  1.0000000000000000e+00  1.0000000000000000e+00  1.0000000000000000e+00  1.0000000000000000e+00  1.0000000000000000e+00  1.0000000000000000e+00  1.0000000000000000e+00  1.0000000000000000e+00  1.0000000000000000e+00  1.0000000000000000e+00  1.0000000000000000e+00  1.0000000000000000e+00  1.0000000000000000e+00  1.0000000000000000e+00  1.0000000000000000e+00  1.0000000000000000e+00  1.0000000000000000e+00  1.0000000000000000e+00  1.0000000000000000e+00  1.0000000000000000e+00  1.0000000000000000e+00  1.0000000000000000e+00  1.0000000000000000e+00  1.0000000000000000e+00  1.0000000000000000e+00  1.0000000000000000e+00  1.0000000000000000e+00  1.0000000000000000e+00  1.0000000000000000e+00  1.0000000000000000e+00  1.0000000000000000e+00  1.0000000000000000e+00  1.0000000000000000e+00  1.0000000000000000e+00  1.0000000000000000e+00  1.0000000000000000e+00  1.0000000000000000e+00  1.0000000000000000e+00  1.0000000000000000e+00  9.6829679402041080e-01  9.5689380421829606e-01  9.4885310183808314e-01  9.4485671520737324e-01  9.4212493442169232e-01  9.4045076136029093e-01  8.8449851467338447e-01  6.7726527540226467e-01  6.7686710213048207e-01  8.0132232491046207e-01  7.9597997874268500e-01  8.4486831742452639e-01  8.4043639449913532e-01  8.3549513263401320e-01  9.5905679232629049e-01  9.6396770311517699e-01  9.6869008384215882e-01  9.7297826315721858e-01  9.7690039468976397e-01  9.8056201792883568e-01  9.8087494534960451e-01  9.8019467914921232e-01  9.7874641184699618e-01  8.4657178906976693e-01  8.2653485761714673e-01  8.0628505486606195e-01  7.9641959238760218e-01  7.8212676821240779e-01  7.6592943763230814e-01  7.4001746303828553e-01  8.0240850241327044e-01  7.6971423154578156e-01  7.6533005714964375e-01  7.3607083513747185e-01  6.1246951272912376e-01  5.7742585582864203e-01  5.3197580591401372e-01  6.3013812408448266e-01  6.5044264825870324e-01  5.4619904483708204e-01  5.3406509909399802e-01  5.3302019378240506e-01  6.1393212200818159e-01  5.7022293834381066e-01  6.2331952033672744e-01  5.8158404569104172e-01  4.9692391136741365e-01  3.8519559427869221e-01  2.1826949375451118e-01  1.4656197362668719e-01  8.6663772354239221e-02  4.2445033779416372e-02  3.2755335557879107e-02  2.0301374800860281e-02  2.7742898482457706e-03  2.7104611726322687e-03  2.6436729925522766e-03  2.5761401038281915e-03  2.5070374148678095e-03  2.4346853552825423e-03  2.3578012532878430e-03  2.2758774397159771e-03  2.1890866741099981e-03  2.0980581732177529e-03  2.0036761459403924e-03  1.9069348893228060e-03  1.8088437823349367e-03  1.7103675067916301e-03  1.6123903048389594e-03  1.5156969496239541e-03  1.4209643900420833e-03  1.3287604173565296e-03  1.2395468042485829e-03  1.1536866467973463e-03  1.0714527836514492e-03  9.9303756266341434e-04  9.1856214030189439e-04  8.4808691091951762e-04  7.8162068346350434e-04  7.1912921003199125e-04  6.6054293467565693e-04  6.0576414734240960e-04  5.5467313651177518e-04  5.0713341846035491e-04  4.6299584306669687e-04  4.2210294029550502e-04  3.8429216600526883e-04  3.4939830764978445e-04  3.1725591561466288e-04  2.8770087966792205e-04  2.6057235122117946e-04  2.3571335847350430e-04  2.1297173311078096e-04  1.9220081420957350e-04  1.7326017179801907e-04  1.5601565589277113e-04  1.4033971519615830e-04  1.2611142156844182e-04  1.1321685457226489e-04  1.0154871825492908e-04  9.1006326196338254e-05  8.1495445495332659e-05  7.2928215265625438e-05  6.5222877452813486e-05  5.8303551336613165e-05  5.2099994969148267e-05  4.6547422085340800e-05  4.1586190472118124e-05  3.7161580179467652e-05  3.3223500039847545e-05  2.9726235432393561e-05  2.6628218466475667e-05  2.3891808606870425e-05  2.1483031953927366e-05  1.9371359201309398e-05  1.7529517233275932e-05  1.5933319737891506e-05  1.4561465932320161e-05  1.3395372426286529e-05  1.2419052717825247e-05  1.1619003272828059e-05  1.0984116606456594e-05  1.0505633074798369e-05  1.0177229285701466e-05  9.9954400384731973e-06  3.3172098661826057e-06  9.9984837272561400e-01  9.9970055497243115e-01  9.9969911036284287e-01  9.9969686745715070e-01  9.9969382830731501e-01  9.9969001114933709e-01  9.9968544543632176e-01  9.9968016991480380e-01  9.9967423083011431e-01  9.9966768114103477e-01  9.9966057960367893e-01  9.9965299040296962e-01  9.9964498308029381e-01  9.9963663310548678e-01  9.9962802296293585e-01  9.9961924373967626e-01  9.9961039712727207e-01  9.9960159726150966e-01  9.9959297243954026e-01  9.9958466593800066e-01  9.9957683615226800e-01  9.9956965521027608e-01  9.9956330577953689e-01  9.9955797540208036e-01  9.9955384887764454e-01  9.9955109857056668e-01  9.9954987366450887e-01  9.9955028816463354e-01  9.9955240959968783e-01  9.9955624925333053e-01  9.9956175598655961e-01  9.9956881420315369e-01  9.9957724750782073e-01  9.9958682787867092e-01  9.9959729051701951e-01  9.9960835182401397e-01  9.9961972853764158e-01  9.9963115482611553e-01  9.9964239551968759e-01  9.9965325419086737e-01  9.9966357654790383e-01  9.9967324994444517e-01  9.9968220035628397e-01  9.9969038742533878e-01  9.9969779851139795e-01  9.9970444280469895e-01  9.9971034624664890e-01  9.9971554765386417e-01  9.9972009565652165e-01  9.9972404624314637e-01  9.9972746057339013e-01  9.9973040308237071e-01  9.9973293991650658e-01  9.9973513787940682e-01  9.9973706379884530e-01  9.9973878433110608e-01  9.9974036605268879e-01  9.9974187566552963e-01  9.9974338024828591e-01  9.9974494734856401e-01  9.9974664495005416e-01  9.9974854137171498e-01  9.9975070494509966e-01  9.9975320367183440e-01  9.9975610438403084e-01  9.9959576753366530e-01  9.9957766277274529e-01  9.9319696525958523e-01  9.7968768890082225e-01  9.6015783523571308e-01  9.5239061345723297e-01  9.4851804104280890e-01  9.3191786750937278e-01  9.3559677216836523e-01  9.4159421359332207e-01  9.5721572557167378e-01  9.5204671686742959e-01  9.5641165719261267e-01  9.6371754616670535e-01  9.6638061065697478e-01  9.6611961470675489e-01  9.6392917521221200e-01  9.6040035032035886e-01  9.5486737021031953e-01  9.4283617584156321e-01  9.3057127742753798e-01  9.1726050481964838e-01  9.0161667365858544e-01  8.8789913591001279e-01  8.7614141187907446e-01  8.9344560523674899e-01  8.5129414504092382e-01  8.4740047291006526e-01  7.5505305143421586e-01  7.8412335499402563e-01  8.1724946727373804e-01  8.5943093797067749e-01  8.3862324111696729e-01  9.9964731176639743e-01  9.9965359747044280e-01  9.9966227694365473e-01  9.9967280187231955e-01  9.9968465735495449e-01  9.9969737946614035e-01  9.9971056575937933e-01  9.9972387550719033e-01  9.9973702491327343e-01  9.9974978431500905e-01  9.9976198010241835e-01  9.9977349637305457e-01  9.9978427292147720e-01  9.9979429841739664e-01  9.9980360123615675e-01  9.9981223955174670e-01  9.9982029239443893e-01  9.9982785171752020e-01  9.9983501570437405e-01  9.9984188256118955e-01  9.9984854471560225e-01  9.9985508346213714e-01  9.9986156454532271e-01  9.9986803476498443e-01  9.9987451947032846e-01  9.9988102091362874e-01  9.9988751825347943e-01  9.9989397020566451e-01  9.9990032086115110e-01  9.9990650766615286e-01  9.9991246950554002e-01  9.9991815248030602e-01  9.9992351236999488e-01  9.9992851417839546e-01  9.9993313017161367e-01  9.9993733749825264e-01  9.9994111630861815e-01  9.9994444861821485e-01  9.9994731775267043e-01  9.9994970782555637e-01  9.9995160315819032e-01  9.9995298754911643e-01  9.9995384366274875e-01  9.9995415269837684e-01  9.9995389463460704e-01  9.9995304920638794e-01  9.9995159762355279e-01  9.9994952420718064e-01  9.9994681747697356e-01  9.9994347102234515e-01  9.9993948534834853e-01  9.9993487108743806e-01  9.9992965275094925e-01  9.9992387117783510e-01  9.9991758361215988e-01  9.9991086121979256e-01  9.9990378492063114e-01  9.9989644036195535e-01  9.9988891294091298e-01  9.9988128318061598e-01  9.9987362252395640e-01  9.9986598959538031e-01  9.9985842762856780e-01  9.9985096371146709e-01  9.9984361007410993e-01  9.9983636643716489e-01  9.9982922228977522e-01  9.9982215830955157e-01  9.9981514666817128e-01  9.9980815037606841e-01  9.9980112234889795e-01  9.9979400439467614e-01  9.9978672663845269e-01  9.9977920691933586e-01  9.9977135089145508e-01  9.9976305348433014e-01  9.9975420362660783e-01  9.9974469432913504e-01  9.9973444249988408e-01  9.9972342160507799e-01  9.9971170747718408e-01  9.9969953531249323e-01  8.3718978951872547e-01  7.8941572845304697e-01  7.5263919586352390e-01  8.4068123591921506e-01  8.2135221575496564e-01  8.1147224336324031e-01  8.3382641556456727e-01  8.3158804807424636e-01  8.3849063985640104e-01  8.8029848115609066e-01  9.0339475660713286e-01  9.2521305998309022e-01  9.5424044832583488e-01  9.6479723383336902e-01  9.7396798883958136e-01  9.7980929520562365e-01  9.8410424718844236e-01  9.9127216632633275e-01  9.9347916709908768e-01  9.9346060395833147e-01  9.9157383982289327e-01  9.8808115017601439e-01  9.8140113318583200e-01  9.7662762950543747e-01  9.7448023645229875e-01  9.6536377749516511e-01  9.5718946728211507e-01  9.5107306582686435e-01  9.4708575177544863e-01  9.4663602937089708e-01  9.4985678145773744e-01  9.5706027824636908e-01  9.6827237106657649e-01  9.7538625224734232e-01  9.9912025828275186e-01  9.9948592424111093e-01  9.9965342250650957e-01  9.9979914166552719e-01  9.9980809892265454e-01  9.9981712149673352e-01  9.9982574814430092e-01  9.9983356033469850e-01  9.9984020322026212e-01  9.9984540363698526e-01  9.9984898467852767e-01  9.9985087581193466e-01  9.9985111806472449e-01  9.9984986299973455e-01  9.9984736494705440e-01  9.9984396553685062e-01  9.9984007101058647e-01  9.9983612321523807e-01  9.9983256622598626e-01  9.9982980985308190e-01  9.9982819227814224e-01  9.9982794537201292e-01  9.9982916866861427e-01  9.9983181688997003e-01  9.9983570420522816e-01  9.9984052406697821e-01  9.9984588164253008e-01  9.9985133320738073e-01  9.9985642780903750e-01  9.9986074703019412e-01  9.9986394085685426e-01  9.9986575687957335e-01  9.9986606069255801e-01  9.9986484572098822e-01  9.9986223242130445e-01  9.9985845890848957e-01  9.9985386803283571e-01  9.9984889369547392e-01  9.9984404675220884e-01  9.9983989772863180e-01  9.9982301672383223e-01  9.9966925104063942e-01  9.9939298947121613e-01  9.7738134951356270e-01  9.6310240640005484e-01  9.7160585043985137e-01  9.6731793425967694e-01  9.6346292093178421e-01  9.6173122982668480e-01  9.6040344903415975e-01  9.5857708485169768e-01  9.5923013429982429e-01  9.6017226512356668e-01  9.6140897068750142e-01  9.6266011733597567e-01  9.6369450293586423e-01  9.6328637944491857e-01  9.6309747595141959e-01  9.6234772757662956e-01  9.6101500374481086e-01  9.5871497339414602e-01  9.5338986382242696e-01  9.4436817606979151e-01  8.7716976596771479e-01  8.5690490750871606e-01  8.2928861658933517e-01  7.9939754374672634e-01  7.9186883894988824e-01  8.0245757265262485e-01  8.1026811223997186e-01  8.2158705746031635e-01  8.3790614191354540e-01  8.7093375656374683e-01  8.8928818233712603e-01  9.3380096580101279e-01  1.0000000000000000e+00  1.0000000000000000e+00  1.0000000000000000e+00  1.0000000000000000e+00  1.0000000000000000e+00  1.0000000000000000e+00  1.0000000000000000e+00  1.0000000000000000e+00  1.0000000000000000e+00  1.0000000000000000e+00  1.0000000000000000e+00  1.0000000000000000e+00  1.0000000000000000e+00  1.0000000000000000e+00  1.0000000000000000e+00  1.0000000000000000e+00  1.0000000000000000e+00  1.0000000000000000e+00  1.0000000000000000e+00  1.0000000000000000e+00  1.0000000000000000e+00  1.0000000000000000e+00  1.0000000000000000e+00  1.0000000000000000e+00  1.0000000000000000e+00  1.0000000000000000e+00  1.0000000000000000e+00  1.0000000000000000e+00  1.0000000000000000e+00  1.0000000000000000e+00  1.0000000000000000e+00  1.0000000000000000e+00  1.0000000000000000e+00  1.0000000000000000e+00  1.0000000000000000e+00  1.0000000000000000e+00  1.0000000000000000e+00  1.0000000000000000e+00  1.0000000000000000e+00  1.0000000000000000e+00  1.0000000000000000e+00  1.0000000000000000e+00  1.0000000000000000e+00  1.0000000000000000e+00  1.0000000000000000e+00  1.0000000000000000e+00  9.7864158635968512e-01  9.6182087087334578e-01  9.5170699116137469e-01  9.4637803922097585e-01  9.4277948005246892e-01  9.3901935580839924e-01  9.3867090728874902e-01  9.3936452186752861e-01  7.5339566538056135e-01  7.4987951538437736e-01  7.5031349024800265e-01  8.8599969435235626e-01  8.8753837717295869e-01  9.3988590340976219e-01  9.7019823194874300e-01  9.7752627740359510e-01  9.8411060811306328e-01  9.9025244507578758e-01  9.9436436369690828e-01  1.0000000000000000e+00  9.9864912910113701e-01  9.9688594955241749e-01  9.9520905745624266e-01  9.7125970281902452e-01  9.4649860675593567e-01  9.2142015824302836e-01  9.0401611540942695e-01  8.9175806919233991e-01  8.6103376592704040e-01  8.4412131843625515e-01  8.2696578831671486e-01  8.8939900921639725e-01  8.8594961446344900e-01  8.4386855220870893e-0