<?xml version="1.0"?>
<VTKFile type="UnstructuredGrid"  version="0.1"  >
<UnstructuredGrid>
<Piece  NumberOfPoints="607" NumberOfCells="1112">
<Points>
<DataArray  type="Float64"  NumberOfComponents="3"  format="ascii">0.4130434782608696 0 0  0.4295652173913043 0 0  0.4295652173913043 0.01666666666666667 0  0.4460869565217391 0 0  0.4460869565217391 0.01666666666666667 0  0.4626086956521739 0 0  0.4626086956521739 0.01666666666666667 0  0.4791304347826086 0 0  0.4791304347826086 0.01666666666666667 0  0.4956521739130435 0 0  0.4956521739130435 0.01666666666666667 0  0.5121739130434783 0 0  0.5121739130434783 0.01666666666666667 0  0.528695652173913 0 0  0.528695652173913 0.01666666666666667 0  0.5452173913043478 0 0  0.5452173913043478 0.01666666666666667 0  0.5617391304347825 0 0  0.5617391304347825 0.01666666666666667 0  0.5782608695652174 0 0  0.5782608695652174 0.01666666666666667 0  0.5947826086956521 0 0  0.5947826086956521 0.01666666666666667 0  0.6113043478260869 0 0  0.6113043478260869 0.01666666666666667 0  0.6278260869565218 0 0  0.6278260869565218 0.01666666666666667 0  0.6443478260869565 0 0  0.6443478260869565 0.01666666666666667 0  0.6608695652173913 0 0  0.6608695652173913 0.01666666666666667 0  0.677391304347826 0 0  0.677391304347826 0.01666666666666667 0  0.6939130434782609 0 0  0.6939130434782609 0.01666666666666667 0  0.7104347826086956 0 0  0.7104347826086956 0.01666666666666667 0  0.4460869565217391 0.03333333333333333 0  0.4626086956521739 0.03333333333333333 0  0.4791304347826086 0.03333333333333333 0  0.4956521739130435 0.03333333333333333 0  0.5121739130434783 0.03333333333333333 0  0.528695652173913 0.03333333333333333 0  0.5452173913043478 0.03333333333333333 0  0.5617391304347825 0.03333333333333333 0  0.5782608695652174 0.03333333333333333 0  0.5947826086956521 0.03333333333333333 0  0.6113043478260869 0.03333333333333333 0  0.6278260869565218 0.03333333333333333 0  0.6443478260869565 0.03333333333333333 0  0.6608695652173913 0.03333333333333333 0  0.677391304347826 0.03333333333333333 0  0.6939130434782609 0.03333333333333333 0  0.7104347826086956 0.03333333333333333 0  0.4626086956521739 0.05 0  0.4791304347826086 0.05 0  0.4956521739130435 0.05 0  0.5121739130434783 0.05 0  0.528695652173913 0.05 0  0.5452173913043478 0.05 0  0.5617391304347825 0.05 0  0.5782608695652174 0.05 0  0.5947826086956521 0.05 0  0.6113043478260869 0.05 0  0.6278260869565218 0.05 0  0.6443478260869565 0.05 0  0.6608695652173913 0.05 0  0.677391304347826 0.05 0  0.6939130434782609 0.05 0  0.7104347826086956 0.05 0  0.7269565217391304 0.05 0  0.4791304347826086 0.06666666666666667 0  0.4956521739130435 0.06666666666666667 0  0.5121739130434783 0.06666666666666667 0  0.528695652173913 0.06666666666666667 0  0.5452173913043478 0.06666666666666667 0  0.5617391304347825 0.06666666666666667 0  0.5782608695652174 0.06666666666666667 0  0.5947826086956521 0.06666666666666667 0  0.6113043478260869 0.06666666666666667 0  0.6278260869565218 0.06666666666666667 0  0.6443478260869565 0.06666666666666667 0  0.6608695652173913 0.06666666666666667 0  0.677391304347826 0.06666666666666667 0  0.6939130434782609 0.06666666666666667 0  0.7104347826086956 0.06666666666666667 0  0.7269565217391304 0.06666666666666667 0  0.7434782608695653 0.06666666666666667 0  0.4956521739130435 0.08333333333333333 0  0.5121739130434783 0.08333333333333333 0  0.528695652173913 0.08333333333333333 0  0.5452173913043478 0.08333333333333333 0  0.5617391304347825 0.08333333333333333 0  0.5782608695652174 0.08333333333333333 0  0.5947826086956521 0.08333333333333333 0  0.6113043478260869 0.08333333333333333 0  0.6278260869565218 0.08333333333333333 0  0.6443478260869565 0.08333333333333333 0  0.6608695652173913 0.08333333333333333 0  0.677391304347826 0.08333333333333333 0  0.6939130434782609 0.08333333333333333 0  0.7104347826086956 0.08333333333333333 0  0.7269565217391304 0.08333333333333333 0  0.7434782608695653 0.08333333333333333 0  0.7599999999999999 0.08333333333333333 0  0.5121739130434783 0.1 0  0.528695652173913 0.1 0  0.5452173913043478 0.1 0  0.5617391304347825 0.1 0  0.5782608695652174 0.1 0  0.5947826086956521 0.1 0  0.6113043478260869 0.1 0  0.6278260869565218 0.1 0  0.6443478260869565 0.1 0  0.6608695652173913 0.1 0  0.677391304347826 0.1 0  0.6939130434782609 0.1 0  0.7104347826086956 0.1 0  0.7269565217391304 0.1 0  0.7434782608695653 0.1 0  0.7599999999999999 0.1 0  0.7765217391304348 0.1 0  0.528695652173913 0.1166666666666667 0  0.5452173913043478 0.1166666666666667 0  0.5617391304347825 0.1166666666666667 0  0.5782608695652174 0.1166666666666667 0  0.5947826086956521 0.1166666666666667 0  0.6113043478260869 0.1166666666666667 0  0.6278260869565218 0.1166666666666667 0  0.6443478260869565 0.1166666666666667 0  0.6608695652173913 0.1166666666666667 0  0.677391304347826 0.1166666666666667 0  0.6939130434782609 0.1166666666666667 0  0.7104347826086956 0.1166666666666667 0  0.7269565217391304 0.1166666666666667 0  0.7434782608695653 0.1166666666666667 0  0.7599999999999999 0.1166666666666667 0  0.7765217391304348 0.1166666666666667 0  0.7930434782608695 0.1166666666666667 0  0.5452173913043478 0.1333333333333333 0  0.5617391304347825 0.1333333333333333 0  0.5782608695652174 0.1333333333333333 0  0.5947826086956521 0.1333333333333333 0  0.6113043478260869 0.1333333333333333 0  0.6278260869565218 0.1333333333333333 0  0.6443478260869565 0.1333333333333333 0  0.6608695652173913 0.1333333333333333 0  0.677391304347826 0.1333333333333333 0  0.6939130434782609 0.1333333333333333 0  0.7104347826086956 0.1333333333333333 0  0.7269565217391304 0.1333333333333333 0  0.7434782608695653 0.1333333333333333 0  0.7599999999999999 0.1333333333333333 0  0.7765217391304348 0.1333333333333333 0  0.7930434782608695 0.1333333333333333 0  0.8095652173913043 0.1333333333333333 0  0.5617391304347825 0.15 0  0.5782608695652174 0.15 0  0.5947826086956521 0.15 0  0.6113043478260869 0.15 0  0.6278260869565218 0.15 0  0.6443478260869565 0.15 0  0.6608695652173913 0.15 0  0.677391304347826 0.15 0  0.6939130434782609 0.15 0  0.7104347826086956 0.15 0  0.7269565217391304 0.15 0  0.7434782608695653 0.15 0  0.7599999999999999 0.15 0  0.7765217391304348 0.15 0  0.7930434782608695 0.15 0  0.8095652173913043 0.15 0  0.8260869565217391 0.15 0  0.5782608695652174 0.1666666666666667 0  0.5947826086956521 0.1666666666666667 0  0.6113043478260869 0.1666666666666667 0  0.6278260869565218 0.1666666666666667 0  0.6443478260869565 0.1666666666666667 0  0.6608695652173913 0.1666666666666667 0  0.677391304347826 0.1666666666666667 0  0.6939130434782609 0.1666666666666667 0  0.7104347826086956 0.1666666666666667 0  0.7269565217391304 0.1666666666666667 0  0.7434782608695653 0.1666666666666667 0  0.7599999999999999 0.1666666666666667 0  0.7765217391304348 0.1666666666666667 0  0.7930434782608695 0.1666666666666667 0  0.8095652173913043 0.1666666666666667 0  0.8260869565217391 0.1666666666666667 0  0.8426086956521739 0.1666666666666667 0  0.5947826086956521 0.1833333333333333 0  0.5782608695652174 0.1833333333333333 0  0.6113043478260869 0.1833333333333333 0  0.6278260869565218 0.1833333333333333 0  0.6443478260869565 0.1833333333333333 0  0.6608695652173913 0.1833333333333333 0  0.677391304347826 0.1833333333333333 0  0.6939130434782609 0.1833333333333333 0  0.7104347826086956 0.1833333333333333 0  0.7269565217391304 0.1833333333333333 0  0.7434782608695653 0.1833333333333333 0  0.7599999999999999 0.1833333333333333 0  0.7765217391304348 0.1833333333333333 0  0.7930434782608695 0.1833333333333333 0  0.8095652173913043 0.1833333333333333 0  0.8260869565217391 0.1833333333333333 0  0.8426086956521739 0.1833333333333333 0  0.8591304347826086 0.1833333333333333 0  0.5947826086956521 0.2 0  0.5782608695652174 0.2 0  0.6113043478260869 0.2 0  0.6278260869565218 0.2 0  0.6443478260869565 0.2 0  0.6608695652173913 0.2 0  0.677391304347826 0.2 0  0.6939130434782609 0.2 0  0.7104347826086956 0.2 0  0.7269565217391304 0.2 0  0.7434782608695653 0.2 0  0.7599999999999999 0.2 0  0.7765217391304348 0.2 0  0.7930434782608695 0.2 0  0.8095652173913043 0.2 0  0.8260869565217391 0.2 0  0.8426086956521739 0.2 0  0.8591304347826086 0.2 0  0.8756521739130434 0.2 0  0.5947826086956521 0.2166666666666667 0  0.5782608695652174 0.2166666666666667 0  0.6113043478260869 0.2166666666666667 0  0.6278260869565218 0.2166666666666667 0  0.6443478260869565 0.2166666666666667 0  0.6608695652173913 0.2166666666666667 0  0.677391304347826 0.2166666666666667 0  0.6939130434782609 0.2166666666666667 0  0.7104347826086956 0.2166666666666667 0  0.7269565217391304 0.2166666666666667 0  0.7434782608695653 0.2166666666666667 0  0.7599999999999999 0.2166666666666667 0  0.7765217391304348 0.2166666666666667 0  0.7930434782608695 0.2166666666666667 0  0.8095652173913043 0.2166666666666667 0  0.8260869565217391 0.2166666666666667 0  0.8426086956521739 0.2166666666666667 0  0.8591304347826086 0.2166666666666667 0  0.8756521739130434 0.2166666666666667 0  0.8921739130434783 0.2166666666666667 0  0.5947826086956521 0.2333333333333333 0  0.5782608695652174 0.2333333333333333 0  0.6113043478260869 0.2333333333333333 0  0.6278260869565218 0.2333333333333333 0  0.6443478260869565 0.2333333333333333 0  0.6608695652173913 0.2333333333333333 0  0.677391304347826 0.2333333333333333 0  0.6939130434782609 0.2333333333333333 0  0.7104347826086956 0.2333333333333333 0  0.7269565217391304 0.2333333333333333 0  0.7434782608695653 0.2333333333333333 0  0.7599999999999999 0.2333333333333333 0  0.7765217391304348 0.2333333333333333 0  0.7930434782608695 0.2333333333333333 0  0.8095652173913043 0.2333333333333333 0  0.8260869565217391 0.2333333333333333 0  0.8426086956521739 0.2333333333333333 0  0.8591304347826086 0.2333333333333333 0  0.8756521739130434 0.2333333333333333 0  0.8921739130434783 0.2333333333333333 0  0.908695652173913 0.2333333333333333 0  0.5947826086956521 0.25 0  0.6113043478260869 0.25 0  0.6278260869565218 0.25 0  0.6443
[...]
<PointData  Vectors="Displacement"> 
<DataArray  type="Float64"  Name="Displacement"  NumberOfComponents="3" format="ascii">9.4894948681327238e-05 6.3488945879519186e-04 0.0000000000000000e+00  9.4207389238707713e-05 6.6130484542696198e-04 0.0000000000000000e+00  6.8197100689938183e-05 6.6136162437928478e-04 0.0000000000000000e+00  9.3540747141468027e-05 6.8638093909286478e-04 0.0000000000000000e+00  6.8713789192283969e-05 6.8644464796133815e-04 0.0000000000000000e+00  9.2948707997593812e-05 7.1030127142434176e-04 0.0000000000000000e+00  6.9143752177997173e-05 7.1036551824126047e-04 0.0000000000000000e+00  9.2488881534195155e-05 7.3321012932956689e-04 0.0000000000000000e+00  6.9528370226633316e-05 7.3325855582528660e-04 0.0000000000000000e+00  9.2240697994248159e-05 7.5526288481797803e-04 0.0000000000000000e+00  6.9922205572070677e-05 7.5527241313840497e-04 0.0000000000000000e+00  9.2322295624244080e-05 7.7662651746342225e-04 0.0000000000000000e+00  7.0408259782085228e-05 7.7655513816460742e-04 0.0000000000000000e+00  9.2882577787398366e-05 7.9753910371769979e-04 0.0000000000000000e+00  7.1092034984584446e-05 7.9733135462063459e-04 0.0000000000000000e+00  9.4052142337912846e-05 8.1835945013299571e-04 0.0000000000000000e+00  7.2069429839715298e-05 8.1796756670010152e-04 0.0000000000000000e+00  9.5870705602234493e-05 8.3955987621858947e-04 0.0000000000000000e+00  7.3380362626603257e-05 8.3897053971270115e-04 0.0000000000000000e+00  9.8227126697651156e-05 8.6164914460585586e-04 0.0000000000000000e+00  7.4970324658254513e-05 8.6089871873028560e-04 0.0000000000000000e+00  1.0083366963432842e-04 8.8501563590354473e-04 0.0000000000000000e+00  7.6702280855087097e-05 8.8421493307823537e-04 0.0000000000000000e+00  1.0347738706238183e-04 9.0952156062073662e-04 0.0000000000000000e+00  7.8548759084867033e-05 9.0864969834323359e-04 0.0000000000000000e+00  1.0598682475040203e-04 9.3493198740484166e-04 0.0000000000000000e+00  8.0640684570584343e-05 9.3401565034566399e-04 0.0000000000000000e+00  1.0837981409382608e-04 9.6032015014346653e-04 0.0000000000000000e+00  8.3344141254729193e-05 9.5930484682108538e-04 0.0000000000000000e+00  1.1076368123768219e-04 9.8457396229671614e-04 0.0000000000000000e+00  8.6960981931927540e-05 9.8356945811015496e-04 0.0000000000000000e+00  1.1310845239188088e-04 1.0075119949215186e-03 0.0000000000000000e+00  9.0622656520776736e-05 1.0065665928027587e-03 0.0000000000000000e+00  1.1535154291240024e-04 1.0291325525514836e-03 0.0000000000000000e+00  9.4077166228759043e-05 1.0283524494780975e-03 0.0000000000000000e+00  1.1752879611618651e-04 1.0497808123451544e-03 0.0000000000000000e+00  9.6880739243029496e-05 1.0490552160531354e-03 0.0000000000000000e+00  4.4065622831747195e-05 6.8620263164633096e-04 0.0000000000000000e+00  4.5404896298939400e-05 7.1020111911462218e-04 0.0000000000000000e+00  4.6493834192845805e-05 7.3316517295051353e-04 0.0000000000000000e+00  4.7359571469391921e-05 7.5524081899312485e-04 0.0000000000000000e+00  4.8069299118651509e-05 7.7652649773041617e-04 0.0000000000000000e+00  4.8735990892992191e-05 7.9720815294400727e-04 0.0000000000000000e+00  4.9480120248748554e-05 8.1765472080151333e-04 0.0000000000000000e+00  5.0374822952402786e-05 8.3843575079440549e-04 0.0000000000000000e+00  5.1369449808752734e-05 8.6022939261106162e-04 0.0000000000000000e+00  5.2215337994173205e-05 8.8361954554462118e-04 0.0000000000000000e+00  5.3187436141149540e-05 9.0811225170177811e-04 0.0000000000000000e+00  5.4130295457555454e-05 9.3323721483203580e-04 0.0000000000000000e+00  5.7061512738119522e-05 9.5840008246451632e-04 0.0000000000000000e+00  6.2438315706476858e-05 9.8234680998303099e-04 0.0000000000000000e+00  6.7454424291328276e-05 1.0053200392260355e-03 0.0000000000000000e+00  7.2156740148752392e-05 1.0271873004331954e-03 0.0000000000000000e+00  7.6315864208090293e-05 1.0481190864947405e-03 0.0000000000000000e+00  2.2178964396366978e-05 7.0988033698518647e-04 0.0000000000000000e+00  2.3876180381711504e-05 7.3301398006004497e-04 0.0000000000000000e+00  2.5112889851123864e-05 7.5527941396797478e-04 0.0000000000000000e+00  2.5944344629360691e-05 7.7666106167151945e-04 0.0000000000000000e+00  2.6514694257788923e-05 7.9725658941024976e-04 0.0000000000000000e+00  2.7003123444374997e-05 8.1742820052181024e-04 0.0000000000000000e+00  2.7533790516751416e-05 8.3782987690743794e-04 0.0000000000000000e+00  2.8127403005197824e-05 8.5937799892116598e-04 0.0000000000000000e+00  2.8488809391809776e-05 8.8299556707865359e-04 0.0000000000000000e+00  2.8605428859099811e-05 9.0761209911316084e-04 0.0000000000000000e+00  2.8797675897663751e-05 9.3291700681769041e-04 0.0000000000000000e+00  3.4113853873759436e-05 9.5094699303757853e-04 0.0000000000000000e+00  4.0223614938997649e-05 9.7228320224686064e-04 0.0000000000000000e+00  4.6124592181778089e-05 9.9413228530446842e-04 0.0000000000000000e+00  5.1605214239446338e-05 1.0155135275882613e-03 0.0000000000000000e+00  5.6575215944579289e-05 1.0363781420257285e-03 0.0000000000000000e+00  6.0945961608210133e-05 1.0569069126788210e-03 0.0000000000000000e+00  2.1344915399896932e-06 7.3284602381083264e-04 0.0000000000000000e+00  3.6953108209400870e-06 7.5546412263336534e-04 0.0000000000000000e+00  4.6184169636000707e-06 7.7705741225134032e-04 0.0000000000000000e+00  5.0855358372465613e-06 7.9755110383540921e-04 0.0000000000000000e+00  5.3675090928652325e-06 8.1726622670260567e-04 0.0000000000000000e+00  5.7276113035938472e-06 8.3697437703236669e-04 0.0000000000000000e+00  6.2642882959595527e-06 8.5767731483126278e-04 0.0000000000000000e+00  6.5229389495231635e-06 8.8142289079282750e-04 0.0000000000000000e+00  8.6862416446579200e-06 9.0170458628047103e-04 0.0000000000000000e+00  1.2285867207500387e-05 9.2347395847175483e-04 0.0000000000000000e+00  1.7212238682858357e-05 9.4191793797065212e-04 0.0000000000000000e+00  2.2275268327475174e-05 9.6194084336910588e-04 0.0000000000000000e+00  2.7753084015131457e-05 9.8277281975068663e-04 0.0000000000000000e+00  3.3336265812072725e-05 1.0035988750370004e-03 0.0000000000000000e+00  3.8771190157502156e-05 1.0242189377795926e-03 0.0000000000000000e+00  4.3919380920347800e-05 1.0446987465509423e-03 0.0000000000000000e+00  4.8729297510778675e-05 1.0651716554380690e-03 0.0000000000000000e+00  -1.6531240817301530e-05 7.5582734151597418e-04 0.0000000000000000e+00  -1.5422877178496647e-05 7.7781317659964509e-04 0.0000000000000000e+00  -1.5001370015389818e-05 7.9819560858573186e-04 0.0000000000000000e+00  -1.4868311904475638e-05 8.1723369582484436e-04 0.0000000000000000e+00  -1.4680584021825363e-05 8.3576324443937000e-04 0.0000000000000000e+00  -1.3914980935554438e-05 8.5521693699369076e-04 0.0000000000000000e+00  -1.3097047859985908e-05 8.7520150873004218e-04 0.0000000000000000e+00  -9.1215450027663762e-06 8.9434622772283947e-04 0.0000000000000000e+00  -4.7551100449712537e-06 9.1398399802775500e-04 0.0000000000000000e+00  2.8353014227080155e-07 9.3246680910843613e-04 0.0000000000000000e+00  5.3899710572909283e-06 9.5168817362761013e-04 0.0000000000000000e+00  1.0824817283685542e-05 9.7151330543656441e-04 0.0000000000000000e+00  1.6539187306969572e-05 9.9159534851426395e-04 0.0000000000000000e+00  2.2345879688902919e-05 1.0117503551042286e-03 0.0000000000000000e+00  2.8094066344419266e-05 1.0319676341130866e-03 0.0000000000000000e+00  3.3692645167815373e-05 1.0523160212206988e-03 0.0000000000000000e+00  3.9096772089263020e-05 1.0728744781713228e-03 0.0000000000000000e+00  -3.3673619952883064e-05 7.7903151841872301e-04 0.0000000000000000e+00  -3.3186853736386928e-05 7.9931693204934179e-04 0.0000000000000000e+00  -3.3063421468657695e-05 8.1744234450531548e-04 0.0000000000000000e+00  -3.2928966458231709e-05 8.3444488970998889e-04 0.0000000000000000e+00  -3.2319288805874120e-05 8.5063973492716398e-04 0.0000000000000000e+00  -2.9701652970149470e-05 8.6774541818581828e-04 0.0000000000000000e+00  -2.5797434780775090e-05 8.8615338088158949e-04 0.0000000000000000e+00  -2.1256400600569648e-05 9.0461158778364157e-04 0.0000000000000000e+00  -1.6161179507506658e-05 9.2264758066290943e-04 0.0000000000000000e+00  -1.0820201274502199e-05 9.4114101528567349e-04 0.0000000000000000e+00  -5.1644308012594871e-06 9.6009705264824691e-04 0.0000000000000000e+00  7.9909002872715210e-07 9.7940004073630675e-04 0.0000000000000000e+00  6.9722074330443660e-06 9.9896329447434580e-04 0.0000000000000000e+00  1.3234834554795420e-05 1.0187727983609813e-03 0.0000000000000000e+00  1.9482694029049780e-05 1.0388727278304020e-03 0.0000000000000000e+00  2.5636680176925643e-05 1.0593199800448469e-03 0.0000000000000000e+00  3.1643363151356183e-05 1.0801740748743781e-03 0.0000000000000000e+00  -4.8922446596300878e-05 8.0118195717439149e-04 0.0000000000000000e+00  -4.8886188918129586e-05 8.1805985956143537e-04 0.0000000000000000e+00  -4.8819854930415729e-05 8.3357224253834594e-04 0.0000000000000000e+00  -4.8664653136520657e-05 8.4748250466796246e-04 0.0000000000000000e+00  -4.7929277746998660e-05 8.5877753511803595e-04 0.0000000000000000e+00  -4.2641142081204184e-05 8.7778204709485603e-04 0.0000000000000000e+00  -3.7547754275152691e-05 8.9521258296839182e-04 0.0000000000000000e+00  -3.2118724199164497e-05 9.1253711518602678e-04 0.0000000000000000e+00  -2.6430966527146982e-05 9.3024520550616537e-04 0.0000000000000000e+00  -2.0440445055149615e-05 9.4837546194316178e-04 0.0000000000000000e+00  -1.4140149935994652e-05 9.6690151267754250e-04 0.0000000000000000e+00  -7.5766952955382736e-06 9.8580806378528989e-04 0.0000000000000000e+00  -8.3312131408057130e-07 1.0051140119748624e-03 0.0000000000000000e+00  5.9883285716604446e-06 1.0248762271709395e-03 0.0000000000000000e+00  1.2789343873763659e-05 1.0451420426041799e-03 0.0000000000000000e+00  1.9491371472677868e-05 1.0659422509253886e-03 0.0000000000000000e+00  2.6041708416343785e-05 1.0872905220222719e-03 0.0000000000000000e+00  -6.2118409950294174e-05 8.1915981800867010e-04 0.0000000000000000e+00  -6.2015387142206756e-05 8.3324113417552245e-04 0.0000000000000000e+00  -6.1778263525751707e-05 8.4567993427423415e-04 0.0000000000000000e+00  -6.1500348935734274e-05 8.5555696216500288e-04 0.0000000000000000e+00  -5.8192491241391777e-05 8.6945100686616240e-04 0.0000000000000000e+00  -5.3003429645651773e-05 8.8558508636924545e-04 0.0000000000000000e+00  -4.7337797930791825e-05 9.0208434415672172e-04 0.0000000000000000e+00  -4.1353142788864163e-05 9.1898138774017279e-04 0.0000000000000000e+00  -3.5041305441534633e-05 9.3629069962241620e-04 0.0000000000000000e+00  -2.8395281825633741e-05 9.5402839367968097e-04 0.0000000000000000e+00  -2.1438532709103900e-05 9.7223022407572047e-04 0.0000000000000000e+00  -1.4231273497046465e-05 9.9096019891177695e-04 0.0000000000000000e+00  -6.8786445601437114e-06 1.0103207304251530e-03 0.0000000000000000e+00  5.0351504761702102e-07 1.0303596436698514e-03 0.0000000000000000e+00  7.8175009335780602e-06 1.0510807976663061e-03 0.0000000000000000e+00  1.4992621696108148e-05 1.0724656424322336e-03 0.0000000000000000e+00  2.1983009762296785e-05 1.0944837776400323e-03 0.0000000000000000e+00  -7.3098083516088343e-05 8.3345183109995765e-04 0.0000000000000000e+00  -7.2843586651285039e-05 8.4480463829658355e-04 0.0000000000000000e+00  -7.2701737663685947e-05 8.5412981687615073e-04 0.0000000000000000e+00  -7.2942974004468138e-05 8.6100229480448793e-04 0.0000000000000000e+00  -6.7699485917862388e-05 8.7573958451739331e-04 0.0000000000000000e+00  -6.1850725833416333e-05 8.9133075686110305e-04 0.0000000000000000e+00  -5.5610121054876529e-05 9.0737992089758111e-04 0.0000000000000000e+00  -4.9007537185276601e-05 9.2384326958380399e-04 0.0000000000000000e+00  -4.2036973160351662e-05 9.4075418001078603e-04 0.0000000000000000e+00  -3.4701870410103712e-05 9.5818897830257015e-04 0.0000000000000000e+00  -2.7043105509209285e-05 9.7626589490136929e-04 0.0000000000000000e+00  -1.9183630712682740e-05 9.9517577065866909e-04 0.0000000000000000e+00  -1.1264722682003600e-05 1.0149654856089873e-03 0.0000000000000000e+00  -3.4014029066995674e-06 1.0356034259592025e-03 0.0000000000000000e+00  4.3234916237921435e-06 1.0570342265001642e-03 0.0000000000000000e+00  1.1853754006068092e-05 1.0791967640141737e-03 0.0000000000000000e+00  1.9154482644874896e-05 1.1020268412754487e-03 0.0000000000000000e+00  -8.1948627136282706e-05 8.4456922340803132e-04 0.0000000000000000e+00  -8.1671077516285760e-05 8.5336430984488283e-04 0.0000000000000000e+00  -8.1703438190958345e-05 8.6023498529986153e-04 0.0000000000000000e+00  -8.2050247568767382e-05 8.6544871775354117e-04 0.0000000000000000e+00  -7.5795967281015297e-05 8.8025547916194692e-04 0.0000000000000000e+00  -6.9244896809437899e-05 8.9545692955839747e-04 0.0000000000000000e+00  -6.2360639562370016e-05 9.1104851964238188e-04 0.0000000000000000e+00  -5.5100216516174778e-05 9.2707661035786937e-04 0.0000000000000000e+00  -4.7419559104477981e-05 9.4365448863404993e-04 0.0000000000000000e+00  -3.9321228262671187e-05 9.6097150738144092e-04 0.0000000000000000e+00  -3.0970773912610324e-05 9.7939246124925791e-04 0.0000000000000000e+00  -2.2549787968803806e-05 9.9893531776497433e-04 0.0000000000000000e+00  -1.4189137933268566e-05 1.0195085334190101e-03 0.0000000000000000e+00  -5.9783501443328973e-06 1.0410118828310358e-03 0.0000000000000000e+00  2.0202048438913599e-06 1.0633521271043171e-03 0.0000000000000000e+00  9.7650800405444731e-06 1.0864388453511620e-03 0.0000000000000000e+00  1.7235957084411639e-05 1.1101781672616790e-03 0.0000000000000000e+00  -8.9005996573884456e-05 8.5309480727924648e-04 0.0000000000000000e+00  -8.9547968384516308e-05 8.4479860227726377e-04 0.0000000000000000e+00  -8.8696940289172431e-05 8.5980342447342551e-04 0.0000000000000000e+00  -8.8780196887024520e-05 8.6505219652178588e-04 0.0000000000000000e+00  -8.9071905748245436e-05 8.6879451639604831e-04 0.0000000000000000e+00  -8.2177631747996089e-05 8.8321147428048951e-04 0.0000000000000000e+00  -7.5038978100629971e-05 8.9793875375053175e-04 0.0000000000000000e+00  -6.7564690776215599e-05 9.1302342782396170e-04 0.0000000000000000e+00  -5.9612833001135495e-05 9.2861115125962622e-04 0.0000000000000000e+00  -5.1094225693580967e-05 9.4499414702635853e-04 0.0000000000000000e+00  -4.2269136816100107e-05 9.6290558325985785e-04 0.0000000000000000e+00  -3.3381787911223663e-05 9.8223520270870109e-04 0.0000000000000000e+00  -2.4573070034709535e-05 1.0027858274117875e-03 0.0000000000000000e+00  -1.5933218151822271e-05 1.0244052673644129e-03 0.0000000000000000e+00  -7.5292117653640226e-06 1.0469703132381589e-03 0.0000000000000000e+00  5.9020837538483023e-07 1.0703651843893480e-03 0.0000000000000000e+00  8.4016062211710640e-06 1.0944648840171076e-03 0.0000000000000000e+00  1.5907537602226149e-05 1.1191512953478758e-03 0.0000000000000000e+00  -9.4882920255833644e-05 8.5316951730686052e-04 0.0000000000000000e+00  -9.5705762737908944e-05 8.4534821631884532e-04 0.0000000000000000e+00  -9.4250954566835855e-05 8.5962747427475853e-04 0.0000000000000000e+00  -9.3954053129647941e-05 8.6479107821715937e-04 0.0000000000000000e+00  -9.4037521345986409e-05 8.6848866794329556e-04 0.0000000000000000e+00  -9.4275833737671188e-05 8.7065953735413490e-04 0.0000000000000000e+00  -8.6882046928638831e-05 8.8459638953063851e-04 0.0000000000000000e+00  -7.9331935543699723e-05 8.9869286291556884e-04 0.0000000000000000e+00  -7.1278241119325926e-05 9.1307873837576992e-04 0.0000000000000000e+00  -6.2381001202142076e-05 9.2820521722535054e-04 0.0000000000000000e+00  -5.3110043544847210e-05 9.4563522391879595e-04 0.0000000000000000e+00  -4.3802864129851366e-05 9.6482858236496705e-04 0.0000000000000000e+00  -3.4595134894725520e-05 9.8542058959486260e-04 0.0000000000000000e+00  -2.5574025585937282e-05 1.0072135254109262e-03 0.0000000000000000e+00  -1.6815679706550319e-05 1.0300643420872236e-03 0.0000000000000000e+00  -8.3824044805696624e-06 1.0538351959789574e-03 0.0000000000000000e+00  -3.0142936033021799e-07 1.0783592441536202e-03 0.0000000000000000e+00  7.4374317233750977e-06 1.1034808804825304e-03 0.0000000000000000e+00  1.4867288892462478e-05 1.1290848613847233e-03 0.0000000000000000e+00  -9.9374594515705072e-05 8.5352241170017938e-04 0.0000000000000000e+00  -1.0024512316325176e-04 8.4602476655297454e-04 0.0000000000000000e+00  -9.8467358163011000e-05 8.5965092679450485e-04 0.0000000000000000e+00  -9.7772334361787510e-05 8.6474579352594806e-04 0.0000000000000000e+00  -9.7390103595297760e-05 8.6832972362749109e-04 0.0000000000000000e+00  -9.7354652893087389e-05 8.7044390852607809e-04 0.0000000000000000e+00  -9.7514728220590846e-05 8.7115122544201415e-04 0.0000000000000000e+00  -9.0075497998273513e-05 8.8435496895603667e-04 0.0000000000000000e+00  -8.2369912779925900e-05 8.9717881359118259e-04 0.0000000000000000e+00  -7.3231539060579205e-05 9.1037488354788496e-04 0.0000000000000000e+00  -6.3575613339105538e-05 9.2749188896464388e-04 0.0000000000000000e+00  -5.3903836826132052e-05 9.4668191306316186e-04 0.0000000000000000e+00  -4.4331106995005473e-05 9.6739219737200315e-04 0.0000000000000000e+00  -3.4952474533590841e-05 9.8942419959169954e-04 0.0000000000000000e+00  -2.5868953866158193e-05 1.0126366859398300e-03 0.0000000000000000e+00  -1.7169769953015032e-05 1.0368750969603267e-03 0.0000000000000000e+00  -8.8858466183496840e-06 1.0619069886132501e-03 0.0000000000000000e+00  -9.9053716881915309e-07 1.0875237453841953e-03 0.0000000000000000e+00  6.5709742538686348e-06 1.1135879037893488e-03 0.0000000000000000e+00  1.3856253436650769e-05 1.1400290572094131e-03 0.0000000000000000e+00  -1.0239817506199061e-04 8.5414779191826575e-04 0.0000000000000000e+00  -9.9733435635535229e-05 8.3313925683750178e-04 0.0000000000000000e+00  -1.0177483548554608e-04 8.5969977144475401e-04 0.0000000000000000e+00  -1.0043744185781827e-04 8.6487501557796782e-04 0.0000000000000000e+00  -9.9437951494314034e-05 8.6832492466006213e-04 0.0000000000000000e+00  -9.8834243217563395e-05 8.7030215921443904e-04 0.0000000000000000e+00  -9.8592968194431143e-05 8.7108251080726890e-04 0.0000000000000000e+00  -9.8569911482023997e-05 8.7077288839618281e-04 0.0000000000000000e+00  -9.2620689055356668e-05 8.8143501333894873e-04 0.0000000000000000e+00  -8.3977984266734657e-05 8.9100632551800758e-04 0.0000000000000000e+00  -7.3962250807051350e-05 9.0837957518384821e-04 0.0000000000000000e+00  -6.3893487771824511e-05 9.2775567656041484e-04 0.0000000000000000e+00  -5.3906306154648286e-05 9.4865860953583338e-04 0.0000000000000000e+00  -4.4133564569563523e-05 9.7100063356882671e-04 0.0000000000000000e+00  -3.4716457515218437e-05 9.9467227959935955e-04 0.0000000000000000e+00  -2.5784904762426013e-05 1.0195095455397150e-03 0.0000000000000000e+00  -1.7364547264830731e-05 1.0451617226456026e-03 0.0000000000000000e+00  -9.3930461398067390e-06 1.0713440665280148e-03 0.0000000000000000e+00  -1.7792182276026131e-06 1.0979003862113231e-03 0.0000000000000000e+00  5.5593744402279579e-06 1.1247732341843504e-03 0.0000000000000000e+00  1.2681962457282437e-05 1.1519638267542729e-03 0.0000000000000000e+00  -9.7361775511616098e-05 8.3916744779947993e-04 0.0000000000000000e+00  -9.8300993983621069e-05 8.5051663133217604e-04 0.0000000000000000e+00  -1.0110276293093831e-04 8.6519341294616988e-04 0.0000000000000000e+00  -9.9876247700365580e-05 8.6853624987251682e-04 0.0000000000000000e+00  -9.9037385492958349e-05 8.7024071780862351e-04 0.0000000000000000e+00  -9.8387343526596429e-05 8.7098276613036072e-04 0.0000000000000000e+00  -9.7983106986270239e-05 8.7078727231081055e-04 0.0000000000000000e+00  -9.7768629931571169e-05 8.6983925614902687e-04 0.0000000000000000e+00  -9.7672555070368530e-05 8.6833020348923095e-04 0.0000000000000000e+00  -8.5229643601381397e-05 8.8810704183466883e-04 0.0000000000000000e+00  -7.4097260314986925e-05 9.0794567372462151e-04 0.0000000000000000e+00  -6.3424039413100179e-05 9.2912389493824646e-04 0.0000000000000000e+00  -5.3139926968854473e-05 9.5186646551902014e-04 0.0000000000000000e+00  -4.3349734189574202e-05 9.7613253894768574e-04 0.0