<?xml version="1.0"?>
<VTKFile type="UnstructuredGrid"  version="0.1"  >
<UnstructuredGrid>
<Piece  NumberOfPoints="614" NumberOfCells="1122">
<Points>
<DataArray  type="Float64"  NumberOfComponents="3"  format="ascii">2.792173913043478 0.2166666666666667 0  2.792173913043478 0.2333333333333333 0  2.808695652173913 0.2333333333333333 0  2.445217391304348 0.2333333333333333 0  2.461739130434782 0.2333333333333333 0  2.461739130434782 0.25 0  2.445217391304348 0.25 0  2.478260869565217 0.2333333333333333 0  2.478260869565217 0.25 0  2.494782608695652 0.2333333333333333 0  2.494782608695652 0.25 0  2.511304347826087 0.2333333333333333 0  2.511304347826087 0.25 0  2.527826086956522 0.2333333333333333 0  2.527826086956522 0.25 0  2.544347826086956 0.2333333333333333 0  2.544347826086956 0.25 0  2.560869565217391 0.2333333333333333 0  2.560869565217391 0.25 0  2.577391304347826 0.2333333333333333 0  2.577391304347826 0.25 0  2.593913043478261 0.2333333333333333 0  2.593913043478261 0.25 0  2.610434782608696 0.2333333333333333 0  2.610434782608696 0.25 0  2.62695652173913 0.2333333333333333 0  2.62695652173913 0.25 0  2.643478260869565 0.2333333333333333 0  2.643478260869565 0.25 0  2.66 0.2333333333333333 0  2.66 0.25 0  2.676521739130435 0.2333333333333333 0  2.676521739130435 0.25 0  2.693043478260869 0.2333333333333333 0  2.693043478260869 0.25 0  2.709565217391304 0.2333333333333333 0  2.709565217391304 0.25 0  2.726086956521739 0.2333333333333333 0  2.726086956521739 0.25 0  2.742608695652174 0.2333333333333333 0  2.742608695652174 0.25 0  2.759130434782609 0.2333333333333333 0  2.759130434782609 0.25 0  2.775652173913044 0.2333333333333333 0  2.775652173913044 0.25 0  2.792173913043478 0.25 0  2.808695652173913 0.25 0  2.825217391304347 0.25 0  2.28 0.25 0  2.296521739130434 0.25 0  2.296521739130434 0.2666666666666667 0  2.28 0.2666666666666667 0  2.31304347826087 0.25 0  2.31304347826087 0.2666666666666667 0  2.329565217391304 0.25 0  2.329565217391304 0.2666666666666667 0  2.346086956521739 0.25 0  2.346086956521739 0.2666666666666667 0  2.362608695652174 0.25 0  2.362608695652174 0.2666666666666667 0  2.379130434782609 0.25 0  2.379130434782609 0.2666666666666667 0  2.395652173913044 0.25 0  2.395652173913044 0.2666666666666667 0  2.412173913043478 0.25 0  2.412173913043478 0.2666666666666667 0  2.428695652173913 0.25 0  2.428695652173913 0.2666666666666667 0  2.445217391304348 0.2666666666666667 0  2.461739130434782 0.2666666666666667 0  2.478260869565217 0.2666666666666667 0  2.494782608695652 0.2666666666666667 0  2.511304347826087 0.2666666666666667 0  2.527826086956522 0.2666666666666667 0  2.544347826086956 0.2666666666666667 0  2.560869565217391 0.2666666666666667 0  2.577391304347826 0.2666666666666667 0  2.593913043478261 0.2666666666666667 0  2.610434782608696 0.2666666666666667 0  2.62695652173913 0.2666666666666667 0  2.643478260869565 0.2666666666666667 0  2.66 0.2666666666666667 0  2.676521739130435 0.2666666666666667 0  2.693043478260869 0.2666666666666667 0  2.709565217391304 0.2666666666666667 0  2.726086956521739 0.2666666666666667 0  2.742608695652174 0.2666666666666667 0  2.759130434782609 0.2666666666666667 0  2.775652173913044 0.2666666666666667 0  2.792173913043478 0.2666666666666667 0  2.808695652173913 0.2666666666666667 0  2.825217391304347 0.2666666666666667 0  2.841739130434783 0.2666666666666667 0  2.24695652173913 0.2666666666666667 0  2.263478260869565 0.2666666666666667 0  2.263478260869565 0.2833333333333333 0  2.28 0.2833333333333333 0  2.296521739130434 0.2833333333333333 0  2.31304347826087 0.2833333333333333 0  2.329565217391304 0.2833333333333333 0  2.346086956521739 0.2833333333333333 0  2.362608695652174 0.2833333333333333 0  2.379130434782609 0.2833333333333333 0  2.395652173913044 0.2833333333333333 0  2.412173913043478 0.2833333333333333 0  2.428695652173913 0.2833333333333333 0  2.445217391304348 0.2833333333333333 0  2.461739130434782 0.2833333333333333 0  2.478260869565217 0.2833333333333333 0  2.494782608695652 0.2833333333333333 0  2.511304347826087 0.2833333333333333 0  2.527826086956522 0.2833333333333333 0  2.544347826086956 0.2833333333333333 0  2.560869565217391 0.2833333333333333 0  2.577391304347826 0.2833333333333333 0  2.593913043478261 0.2833333333333333 0  2.610434782608696 0.2833333333333333 0  2.62695652173913 0.2833333333333333 0  2.643478260869565 0.2833333333333333 0  2.66 0.2833333333333333 0  2.676521739130435 0.2833333333333333 0  2.693043478260869 0.2833333333333333 0  2.709565217391304 0.2833333333333333 0  2.726086956521739 0.2833333333333333 0  2.742608695652174 0.2833333333333333 0  2.759130434782609 0.2833333333333333 0  2.775652173913044 0.2833333333333333 0  2.792173913043478 0.2833333333333333 0  2.808695652173913 0.2833333333333333 0  2.825217391304347 0.2833333333333333 0  2.841739130434783 0.2833333333333333 0  2.858260869565217 0.2833333333333333 0  2.28 0.3 0  2.296521739130434 0.3 0  2.31304347826087 0.3 0  2.329565217391304 0.3 0  2.346086956521739 0.3 0  2.362608695652174 0.3 0  2.379130434782609 0.3 0  2.395652173913044 0.3 0  2.412173913043478 0.3 0  2.428695652173913 0.3 0  2.445217391304348 0.3 0  2.461739130434782 0.3 0  2.478260869565217 0.3 0  2.494782608695652 0.3 0  2.511304347826087 0.3 0  2.527826086956522 0.3 0  2.544347826086956 0.3 0  2.560869565217391 0.3 0  2.577391304347826 0.3 0  2.593913043478261 0.3 0  2.610434782608696 0.3 0  2.62695652173913 0.3 0  2.643478260869565 0.3 0  2.66 0.3 0  2.676521739130435 0.3 0  2.693043478260869 0.3 0  2.709565217391304 0.3 0  2.726086956521739 0.3 0  2.742608695652174 0.3 0  2.759130434782609 0.3 0  2.775652173913044 0.3 0  2.792173913043478 0.3 0  2.808695652173913 0.3 0  2.825217391304347 0.3 0  2.841739130434783 0.3 0  2.858260869565217 0.3 0  2.874782608695652 0.3 0  2.296521739130434 0.3166666666666667 0  2.31304347826087 0.3166666666666667 0  2.329565217391304 0.3166666666666667 0  2.346086956521739 0.3166666666666667 0  2.362608695652174 0.3166666666666667 0  2.379130434782609 0.3166666666666667 0  2.395652173913044 0.3166666666666667 0  2.412173913043478 0.3166666666666667 0  2.428695652173913 0.3166666666666667 0  2.445217391304348 0.3166666666666667 0  2.461739130434782 0.3166666666666667 0  2.478260869565217 0.3166666666666667 0  2.494782608695652 0.3166666666666667 0  2.511304347826087 0.3166666666666667 0  2.527826086956522 0.3166666666666667 0  2.544347826086956 0.3166666666666667 0  2.560869565217391 0.3166666666666667 0  2.577391304347826 0.3166666666666667 0  2.593913043478261 0.3166666666666667 0  2.610434782608696 0.3166666666666667 0  2.62695652173913 0.3166666666666667 0  2.643478260869565 0.3166666666666667 0  2.66 0.3166666666666667 0  2.676521739130435 0.3166666666666667 0  2.693043478260869 0.3166666666666667 0  2.709565217391304 0.3166666666666667 0  2.726086956521739 0.3166666666666667 0  2.742608695652174 0.3166666666666667 0  2.759130434782609 0.3166666666666667 0  2.775652173913044 0.3166666666666667 0  2.792173913043478 0.3166666666666667 0  2.808695652173913 0.3166666666666667 0  2.825217391304347 0.3166666666666667 0  2.841739130434783 0.3166666666666667 0  2.858260869565217 0.3166666666666667 0  2.874782608695652 0.3166666666666667 0  2.891304347826087 0.3166666666666667 0  2.31304347826087 0.3333333333333333 0  2.329565217391304 0.3333333333333333 0  2.346086956521739 0.3333333333333333 0  2.362608695652174 0.3333333333333333 0  2.379130434782609 0.3333333333333333 0  2.395652173913044 0.3333333333333333 0  2.412173913043478 0.3333333333333333 0  2.428695652173913 0.3333333333333333 0  2.445217391304348 0.3333333333333333 0  2.461739130434782 0.3333333333333333 0  2.478260869565217 0.3333333333333333 0  2.494782608695652 0.3333333333333333 0  2.511304347826087 0.3333333333333333 0  2.527826086956522 0.3333333333333333 0  2.544347826086956 0.3333333333333333 0  2.560869565217391 0.3333333333333333 0  2.577391304347826 0.3333333333333333 0  2.593913043478261 0.3333333333333333 0  2.610434782608696 0.3333333333333333 0  2.62695652173913 0.3333333333333333 0  2.643478260869565 0.3333333333333333 0  2.66 0.3333333333333333 0  2.676521739130435 0.3333333333333333 0  2.693043478260869 0.3333333333333333 0  2.709565217391304 0.3333333333333333 0  2.726086956521739 0.3333333333333333 0  2.742608695652174 0.3333333333333333 0  2.759130434782609 0.3333333333333333 0  2.775652173913044 0.3333333333333333 0  2.792173913043478 0.3333333333333333 0  2.808695652173913 0.3333333333333333 0  2.825217391304347 0.3333333333333333 0  2.841739130434783 0.3333333333333333 0  2.858260869565217 0.3333333333333333 0  2.874782608695652 0.3333333333333333 0  2.891304347826087 0.3333333333333333 0  2.907826086956522 0.3333333333333333 0  2.329565217391304 0.35 0  2.346086956521739 0.35 0  2.362608695652174 0.35 0  2.379130434782609 0.35 0  2.395652173913044 0.35 0  2.412173913043478 0.35 0  2.428695652173913 0.35 0  2.445217391304348 0.35 0  2.461739130434782 0.35 0  2.478260869565217 0.35 0  2.494782608695652 0.35 0  2.511304347826087 0.35 0  2.527826086956522 0.35 0  2.544347826086956 0.35 0  2.560869565217391 0.35 0  2.577391304347826 0.35 0  2.593913043478261 0.35 0  2.610434782608696 0.35 0  2.62695652173913 0.35 0  2.643478260869565 0.35 0  2.66 0.35 0  2.676521739130435 0.35 0  2.693043478260869 0.35 0  2.709565217391304 0.35 0  2.726086956521739 0.35 0  2.742608695652174 0.35 0  2.759130434782609 0.35 0  2.775652173913044 0.35 0  2.792173913043478 0.35 0  2.808695652173913 0.35 0  2.825217391304347 0.35 0  2.841739130434783 0.35 0  2.858260869565217 0.35 0  2.874782608695652 0.35 0  2.891304347826087 0.35 0  2.907826086956522 0.35 0  2.924347826086957 0.35 0  2.346086956521739 0.3666666666666666 0  2.362608695652174 0.3666666666666666 0  2.379130434782609 0.3666666666666666 0  2.395652173913044 0.3666666666666666 0  2.412173913043478 0.3666666666666666 0  2.428695652173913 0.3666666666666666 0  2.445217391304348 0.3666666666666666 0  2.461739130434782 0.3
[...]
<PointData  Vectors="Displacement"> 
<DataArray  type="Float64"  Name="Displacement"  NumberOfComponents="3" format="ascii">1.5154674099015876e-04 4.8817854239359059e-03 0.0000000000000000e+00  1.3352003762998193e-04 4.8830265717058714e-03 0.0000000000000000e+00  1.3514972206391977e-04 4.9248248039467498e-03 0.0000000000000000e+00  8.8343430811284275e-05 3.7562094183213861e-03 0.0000000000000000e+00  9.1443793672212599e-05 3.8113010934650092e-03 0.0000000000000000e+00  7.3169918149372425e-05 3.7973923305191595e-03 0.0000000000000000e+00  7.0075559542778982e-05 3.7418342335179804e-03 0.0000000000000000e+00  9.4579386881374759e-05 3.8667754198203320e-03 0.0000000000000000e+00  7.6318916394690461e-05 3.8533844135144029e-03 0.0000000000000000e+00  9.7716656698838833e-05 3.9226055380444779e-03 0.0000000000000000e+00  7.9477569634925355e-05 3.9097928108725692e-03 0.0000000000000000e+00  1.0081846393107460e-04 3.9787503172303840e-03 0.0000000000000000e+00  8.2598336573806814e-05 3.9665809310940343e-03 0.0000000000000000e+00  1.0384731056769859e-04 4.0351531956807959e-03 0.0000000000000000e+00  8.5634495766798125e-05 4.0236925208131397e-03 0.0000000000000000e+00  1.0676831237414315e-04 4.0917419011495260e-03 0.0000000000000000e+00  8.8543423255290471e-05 4.0810516004935547e-03 0.0000000000000000e+00  1.0955211075274719e-04 4.1484287864530338e-03 0.0000000000000000e+00  9.1290290062247403e-05 4.1385625812253961e-03 0.0000000000000000e+00  1.1217736384363836e-04 4.2051126382866488e-03 0.0000000000000000e+00  9.3851470657882967e-05 4.1961128395246071e-03 0.0000000000000000e+00  1.1463218210442579e-04 4.2616820232341266e-03 0.0000000000000000e+00  9.6216509771550061e-05 4.2535779284272827e-03 0.0000000000000000e+00  1.1691412004289912e-04 4.3180192399343157e-03 0.0000000000000000e+00  9.8388088411129187e-05 4.3108277512703182e-03 0.0000000000000000e+00  1.1902870034808043e-04 4.3740036992567927e-03 0.0000000000000000e+00  1.0038003794251309e-04 4.3677319211558778e-03 0.0000000000000000e+00  1.2098668508824304e-04 4.4295137645726998e-03 0.0000000000000000e+00  1.0221365606916700e-04 4.4241630801741157e-03 0.0000000000000000e+00  1.2280048822901015e-04 4.4844263172551949e-03 0.0000000000000000e+00  1.0391260810975698e-04 4.4799972141992654e-03 0.0000000000000000e+00  1.2448039526784333e-04 4.5386135330817362e-03 0.0000000000000000e+00  1.0549688793592061e-04 4.5351100102613111e-03 0.0000000000000000e+00  1.2603172109632742e-04 4.5919366890360171e-03 0.0000000000000000e+00  1.0697694920971100e-04 4.5893683235870364e-03 0.0000000000000000e+00  1.2745465245598921e-04 4.6442377100133951e-03 0.0000000000000000e+00  1.0834998882910250e-04 4.6426165583237904e-03 0.0000000000000000e+00  1.2874921450387345e-04 4.6953305237649665e-03 0.0000000000000000e+00  1.0960212673221072e-04 4.6946590555567887e-03 0.0000000000000000e+00  1.2992842662028190e-04 4.7449971292947632e-03 0.0000000000000000e+00  1.1072193687656970e-04 4.7452421564753789e-03 0.0000000000000000e+00  1.3103911373122266e-04 4.7929958018408554e-03 0.0000000000000000e+00  1.1173606524099851e-04 4.7940532865626499e-03 0.0000000000000000e+00  1.3218625896227164e-04 4.8390709755382717e-03 0.0000000000000000e+00  1.1278123763345892e-04 4.8407242440569476e-03 0.0000000000000000e+00  1.1408975723625613e-04 4.8849902656615809e-03 0.0000000000000000e+00  1.1581280244912217e-04 4.9269422643100887e-03 0.0000000000000000e+00  1.1783205591975973e-04 4.9666456670234014e-03 0.0000000000000000e+00  4.0125171289590652e-05 3.2163540896912326e-03 0.0000000000000000e+00  4.4001689335100687e-05 3.2634528290913117e-03 0.0000000000000000e+00  2.6507049693054304e-05 3.2423991020330556e-03 0.0000000000000000e+00  2.2532836346625039e-05 3.1946795145810754e-03 0.0000000000000000e+00  4.7592649479567818e-05 3.3131388015721778e-03 0.0000000000000000e+00  2.9973805640993353e-05 3.2933607966771786e-03 0.0000000000000000e+00  5.0761325713650919e-05 3.3645683983508597e-03 0.0000000000000000e+00  3.2822532805500998e-05 3.3460763554226743e-03 0.0000000000000000e+00  5.3586208923890935e-05 3.4170544614254314e-03 0.0000000000000000e+00  3.5254202078026267e-05 3.3996063671216862e-03 0.0000000000000000e+00  5.6219334092859977e-05 3.4701836537770966e-03 0.0000000000000000e+00  3.7516575323411908e-05 3.4535127182292839e-03 0.0000000000000000e+00  5.8804057509318584e-05 3.5237541344878640e-03 0.0000000000000000e+00  3.9802615213415215e-05 3.5076524099225295e-03 0.0000000000000000e+00  6.1443266374415866e-05 3.5776952079161501e-03 0.0000000000000000e+00  4.2230054900462689e-05 3.5620318732592551e-03 0.0000000000000000e+00  6.4193931506256001e-05 3.6320057882130029e-03 0.0000000000000000e+00  4.4849337044191470e-05 3.6167209963578724e-03 0.0000000000000000e+00  6.7074444404637413e-05 3.6867103520416391e-03 0.0000000000000000e+00  4.7662709651765376e-05 3.6717970914646268e-03 0.0000000000000000e+00  5.0642894452973826e-05 3.7273207471856234e-03 0.0000000000000000e+00  5.3745975210639355e-05 3.7833296114867824e-03 0.0000000000000000e+00  5.6918892658326678e-05 3.8398381401557116e-03 0.0000000000000000e+00  6.0103924961556035e-05 3.8968376262352349e-03 0.0000000000000000e+00  6.3242092517921440e-05 3.9542955588139691e-03 0.0000000000000000e+00  6.6276328817831470e-05 4.0121552043570572e-03 0.0000000000000000e+00  6.9154902335403969e-05 4.0703355104562333e-03 0.0000000000000000e+00  7.1836345408376700e-05 4.1287299792614369e-03 0.0000000000000000e+00  7.4294353914375634e-05 4.1872101386933001e-03 0.0000000000000000e+00  7.6520543494503708e-05 4.2456335889660968e-03 0.0000000000000000e+00  7.8524399149853139e-05 4.3038533512078092e-03 0.0000000000000000e+00  8.0330793997571818e-05 4.3617258877420347e-03 0.0000000000000000e+00  8.1975508356446389e-05 4.4191165396181599e-03 0.0000000000000000e+00  8.3498853099795117e-05 4.4759014421227412e-03 0.0000000000000000e+00  8.4937338882370452e-05 4.5319645403294473e-03 0.0000000000000000e+00  8.6313999734098862e-05 4.5871875460479000e-03 0.0000000000000000e+00  8.7629362436029821e-05 4.6414314963212312e-03 0.0000000000000000e+00  8.8856708280749254e-05 4.6945075389362989e-03 0.0000000000000000e+00  8.9952043540341548e-05 4.7461387708081391e-03 0.0000000000000000e+00  9.0883908189137220e-05 4.7959154949921588e-03 0.0000000000000000e+00  9.1801641770402145e-05 4.8432269946550224e-03 0.0000000000000000e+00  9.3123789491478929e-05 4.8876708817599422e-03 0.0000000000000000e+00  9.5086558830845684e-05 4.9295886051637424e-03 0.0000000000000000e+00  9.7721040469571306e-05 4.9696271732111216e-03 0.0000000000000000e+00  9.9848338750323050e-05 5.0067381292241342e-03 0.0000000000000000e+00  1.6055182607601306e-05 3.1095938062807816e-03 0.0000000000000000e+00  1.8766690114434351e-05 3.1509835315337025e-03 0.0000000000000000e+00  -2.2076538420357399e-07 3.1290763612769517e-03 0.0000000000000000e+00  3.7827263653658886e-06 3.1715450924660704e-03 0.0000000000000000e+00  7.9847949242437092e-06 3.2202694508561458e-03 0.0000000000000000e+00  1.1266442345893633e-05 3.2731762113103269e-03 0.0000000000000000e+00  1.3668987591527956e-05 3.3275782530113075e-03 0.0000000000000000e+00  1.5610896772737857e-05 3.3823008582042915e-03 0.0000000000000000e+00  1.7458889595030945e-05 3.4369865575129802e-03 0.0000000000000000e+00  1.9446897318542539e-05 3.4916305320242414e-03 0.0000000000000000e+00  2.1691274845199730e-05 3.5463643847267949e-03 0.0000000000000000e+00  2.4219985624352506e-05 3.6013570088961546e-03 0.0000000000000000e+00  2.7007550759357775e-05 3.6567488710243165e-03 0.0000000000000000e+00  3.0002359440679767e-05 3.7126367833759861e-03 0.0000000000000000e+00  3.3141481385949196e-05 3.7690793887866880e-03 0.0000000000000000e+00  3.6356856610030273e-05 3.8261043569471280e-03 0.0000000000000000e+00  3.9578017443779195e-05 3.8837112109045596e-03 0.0000000000000000e+00  4.2734362220694514e-05 3.9418710692047856e-03 0.0000000000000000e+00  4.5757673986853628e-05 4.0005262753094227e-03 0.0000000000000000e+00  4.8585395606667688e-05 4.0595898372662951e-03 0.0000000000000000e+00  5.1167725172419109e-05 4.1189406725609529e-03 0.0000000000000000e+00  5.3474986125076524e-05 4.1784283888413546e-03 0.0000000000000000e+00  5.5501385334420896e-05 4.2378859365781460e-03 0.0000000000000000e+00  5.7264713971401964e-05 4.2971434246307800e-03 0.0000000000000000e+00  5.8803244591982674e-05 4.3560393599781444e-03 0.0000000000000000e+00  6.0170716897921738e-05 4.4144286367845008e-03 0.0000000000000000e+00  6.1429392353513920e-05 4.4721869673778874e-03 0.0000000000000000e+00  6.2640308978191987e-05 4.5292103997111510e-03 0.0000000000000000e+00  6.3849901396599009e-05 4.5854059964654022e-03 0.0000000000000000e+00  6.5073489223831658e-05 4.6406701382457130e-03 0.0000000000000000e+00  6.6282306060600488e-05 4.6948504667243115e-03 0.0000000000000000e+00  6.7396756454823738e-05 4.7476753719388563e-03 0.0000000000000000e+00  6.8329902093171690e-05 4.7986830946129830e-03 0.0000000000000000e+00  6.9136143872117355e-05 4.8467716073784337e-03 0.0000000000000000e+00  7.0394074790647597e-05 4.8910318077842792e-03 0.0000000000000000e+00  7.2882446171655338e-05 4.9325896393796458e-03 0.0000000000000000e+00  7.6129624891677387e-05 4.9721006075421808e-03 0.0000000000000000e+00  8.2131941447906656e-05 5.0118937032065112e-03 0.0000000000000000e+00  7.8409612001523692e-05 5.0461160919267065e-03 0.0000000000000000e+00  -1.6234531335512905e-05 3.1461323415076497e-03 0.0000000000000000e+00  -1.1835223596899581e-05 3.1967470630899003e-03 0.0000000000000000e+00  -8.8799855143691533e-06 3.2527376704154553e-03 0.0000000000000000e+00  -7.0549363343979393e-06 3.3092990317809502e-03 0.0000000000000000e+00  -5.6452170928587816e-06 3.3653011059543766e-03 0.0000000000000000e+00  -4.1815273104072482e-06 3.4206899497326152e-03 0.0000000000000000e+00  -2.4211133110867727e-06 3.4757105498096261e-03 0.0000000000000000e+00  -2.7384029183031047e-07 3.5306727333199914e-03 0.0000000000000000e+00  2.2469669216487455e-06 3.5858728925519481e-03 0.0000000000000000e+00  5.0774834755107757e-06 3.6415179133701156e-03 0.0000000000000000e+00  8.1387422709544680e-06 3.6977346270474342e-03 0.0000000000000000e+00  1.1349986197189470e-05 3.7545967065386390e-03 0.0000000000000000e+00  1.4630479061597238e-05 3.8121421155539233e-03 0.0000000000000000e+00  1.7898896170545694e-05 3.8703778721687243e-03 0.0000000000000000e+00  2.1073977258277793e-05 3.9292787892527079e-03 0.0000000000000000e+00  2.4075906253920888e-05 3.9887869013551704e-03 0.0000000000000000e+00  2.6828793948987685e-05 4.0488099718424776e-03 0.0000000000000000e+00  2.9271942815586109e-05 4.1092076666418322e-03 0.0000000000000000e+00  3.1371344109862521e-05 4.1697991849426914e-03 0.0000000000000000e+00  3.3124357484738070e-05 4.2303839612800832e-03 0.0000000000000000e+00  3.4558355053436064e-05 4.2907616647154439e-03 0.0000000000000000e+00  3.5726494121633912e-05 4.3507467657046984e-03 0.0000000000000000e+00  3.6702316352217278e-05 4.4101788942026068e-03 0.0000000000000000e+00  3.7573183981208822e-05 4.4689302211809072e-03 0.0000000000000000e+00  3.8431032110051372e-05 4.5269096490320564e-03 0.0000000000000000e+00  3.9357848350113685e-05 4.5840588006717635e-03 0.0000000000000000e+00  4.0400227278926581e-05 4.6403333262484596e-03 0.0000000000000000e+00  4.1536632442442197e-05 4.6956530353721767e-03 0.0000000000000000e+00  4.2676847491825940e-05 4.7498285272907269e-03 0.0000000000000000e+00  4.3599609535920937e-05 4.8023545701252595e-03 0.0000000000000000e+00  4.4676743553324303e-05 4.8517706810881156e-03 0.0000000000000000e+00  4.5600815917178436e-05 4.8956751624368048e-03 0.0000000000000000e+00  4.7076584997329598e-05 4.9357446275104053e-03 0.0000000000000000e+00  5.1419511963052888e-05 4.9769106157785325e-03 0.0000000000000000e+00  4.9556206194938773e-05 5.0119873203489157e-03 0.0000000000000000e+00  4.8805787017710480e-05 5.0454556400140538e-03 0.0000000000000000e+00  4.8072343193215420e-05 5.0777763916586864e-03 0.0000000000000000e+00  -3.4201752804270411e-05 3.1713392804892000e-03 0.0000000000000000e+00  -3.1286518371329719e-05 3.2323640356520765e-03 0.0000000000000000e+00  -2.9908658497500240e-05 3.2915277282817585e-03 0.0000000000000000e+00  -2.8867296803894873e-05 3.3487577050405797e-03 0.0000000000000000e+00  -2.7608706839841334e-05 3.4046668622369543e-03 0.0000000000000000e+00  -2.5905187057481020e-05 3.4598686291254753e-03 0.0000000000000000e+00  -2.3703678274945646e-05 3.5148945508652286e-03 0.0000000000000000e+00  -2.1069654004571332e-05 3.5701960170101028e-03 0.0000000000000000e+00  -1.8108686123755505e-05 3.6260358085828193e-03 0.0000000000000000e+00  -1.4922660965123163e-05 3.6825538564984792e-03 0.0000000000000000e+00  -1.1603137917876579e-05 3.7398283928279600e-03 0.0000000000000000e+00  -8.2377014991659079e-06 3.7979044192807728e-03 0.0000000000000000e+00  -4.9148094854492556e-06 3.8567967563052433e-03 0.0000000000000000e+00  -1.7243105420086913e-06 3.9164851178982744e-03 0.0000000000000000e+00  1.2421770012376239e-06 3.9769139867367829e-03 0.0000000000000000e+00  3.8911997289143839e-06 4.0379902482744236e-03 0.0000000000000000e+00  6.1472623321501338e-06 4.0995476768334359e-03 0.0000000000000000e+00  7.9711627313166290e-06 4.1613626031202526e-03 0.0000000000000000e+00  9.3646110067538648e-06 4.2231894126886207e-03 0.0000000000000000e+00  1.0365902665550799e-05 4.2847887507156835e-03 0.0000000000000000e+00  1.1043477421324029e-05 4.3459444719617379e-03 0.0000000000000000e+00  1.1489942933654326e-05 4.4064751758435879e-03 0.0000000000000000e+00  1.1816499506777595e-05 4.4662438793997960e-03 0.0000000000000000e+00  1.2146095703398216e-05 4.5251679259968218e-03 0.0000000000000000e+00  1.2603170946594655e-05 4.5832249208081714e-03 0.0000000000000000e+00  1.3286875199392650e-05 4.6404550994390593e-03 0.0000000000000000e+00  1.4207712844650515e-05 4.6969162174888349e-03 0.0000000000000000e+00  1.5210014821764308e-05 4.7525208069258904e-03 0.0000000000000000e+00  1.6176113751739442e-05 4.8070995052262450e-03 0.0000000000000000e+00  1.7224054985633579e-05 4.8572188044482484e-03 0.0000000000000000e+00  2.2140235126990413e-05 4.9032496313114156e-03 0.0000000000000000e+00  1.9108881544373822e-05 4.9406699998936687e-03 0.0000000000000000e+00  1.8071774597894995e-05 4.9767848313403001e-03 0.0000000000000000e+00  1.7432408049706913e-05 5.0116654256068286e-03 0.0000000000000000e+00  1.6972958274994484e-05 5.0452489508375957e-03 0.0000000000000000e+00  1.6833180353642231e-05 5.0777194706306027e-03 0.0000000000000000e+00  1.6964065225195717e-05 5.1084366546576294e-03 0.0000000000000000e+00  -5.6860034378800873e-05 3.2125853320670267e-03 0.0000000000000000e+00  -5.5324375376549818e-05 3.2745421673756772e-03 0.0000000000000000e+00  -5.4213065944966275e-05 3.3327495269950954e-03 0.0000000000000000e+00  -5.2839390154080531e-05 3.3888927839453987e-03 0.0000000000000000e+00  -5.0954197377000263e-05 3.4440256280068270e-03 0.0000000000000000e+00  -4.8513851814523907e-05 3.4989225263906500e-03 0.0000000000000000e+00  -4.5636200608195598e-05 3.5542266661875736e-03 0.0000000000000000e+00  -4.2463604437358546e-05 3.6102216094255324e-03 0.0000000000000000e+00  -3.9107285955268758e-05 3.6670293820423383e-03 0.0000000000000000e+00  -3.5656684023912191e-05 3.7247193912645533e-03 0.0000000000000000e+00  -3.2198411230630785e-05 3.7833427192837036e-03 0.0000000000000000e+00  -2.8824151639357149e-05 3.8429246863555702e-03 0.0000000000000000e+00  -2.5629731735464896e-05 3.9034524104052310e-03 0.0000000000000000e+00  -2.2718627208043652e-05 3.9648792211150752e-03 0.0000000000000000e+00  -2.0209607770332663e-05 4.0271235574558034e-03 0.0000000000000000e+00  -1.8198690931090754e-05 4.0899817651922788e-03 0.0000000000000000e+00  -1.6729895296996775e-05 4.1531678505348476e-03 0.0000000000000000e+00  -1.5794005355310825e-05 4.2163764617021695e-03 0.0000000000000000e+00  -1.5339638676939419e-05 4.2793206628270871e-03 0.0000000000000000e+00  -1.5283556767782004e-05 4.3417480837095925e-03 0.0000000000000000e+00  -1.5517712677088944e-05 4.4034513050243600e-03 0.0000000000000000e+00  -1.5914209916482048e-05 4.4642782770201016e-03 0.0000000000000000e+00  -1.6330618197745237e-05 4.5241472978677687e-03 0.0000000000000000e+00  -1.6613905314539319e-05 4.5830619699744205e-03 0.0000000000000000e+00  -1.6620405222111576e-05 4.6411560755359156e-03 0.0000000000000000e+00  -1.6286069159036089e-05 4.6987325590273988e-03 0.0000000000000000e+00  -1.5846832032809641e-05 4.7561095157577201e-03 0.0000000000000000e+00  -1.6372732659986240e-05 4.8129545075234238e-03 0.0000000000000000e+00  -1.4145305371339448e-05 4.8658918336018358e-03 0.0000000000000000e+00  -1.4659212216829750e-05 4.9033954264509488e-03 0.0000000000000000e+00  -1.5217022358659991e-05 4.9403172248782658e-03 0.0000000000000000e+00  -1.5822083648921566e-05 4.9765265963706831e-03 0.0000000000000000e+00  -1.6150619158640760e-05 5.0115055707356726e-03 0.0000000000000000e+00  -1.6200020464017536e-05 5.0452528194433249e-03 0.0000000000000000e+00  -1.6077697702349002e-05 5.0778276633599347e-03 0.0000000000000000e+00  -1.5144222438766250e-05 5.1086299134613985e-03 0.0000000000000000e+00  -1.7566920080284911e-05 5.1426650453960266e-03 0.0000000000000000e+00  -8.2708096627726011e-05 3.2586453168262941e-03 0.0000000000000000e+00  -8.1189626198604497e-05 3.3173125278048920e-03 0.0000000000000000e+00  -7.9490927088893718e-05 3.3733111737403124e-03 0.0000000000000000e+00  -7.7267698145836719e-05 3.4280771149717737e-03 0.0000000000000000e+00  -7.4454650923591872e-05 3.4826215775005656e-03 0.0000000000000000e+00  -7.1249094808122136e-05 3.5378572198897064e-03 0.0000000000000000e+00  -6.7829397035087293e-05 3.5939997035739032e-03 0.0000000000000000e+00  -6.4295308348992180e-05 3.6511045478456691e-03 0.0000000000000000e+00  -6.0718047707183944e-05 3.7092209367061927e-03 0.0000000000000000e+00  -5.7178336496179486e-05 3.7684120848304023e-03 0.0000000000000000e+00  -5.3771303671944115e-05 3.8287195874627741e-03 0.0000000000000000e+00  -5.0596596447643101e-05 3.8901398178637098e-03 0.0000000000000000e+00  -4.7768765718624779e-05 3.9526469417461669e-03 0.0000000000000000e+00  -4.5446400040862535e-05 4.0162012034776788e-03 0.0000000000000000e+00  -4.3753439929324204e-05 4.0805371037640221e-03 0.0000000000000000e+00  -4.2734230444771902e-05 4.1452744458720043e-03 0.0000000000000000e+00  -4.2364558599511017e-05 4.2100303389936526e-03 0.0000000000000000e+00  -4.2575684844462401e-05 4.2744638151318822e-03 0.0000000000000000e+00  -4.3269775914164735e-05 4.3382833328700588e-03 0.0000000000000000e+00  -4.4327673150241539e-05 4.4012525310807293e-03 0.0000000000000000e+00  -4.5612883269082891e-05 4.4631995790670818e-03 0.0000000000000000e+00  -4.6976804798837292e-05 4.5240362588495706e-03 0.0000000000000000e+00  -4.8255947185803021e-05 4.5837688580355083e-03 0.0000000000000000e+00  -4.9281404949221966e-05 4.6425874946684383e-03 0.0000000000000000e+00  -4.9908494443801038e-05 4.7010162873299182e-03 0.0000000000000000e+00  -5.0073416600339126e-05 4.7600843759939898e-03 0.0000000000000000e+00  -5.0646845076216710e-05 4.8212509325690281e-03 0.0000000000000000e+00  -5.0234611997267351e-05 4.8652917649461254e-03 0.0000000000000000e+00  -5.0517217074947872e-05 4.9030439858293254e-03 0.0000000000000000e+00  -5.0850781947857040e-05 4.9401569209350455e-03 0.0000000000000000e+00  -5.1057237108475814e-05 4.9764155715936263e-03 0.0000000000000000e+00  -5.1058560672723917e-05 5.0115447019483299e-03 0.0000000000000000e+00  -5.0829614238566040e-05 5.0454619398829633e-03 0.0000000000000000e+00  -5.0081844769295068e-05 5.0780595341084660e-03 0.0000000000000000e+00  -5.2488768167085167e-05 5.1141788981877347e-03 0.0000000000000000e+00  -5.6231469920284526e-05 5.1497077630720473e-03 0.0000000000000000e+00  -6.0514837076494380e-05 5.1838465048076173e-03 0.0000000000000000e+00  -1.0846366687939633e-04 3.3026688043342220e-03 0.0000000000000000e+00  -1.0682496047989585e-04 3.3579579139052006e-03 0.0000000000000000e+00  -1.0435468332796239e-04 3.41195874344