<?xml version="1.0"?>
<VTKFile type="UnstructuredGrid"  version="0.1"  >
<UnstructuredGrid>
<Piece  NumberOfPoints="611" NumberOfCells="1123">
<Points>
<DataArray  type="Float64"  NumberOfComponents="3"  format="ascii">1.883478260869565 0.01666666666666667 0  1.9 0.01666666666666667 0  1.9 0.03333333333333333 0  1.883478260869565 0.03333333333333333 0  1.916521739130435 0.03333333333333333 0  1.9 0.05 0  1.883478260869565 0.05 0  1.916521739130435 0.05 0  1.933043478260869 0.05 0  1.9 0.06666666666666667 0  1.883478260869565 0.06666666666666667 0  1.916521739130435 0.06666666666666667 0  1.933043478260869 0.06666666666666667 0  1.949565217391304 0.06666666666666667 0  1.9 0.08333333333333333 0  1.883478260869565 0.08333333333333333 0  1.916521739130435 0.08333333333333333 0  1.933043478260869 0.08333333333333333 0  1.949565217391304 0.08333333333333333 0  1.966086956521739 0.08333333333333333 0  1.9 0.1 0  1.883478260869565 0.1 0  1.916521739130435 0.1 0  1.933043478260869 0.1 0  1.949565217391304 0.1 0  1.966086956521739 0.1 0  1.982608695652174 0.1 0  1.9 0.1166666666666667 0  1.883478260869565 0.1166666666666667 0  1.916521739130435 0.1166666666666667 0  1.933043478260869 0.1166666666666667 0  1.949565217391304 0.1166666666666667 0  1.966086956521739 0.1166666666666667 0  1.982608695652174 0.1166666666666667 0  1.999130434782608 0.1166666666666667 0  1.9 0.1333333333333333 0  1.883478260869565 0.1333333333333333 0  1.916521739130435 0.1333333333333333 0  1.933043478260869 0.1333333333333333 0  1.949565217391304 0.1333333333333333 0  1.966086956521739 0.1333333333333333 0  1.982608695652174 0.1333333333333333 0  1.999130434782608 0.1333333333333333 0  2.015652173913043 0.1166666666666667 0  2.015652173913043 0.1333333333333333 0  2.032173913043478 0.1166666666666667 0  2.032173913043478 0.1333333333333333 0  2.048695652173913 0.1166666666666667 0  2.048695652173913 0.1333333333333333 0  2.065217391304348 0.1166666666666667 0  2.065217391304348 0.1333333333333333 0  2.081739130434782 0.1166666666666667 0  2.081739130434782 0.1333333333333333 0  2.098260869565217 0.1333333333333333 0  1.9 0.15 0  1.883478260869565 0.15 0  1.916521739130435 0.15 0  1.933043478260869 0.15 0  1.949565217391304 0.15 0  1.966086956521739 0.15 0  1.982608695652174 0.15 0  1.999130434782608 0.15 0  2.015652173913043 0.15 0  2.032173913043478 0.15 0  2.048695652173913 0.15 0  2.065217391304348 0.15 0  2.081739130434782 0.15 0  2.098260869565217 0.15 0  2.114782608695652 0.15 0  1.9 0.1666666666666667 0  1.883478260869565 0.1666666666666667 0  1.916521739130435 0.1666666666666667 0  1.933043478260869 0.1666666666666667 0  1.949565217391304 0.1666666666666667 0  1.966086956521739 0.1666666666666667 0  1.982608695652174 0.1666666666666667 0  1.999130434782608 0.1666666666666667 0  2.015652173913043 0.1666666666666667 0  2.032173913043478 0.1666666666666667 0  2.048695652173913 0.1666666666666667 0  2.065217391304348 0.1666666666666667 0  2.081739130434782 0.1666666666666667 0  2.098260869565217 0.1666666666666667 0  2.114782608695652 0.1666666666666667 0  2.131304347826087 0.1666666666666667 0  1.9 0.1833333333333333 0  1.883478260869565 0.1833333333333333 0  1.916521739130435 0.1833333333333333 0  1.933043478260869 0.1833333333333333 0  1.949565217391304 0.1833333333333333 0  1.966086956521739 0.1833333333333333 0  1.982608695652174 0.1833333333333333 0  1.999130434782608 0.1833333333333333 0  2.015652173913043 0.1833333333333333 0  2.032173913043478 0.1833333333333333 0  2.048695652173913 0.1833333333333333 0  2.065217391304348 0.1833333333333333 0  2.081739130434782 0.1833333333333333 0  2.098260869565217 0.1833333333333333 0  2.114782608695652 0.1833333333333333 0  2.131304347826087 0.1833333333333333 0  2.147826086956522 0.1833333333333333 0  1.9 0.2 0  1.883478260869565 0.2 0  1.916521739130435 0.2 0  1.933043478260869 0.2 0  1.949565217391304 0.2 0  1.966086956521739 0.2 0  1.982608695652174 0.2 0  1.999130434782608 0.2 0  2.015652173913043 0.2 0  2.032173913043478 0.2 0  2.048695652173913 0.2 0  2.065217391304348 0.2 0  2.081739130434782 0.2 0  2.098260869565217 0.2 0  2.114782608695652 0.2 0  2.131304347826087 0.2 0  2.147826086956522 0.2 0  2.164347826086956 0.2 0  1.9 0.2166666666666667 0  1.883478260869565 0.2166666666666667 0  1.916521739130435 0.2166666666666667 0  1.933043478260869 0.2166666666666667 0  1.949565217391304 0.2166666666666667 0  1.966086956521739 0.2166666666666667 0  1.982608695652174 0.2166666666666667 0  1.999130434782608 0.2166666666666667 0  2.015652173913043 0.2166666666666667 0  2.032173913043478 0.2166666666666667 0  2.048695652173913 0.2166666666666667 0  2.065217391304348 0.2166666666666667 0  2.081739130434782 0.2166666666666667 0  2.098260869565217 0.2166666666666667 0  2.114782608695652 0.2166666666666667 0  2.131304347826087 0.2166666666666667 0  2.147826086956522 0.2166666666666667 0  2.164347826086956 0.2166666666666667 0  2.180869565217391 0.2166666666666667 0  1.9 0.2333333333333333 0  1.883478260869565 0.2333333333333333 0  1.916521739130435 0.2333333333333333 0  1.933043478260869 0.2333333333333333 0  1.949565217391304 0.2333333333333333 0  1.966086956521739 0.2333333333333333 0  1.982608695652174 0.2333333333333333 0  1.999130434782608 0.2333333333333333 0  2.015652173913043 0.2333333333333333 0  2.032173913043478 0.2333333333333333 0  2.048695652173913 0.2333333333333333 0  2.065217391304348 0.2333333333333333 0  2.081739130434782 0.2333333333333333 0  2.098260869565217 0.2333333333333333 0  2.114782608695652 0.2333333333333333 0  2.131304347826087 0.2333333333333333 0  2.147826086956522 0.2333333333333333 0  2.164347826086956 0.2333333333333333 0  2.180869565217391 0.2333333333333333 0  2.197391304347826 0.2333333333333333 0  1.9 0.25 0  1.916521739130435 0.25 0  1.933043478260869 0.25 0  1.949565217391304 0.25 0  1.966086956521739 0.25 0  1.982608695652174 0.25 0  1.999130434782608 0.25 0  2.015652173913043 0.25 0  2.032173913043478 0.25 0  2.048695652173913 0.25 0  2.065217391304348 0.25 0  2.081739130434782 0.25 0  2.098260869565217 0.25 0  2.114782608695652 0.25 0  2.131304347826087 0.25 0  2.147826086956522 0.25 0  2.164347826086956 0.25 0  2.180869565217391 0.25 0  2.197391304347826 0.25 0  2.213913043478261 0.25 0  1.916521739130435 0.2666666666666667 0  1.9 0.2666666666666667 0  1.933043478260869 0.2666666666666667 0  1.949565217391304 0.2666666666666667 0  1.966086956521739 0.2666666666666667 0  1.982608695652174 0.2666666666666667 0  1.999130434782608 0.2666666666666667 0  2.015652173913043 0.2666666666666667 0  2.032173913043478 0.2666666666666667 0  2.048695652173913 0.2666666666666667 0  2.065217391304348 0.2666666666666667 0  2.081739130434782 0.2666666666666667 0  2.098260869565217 0.2666666666666667 0  2.114782608695652 0.2666666666666667 0  2.131304347826087 0.2666666666666667 0  2.147826086956522 0.2666666666666667 0  2.164347826086956 0.2666666666666667 0  2.180869565217391 0.2666666666666667 0  2.197391304347826 0.2666666666666667 0  2.213913043478261 0.2666666666666667 0  2.230434782608695 0.25 0  2.230434782608695 0.2666666666666667 0  2.24695652173913 0.2666666666666667 0  1.916521739130435 0.2833333333333333 0  1.9 0.2833333333333333 0  1.933043478260869 0.2833333333333333 0  1.949565217391304 0.2833333333333333 0  1.966086956521739 0.2833333333333333 0  1.982608695652174 0.2833333333333333 0  1.999130434782608 0.2833333333333333 0  2.015652173913043 0.2833333333333333 0  2.032173913043478 0.2833333333333333 0  2.048695652173913 0.2833333333333333 0  2.065217391304348 0.2833333333333333 0  2.081739130434782 0.2833333333333333 0  2.098260869565217 0.2833333333333333 0  2.114782608695652 0.2833333333333333 0  2.131304347826087 0.2833333333333333 0  2.147826086956522 0.2833333333333333 0  2.164347826086956 0.2833333333333333 0  2.180869565217391 0.2833333333333333 0  2.197391304347826 0.2833333333333333 0  2.213913043478261 0.2833333333333333 0  2.230434782608695 0.2833333333333333 0  2.24695652173913 0.2833333333333333 0  2.263478260869565 0.2833333333333333 0  1.916521739130435 0.3 0  1.9 0.3 0  1.933043478260869 0.3 0  1.949565217391304 0.3 0  1.966086956521739 0.3 0  1.982608695652174 0.3 0  1.999130434782608 0.3 0  2.015652173913043 0.3 0  2.032173913043478 0.3 0  2.048695652173913 0.3 0  2.065217391304348 0.3 0  2.081739130434782 0.3 0  2.098260869565217 0.3 0  2.114782608695652 0.3 0  2.131304347826087 0.3 0  2.147826086956522 0.3 0  2.164347826086956 0.3 0  2.180869565217391 0.3 0  2.197391304347826 0.3 0  2.213913043478261 0.3 0  2.230434782608695 0.3 0  2.24695652173913 0.3 0  2.263478260869565 0.3 0  2.28 0.3 0  1.916521739130435 0.3166666666666667 0  1.9 0.3166666666666667 0  1.933043478260869 0.3166666666666667 0  1.949565217391304 0.3166666666666667 0  1.966086956521739 0.3166666666666667 0  1.982608695652174 0.3166666666666667 0  1.999130434782608 0.3166666666666667 0  2.015652173913043 0.3166666666666667 0  2.032173913043478 0.3166666666666667 0  2.048695652173913 0.3166666666666667 0  2.065217391304348 0.3166666666666667 0  2.081739130434782 0.3166666666666667 0  2.098260869565217 0.3166666666666667 0  2.114782608695652 0.3166666666666667 0  2.131304347826087 0.3166666666666667 0  2.147826086956522 0.3166666666666667 0  2.164347826086956 0.3166666666666667 0  2.180869565217391 0.3166666666666667 0  2.197391304347826 0.3166666666666667 0  2.213913043478261 0.3166666666666667 0  2.230434782608695 0.3166666666666667 0  2.24695652173913 0.3166666666666667 0  2.263478260869565 0.3166666666666667 0  2.28 0.3166666666666667 0  2.296521739130434 0.3166666666666667 0  1.916521739130435 0.3333333333333333 0  1.9 0.3333333333333333 0  1.933043478260869 0.3333333333333333 0  1.949565217391304 0.3333333333333333 0  1.966086956521739 0.3333333333333333 0  1.982608695652174 0.3333333333333333 0  1.999130434782608 0.3333333333333333 0  2.015652173913043 0.3333333333333333 0  2.032173913043478 0.3333333333333333 0  2.048695652173913 0.3333333333333333 0  2.06521739
[...]
<PointData  Vectors="Displacement"> 
<DataArray  type="Float64"  Name="Displacement"  NumberOfComponents="3" format="ascii">2.5948827584230835e-04 2.6572427862466426e-03 0.0000000000000000e+00  2.6035707220562089e-04 2.6861598143697106e-03 0.0000000000000000e+00  2.3276844972700374e-04 2.6858933012394374e-03 0.0000000000000000e+00  2.3030070192286197e-04 2.6568107547305831e-03 0.0000000000000000e+00  2.3449504265020291e-04 2.7131829848026892e-03 0.0000000000000000e+00  2.0672725381481926e-04 2.6852923689022539e-03 0.0000000000000000e+00  2.0167089578366500e-04 2.6557596517948604e-03 0.0000000000000000e+00  2.0940508026024676e-04 2.7129449552942141e-03 0.0000000000000000e+00  2.1100065891273661e-04 2.7391075567124688e-03 0.0000000000000000e+00  1.8367203167540520e-04 2.6823608681657151e-03 0.0000000000000000e+00  1.8067385849455117e-04 2.6521575121281008e-03 0.0000000000000000e+00  1.8575570386783667e-04 2.7128772737955299e-03 0.0000000000000000e+00  1.8732695694732783e-04 2.7391425406284803e-03 0.0000000000000000e+00  1.8854884162677855e-04 2.7647837136926291e-03 0.0000000000000000e+00  1.6287659808419394e-04 2.6798350995415458e-03 0.0000000000000000e+00  1.5998751404671283e-04 2.6492198018754753e-03 0.0000000000000000e+00  1.6549064897093368e-04 2.7101983899270421e-03 0.0000000000000000e+00  1.6770773941527853e-04 2.7389224360056187e-03 0.0000000000000000e+00  1.6760523527897328e-04 2.7667653921776138e-03 0.0000000000000000e+00  1.6754573291012824e-04 2.7902796423267969e-03 0.0000000000000000e+00  1.4244218831341326e-04 2.6774144793969882e-03 0.0000000000000000e+00  1.3966673597937704e-04 2.6467346916414407e-03 0.0000000000000000e+00  1.4510797147645555e-04 2.7078396760351754e-03 0.0000000000000000e+00  1.4750619610023050e-04 2.7380386523414867e-03 0.0000000000000000e+00  1.4963202664592797e-04 2.7710418509175184e-03 0.0000000000000000e+00  1.4886863723229338e-04 2.7924936432271244e-03 0.0000000000000000e+00  1.4859779859507994e-04 2.8120496668175539e-03 0.0000000000000000e+00  1.2238998350656694e-04 2.6750799486041374e-03 0.0000000000000000e+00  1.1973012637992234e-04 2.6446333822676060e-03 0.0000000000000000e+00  1.2517148985043949e-04 2.7053916503348790e-03 0.0000000000000000e+00  1.2801417397373678e-04 2.7358948247976052e-03 0.0000000000000000e+00  1.3086543286141943e-04 2.7675408698909273e-03 0.0000000000000000e+00  1.3203245563487355e-04 2.7946491615788533e-03 0.0000000000000000e+00  1.3175559344059997e-04 2.8128715538616291e-03 0.0000000000000000e+00  1.3181127866981993e-04 2.8302932123696637e-03 0.0000000000000000e+00  1.0258882801936919e-04 2.6728119258854917e-03 0.0000000000000000e+00  1.0006795226186363e-04 2.6428439511508952e-03 0.0000000000000000e+00  1.0542471517204860e-04 2.7027370399521689e-03 0.0000000000000000e+00  1.0857297616731781e-04 2.7329786307374389e-03 0.0000000000000000e+00  1.1212091898054404e-04 2.7642437015077685e-03 0.0000000000000000e+00  1.1656684922358052e-04 2.7977968990608609e-03 0.0000000000000000e+00  1.1620482554485681e-04 2.8138571622188958e-03 0.0000000000000000e+00  1.1632858746060962e-04 2.8302054253677446e-03 0.0000000000000000e+00  1.3198111471340911e-04 2.8462063901625190e-03 0.0000000000000000e+00  1.1660866780116748e-04 2.8457895671890510e-03 0.0000000000000000e+00  1.3193029735467424e-04 2.8606838098425200e-03 0.0000000000000000e+00  1.1673337940219416e-04 2.8604141480241983e-03 0.0000000000000000e+00  1.3271308216194721e-04 2.8864858906795759e-03 0.0000000000000000e+00  1.1578094624430472e-04 2.8803665203943696e-03 0.0000000000000000e+00  1.3300848948701399e-04 2.9102621204239805e-03 0.0000000000000000e+00  1.1613723676933302e-04 2.9026693605501645e-03 0.0000000000000000e+00  1.3370731434413197e-04 2.9344737012897662e-03 0.0000000000000000e+00  1.1712275059602719e-04 2.9251399015014887e-03 0.0000000000000000e+00  1.1835400659165208e-04 2.9503235713164194e-03 0.0000000000000000e+00  8.2954907876593055e-05 2.6706024132193331e-03 0.0000000000000000e+00  8.0584590993504256e-05 2.6413106542116636e-03 0.0000000000000000e+00  8.5798898216577716e-05 2.6998833780471085e-03 0.0000000000000000e+00  8.9164570708129859e-05 2.7294430378615913e-03 0.0000000000000000e+00  9.3213370782721167e-05 2.7597243458143245e-03 0.0000000000000000e+00  9.8280852411441875e-05 2.7910969449313002e-03 0.0000000000000000e+00  1.0169455191977799e-04 2.8146963855066394e-03 0.0000000000000000e+00  1.0175692349198546e-04 2.8303590369496302e-03 0.0000000000000000e+00  1.0202584924379951e-04 2.8456324240331561e-03 0.0000000000000000e+00  1.0226421018983107e-04 2.8602951334980426e-03 0.0000000000000000e+00  1.0237532589147801e-04 2.8744245864388259e-03 0.0000000000000000e+00  1.0155425835661282e-04 2.8950812080358120e-03 0.0000000000000000e+00  1.0229470893239630e-04 2.9148307059323375e-03 0.0000000000000000e+00  1.0338978157698241e-04 2.9392555182930456e-03 0.0000000000000000e+00  1.0448813678584167e-04 2.9659416641105441e-03 0.0000000000000000e+00  6.3403379670230303e-05 2.6684646071387552e-03 0.0000000000000000e+00  6.1198431621635181e-05 2.6399986291344170e-03 0.0000000000000000e+00  6.6195116012301788e-05 2.6969024199502245e-03 0.0000000000000000e+00  6.9648948401539290e-05 2.7255014898629974e-03 0.0000000000000000e+00  7.3957186060152322e-05 2.7544992713016557e-03 0.0000000000000000e+00  7.9518675779188813e-05 2.7841132581541230e-03 0.0000000000000000e+00  8.7210703741754162e-05 2.8150292950598023e-03 0.0000000000000000e+00  8.7510776042220252e-05 2.8306332071248094e-03 0.0000000000000000e+00  8.7876853758718233e-05 2.8456408132338214e-03 0.0000000000000000e+00  8.8253522978279332e-05 2.8602737238759214e-03 0.0000000000000000e+00  8.8540387812042153e-05 2.8744760608572740e-03 0.0000000000000000e+00  8.8776196924065005e-05 2.8883412873185639e-03 0.0000000000000000e+00  8.9090136969324448e-05 2.9031950220611107e-03 0.0000000000000000e+00  8.9633233505447156e-05 2.9276435364222761e-03 0.0000000000000000e+00  9.0191101920214758e-05 2.9538724039971441e-03 0.0000000000000000e+00  9.1075662427437642e-05 2.9813099912030651e-03 0.0000000000000000e+00  4.3852541391967111e-05 2.6664405507576842e-03 0.0000000000000000e+00  4.1842478860386697e-05 2.6388955287042003e-03 0.0000000000000000e+00  4.6499142911588301e-05 2.6939231981805097e-03 0.0000000000000000e+00  4.9836157938854468e-05 2.7214487629275987e-03 0.0000000000000000e+00  5.3982467729796618e-05 2.7491117526622301e-03 0.0000000000000000e+00  5.9142540846591204e-05 2.7769246649443167e-03 0.0000000000000000e+00  6.5628114613635344e-05 2.8047474263684143e-03 0.0000000000000000e+00  7.3706750898721636e-05 2.8309043424643021e-03 0.0000000000000000e+00  7.3997422678354492e-05 2.8456906323753059e-03 0.0000000000000000e+00  7.4533601031823485e-05 2.8602882851468457e-03 0.0000000000000000e+00  7.5012531697091960e-05 2.8745024746927856e-03 0.0000000000000000e+00  7.5393688029535920e-05 2.8883762987809542e-03 0.0000000000000000e+00  7.5698739568407552e-05 2.9020595094651608e-03 0.0000000000000000e+00  7.5967052585567167e-05 2.9156694657040648e-03 0.0000000000000000e+00  7.6346942770359532e-05 2.9417395599735407e-03 0.0000000000000000e+00  7.6733066736230337e-05 2.9681909609688617e-03 0.0000000000000000e+00  7.8461903176343833e-05 2.9944635465119834e-03 0.0000000000000000e+00  2.4297904073977189e-05 2.6645655997134953e-03 0.0000000000000000e+00  2.2493648092355945e-05 2.6379952973620774e-03 0.0000000000000000e+00  2.6758248332879939e-05 2.6910418014275263e-03 0.0000000000000000e+00  2.9905126649545583e-05 2.7174727513239387e-03 0.0000000000000000e+00  3.3799864481236690e-05 2.7438720203466598e-03 0.0000000000000000e+00  3.8528885493801731e-05 2.7701516939062695e-03 0.0000000000000000e+00  4.4166743619038339e-05 2.7959913181248614e-03 0.0000000000000000e+00  5.0596076104174532e-05 2.8202872489152837e-03 0.0000000000000000e+00  5.6865165968140603e-05 2.8411053355056944e-03 0.0000000000000000e+00  6.1158841596493707e-05 2.8602891232943875e-03 0.0000000000000000e+00  6.1819046594916739e-05 2.8745621734703182e-03 0.0000000000000000e+00  6.2254835707759522e-05 2.8883868313287877e-03 0.0000000000000000e+00  6.2676939867753375e-05 2.9021140513984314e-03 0.0000000000000000e+00  6.3075560593281230e-05 2.9158262610429280e-03 0.0000000000000000e+00  6.3672298252676038e-05 2.9298903355044243e-03 0.0000000000000000e+00  6.3003282983083330e-05 2.9553135353143885e-03 0.0000000000000000e+00  6.4691984453603388e-05 2.9778866002853391e-03 0.0000000000000000e+00  6.6757441094228523e-05 3.0083450626413296e-03 0.0000000000000000e+00  4.7574091873606640e-06 2.6628544052319987e-03 0.0000000000000000e+00  3.1516346430083344e-06 2.6372889139706620e-03 0.0000000000000000e+00  7.0309814841699202e-06 2.6883006952056849e-03 0.0000000000000000e+00  9.9918515645680331e-06 2.7136416039606074e-03 0.0000000000000000e+00  1.3677031787180521e-05 2.7388488222999737e-03 0.0000000000000000e+00  1.8133608400360287e-05 2.7638013880724728e-03 0.0000000000000000e+00  2.3389645854019333e-05 2.7881988226238778e-03 0.0000000000000000e+00  2.9362754399610741e-05 2.8113932129305353e-03 0.0000000000000000e+00  3.5678812222174242e-05 2.8326834240270976e-03 0.0000000000000000e+00  4.1888063485577075e-05 2.8530830891031586e-03 0.0000000000000000e+00  4.8888469322305997e-05 2.8746975474299228e-03 0.0000000000000000e+00  4.9225889267401677e-05 2.8884189047603411e-03 0.0000000000000000e+00  4.9627040367283929e-05 2.9021262800557742e-03 0.0000000000000000e+00  5.0050454660641998e-05 2.9158945913513963e-03 0.0000000000000000e+00  5.0550372724155998e-05 2.9299268934336489e-03 0.0000000000000000e+00  5.1116465207856859e-05 2.9443051024478518e-03 0.0000000000000000e+00  5.1432288555972944e-05 2.9587731931626240e-03 0.0000000000000000e+00  5.3085623291860342e-05 2.9912785493685086e-03 0.0000000000000000e+00  5.4332157635298601e-05 3.0241753513119388e-03 0.0000000000000000e+00  -1.4766045680601399e-05 2.6613121434286000e-03 0.0000000000000000e+00  -1.6182171909614475e-05 2.6367672119457326e-03 0.0000000000000000e+00  -1.2676491141839502e-05 2.6857201936790935e-03 0.0000000000000000e+00  -9.9005656452694983e-06 2.7099860514234208e-03 0.0000000000000000e+00  -6.4170125644697619e-06 2.7340649940073513e-03 0.0000000000000000e+00  -2.2057094607195633e-06 2.7578405179561820e-03 0.0000000000000000e+00  2.7259331314709779e-06 2.7810836859006108e-03 0.0000000000000000e+00  8.2841296635085126e-06 2.8034314993093481e-03 0.0000000000000000e+00  1.4212142063674611e-05 2.8246282720944811e-03 0.0000000000000000e+00  2.0186093157171172e-05 2.8451598213353781e-03 0.0000000000000000e+00  2.6174596251102711e-05 2.8655862901898199e-03 0.0000000000000000e+00  3.1881899865459188e-05 2.8839181514398035e-03 0.0000000000000000e+00  3.6438802516428141e-05 2.9021686490016243e-03 0.0000000000000000e+00  3.6743549926973876e-05 2.9159228700819610e-03 0.0000000000000000e+00  3.7069776408907882e-05 2.9299484113414864e-03 0.0000000000000000e+00  3.7485861601654827e-05 2.9443237871721217e-03 0.0000000000000000e+00  3.7948453188113186e-05 2.9590216250823457e-03 0.0000000000000000e+00  3.8457189588686352e-05 2.9742930282760055e-03 0.0000000000000000e+00  3.9476529976295670e-05 3.0073325558582732e-03 0.0000000000000000e+00  4.0470989835937564e-05 3.0405167891518841e-03 0.0000000000000000e+00  -3.4276050312417279e-05 2.6599433722027431e-03 0.0000000000000000e+00  -3.2374966292207564e-05 2.6833154341907748e-03 0.0000000000000000e+00  -2.9794456152383918e-05 2.7065281641395406e-03 0.0000000000000000e+00  -2.6525298572116877e-05 2.7295367574906634e-03 0.0000000000000000e+00  -2.2565999517705654e-05 2.7522468599712148e-03 0.0000000000000000e+00  -1.7942813766146447e-05 2.7745025775192441e-03 0.0000000000000000e+00  -1.2742356995300081e-05 2.7961087831194346e-03 0.0000000000000000e+00  -7.1346502628623387e-06 2.8169780749306723e-03 0.0000000000000000e+00  -1.3038679187047401e-06 2.8373439601410561e-03 0.0000000000000000e+00  4.7065161423123062e-06 2.8573826496216728e-03 0.0000000000000000e+00  1.0848653028732623e-05 2.8765113862036264e-03 0.0000000000000000e+00  1.6861698417220626e-05 2.8957289493181208e-03 0.0000000000000000e+00  2.3210084276988711e-05 2.9160202940403095e-03 0.0000000000000000e+00  2.3364256706887279e-05 2.9299735291705388e-03 0.0000000000000000e+00  2.3587743422835343e-05 2.9443076777503105e-03 0.0000000000000000e+00  2.3979191257870352e-05 2.9591340819684398e-03 0.0000000000000000e+00  2.4522895966407606e-05 2.9745580501263670e-03 0.0000000000000000e+00  2.5231442685545623e-05 2.9909519339481861e-03 0.0000000000000000e+00  2.4928115188446051e-05 3.0234591447146518e-03 0.0000000000000000e+00  2.7506477573482101e-05 3.0517590791088903e-03 0.0000000000000000e+00  -5.2070783700393482e-05 2.6810999375304367e-03 0.0000000000000000e+00  -5.3771598784065121e-05 2.6587544698297829e-03 0.0000000000000000e+00  -4.9704126706788593e-05 2.7032846900292779e-03 0.0000000000000000e+00  -4.6671322419204183e-05 2.7252728837787099e-03 0.0000000000000000e+00  -4.2982417072898356e-05 2.7469972058605558e-03 0.0000000000000000e+00  -3.8671011722849392e-05 2.7683602364419460e-03 0.0000000000000000e+00  -3.3810088427613427e-05 2.7892618867877560e-03 0.0000000000000000e+00  -2.8514268047305115e-05 2.8096784240665795e-03 0.0000000000000000e+00  -2.2896646353810198e-05 2.8297277857127568e-03 0.0000000000000000e+00  -1.7005885404103063e-05 2.8494899351137761e-03 0.0000000000000000e+00  -1.0887777304114996e-05 2.8688507440340432e-03 0.0000000000000000e+00  -4.6429444533756213e-06 2.8883653925582090e-03 0.0000000000000000e+00  1.9123099015603709e-06 2.9085974262672916e-03 0.0000000000000000e+00  9.1537097567446812e-06 2.9300117590518350e-03 0.0000000000000000e+00  9.1965534538602083e-06 2.9442780986127671e-03 0.0000000000000000e+00  9.3204722638233413e-06 2.9591284517221897e-03 0.0000000000000000e+00  9.6800663985758640e-06 2.9746505199066977e-03 0.0000000000000000e+00  1.0286189475414206e-05 2.9911583459935939e-03 0.0000000000000000e+00  1.1173663919641096e-05 3.0089660280655036e-03 0.0000000000000000e+00  1.1690438588126745e-05 3.0274083686627224e-03 0.0000000000000000e+00  3.0466242257885084e-05 3.0897388580295375e-03 0.0000000000000000e+00  1.4169400417358917e-05 3.0686306916758530e-03 0.0000000000000000e+00  1.6055182607601306e-05 3.1095938062807816e-03 0.0000000000000000e+00  -7.1757602072280931e-05 2.6790859051806204e-03 0.0000000000000000e+00  -7.3240978101323754e-05 2.6577534254024846e-03 0.0000000000000000e+00  -6.9627971111224464e-05 2.7002681659788158e-03 0.0000000000000000e+00  -6.6858161175515550e-05 2.7212774687854651e-03 0.0000000000000000e+00  -6.3465088623956904e-05 2.7420724093195829e-03 0.0000000000000000e+00  -5.9484607997875226e-05 2.7625987888944235e-03 0.0000000000000000e+00  -5.4978560610486833e-05 2.7828112356492302e-03 0.0000000000000000e+00  -5.0031510976473633e-05 2.8027135092876044e-03 0.0000000000000000e+00  -4.4726792460447488e-05 2.8223767664698929e-03 0.0000000000000000e+00  -3.9121485552249476e-05 2.8418638349028331e-03 0.0000000000000000e+00  -3.3270724184513265e-05 2.8612141329944093e-03 0.0000000000000000e+00  -2.7229864061399240e-05 2.8807579523118273e-03 0.0000000000000000e+00  -2.0908410347758032e-05 2.9008320449360491e-03 0.0000000000000000e+00  -1.4054358117788751e-05 2.9217450455450746e-03 0.0000000000000000e+00  -6.0355209557125884e-06 2.9442193244624292e-03 0.0000000000000000e+00  -6.0747502702530249e-06 2.9591251773536209e-03 0.0000000000000000e+00  -6.1185672753603398e-06 2.9746171843025295e-03 0.0000000000000000e+00  -5.9551409591028247e-06 2.9912335826638202e-03 0.0000000000000000e+00  -5.5143699836709222e-06 3.0090318902373874e-03 0.0000000000000000e+00  -4.8421855797249157e-06 3.0278058072374949e-03 0.0000000000000000e+00  -3.9742160020584989e-06 3.0479253972355070e-03 0.0000000000000000e+00  -2.5452915691053775e-06 3.0892900962244648e-03 0.0000000000000000e+00  -2.2076538420357399e-07 3.1290763612769517e-03 0.0000000000000000e+00  -9.1413634236361415e-05 2.6772840830293194e-03 0.0000000000000000e+00  -9.2659075717440166e-05 2.6569490268479948e-03 0.0000000000000000e+00  -8.9546564525029885e-05 2.6974879105982150e-03 0.0000000000000000e+00  -8.7068345034280566e-05 2.7175522213004275e-03 0.0000000000000000e+00  -8.3999877950420500e-05 2.7374584520923522e-03 0.0000000000000000e+00  -8.0377336708649480e-05 2.7571841285727659e-03 0.0000000000000000e+00  -7.6255196682030587e-05 2.7767177431873395e-03 0.0000000000000000e+00  -7.1702845520254437e-05 2.7960792929857684e-03 0.0000000000000000e+00  -6.6792363633875947e-05 2.8153255821903871e-03 0.0000000000000000e+00  -6.1589000838853180e-05 2.8345219324149348e-03 0.0000000000000000e+00  -5.6161075538765286e-05 2.8537541050338414e-03 0.0000000000000000e+00  -5.0576014143500104e-05 2.8732384686209365e-03 0.0000000000000000e+00  -4.4851765244899100e-05 2.8931903847364856e-03 0.0000000000000000e+00  -3.8985400141211690e-05 2.9137667155742586e-03 0.0000000000000000e+00  -3.3025807995340031e-05 2.9349293188399984e-03 0.0000000000000000e+00  -2.7648762655217008e-05 2.9543712811616655e-03 0.0000000000000000e+00  -2.3014688499042921e-05 2.9745932088815199e-03 0.0000000000000000e+00  -2.3199707071621196e-05 2.9911796355099694e-03 0.0000000000000000e+00  -2.3132332252104991e-05 3.0090299180106049e-03 0.0000000000000000e+00  -2.2731759014851113e-05 3.0280186386022296e-03 0.0000000000000000e+00  -2.2003506518130854e-05 3.0482731809512303e-03 0.0000000000000000e+00  -2.0883610657411908e-05 3.0701098532086952e-03 0.0000000000000000e+00  -1.9847441791225492e-05 3.1065155378076246e-03 0.0000000000000000e+00  -1.6234531335512905e-05 3.1461323415076497e-03 0.0000000000000000e+00  -1.1100131705816500e-04 2.6757036947818477e-03 0.0000000000000000e+00  -1.1198658578977175e-04 2.6563501457199054e-03 0.0000000000000000e+00  -1.0942311333577955e-04 2.6949507232873347e-03 0.0000000000000000e+00  -1.0726520868617835e-04 2.7140973071988119e-03 0.0000000000000000e+00  -1.0455044846663611e-04 2.7331444739431871e-03 0.0000000000000000e+00  -1.0131414173828049e-04 2.7520936158642404e-03 0.0000000000000000e+00  -9.7605261788559863e-05 2.7709562221153615e-03 0.0000000000000000e+00  -9.3483852407968957e-05 2.7897647240771924e-03 0.0000000000000000e+00  -8.9014512191936648e-05 2.8085747402276963e-03 0.0000000000000000e+00  -8.4261587460974721e-05 2.8274558697613450e-03 0.0000000000000000e+00  -7.9290506007797696e-05 2.8465022768715963e-03 0.0000000000000000e+00  -7.4159644415954917e-05 2.8658668127693101e-03 0.0000000000000000e+00  -6.8895525887382805e-05 2.8856930887574410e-03 0.0000000000000000e+00  -6.3496986688446743e-05 2.9060607106901233e-03 0.0000000000000000e+00  -5.7957470195007137e-05 2.9268582077399304e-03 0.0000000000000000e+00  -5.2406366166058730e-05 2.9473231672402064e-03 0.0000000000000000e+00  -4.7141797695558548e-05 2.9684422065767483e-03 0.0000000000000000e+00  -4.1746043699714552e-05 2.9910777375920720e-03 0.0000000000000000e+00  -4.1958241041285714e-05 3.0089097450405624e-03 0.0000000000000000e+00  -4.1988880414968812e-05 3.0280419528379895e-03 0.0000000000000000e+00  -4.1710196036043605e-05 3.0484531795434652e-03 0.0000000000000000e+00  -4.1120914165396789e-05 3.0701825841444566e-03 0.0000000000000000e+00  -4.0315801365216762e-05 3.0930472207252335e-03 0.0000000000000000e+00  -3.9823288824576107e-05 3.1166914194172678e-03 0.0000000000000000e+00  -3.4201752804270411e-05 3.1713392804892000e-03 0.0000000000000000e+00  -1.3046819798599428e-04 2.6743526397249762e-03 0.0000000000000000e+00  -1.3117021269565358e-04 2.6559653569831875e-03 0.0000000000000000e+00  -1.2920528491743038e-04 2.6926616177311404e-03 0.0000000000000000e+00  -1.2739604936733715e-04 2.7109119857591248e-03 0.0000000000000000e+00  -1.2506368552468220e-04 2.7291214939248036e-03 0.0000000000000000e+00  -1.2224161581483246e-04 2.7473100925770491e-03 0.0000000000000000e+00  -1.1897379820963375e-04 2.7655061738738186e-03 0.0000000000000000e+00  -1.1531275414598838e-04 2.7837525593044947e-03 0.0000000000000000e+00  -1.1131558865251165e-04 2.802