<?xml version="1.0"?>
<VTKFile type="UnstructuredGrid"  version="0.1"  >
<UnstructuredGrid>
<Piece  NumberOfPoints="639" NumberOfCells="1175">
<Points>
<DataArray  type="Float64"  NumberOfComponents="3"  format="ascii">1.321739130434783 0 0  1.338260869565217 0 0  1.338260869565217 0.01666666666666667 0  1.354782608695652 0 0  1.354782608695652 0.01666666666666667 0  1.371304347826087 0 0  1.371304347826087 0.01666666666666667 0  1.387826086956522 0 0  1.387826086956522 0.01666666666666667 0  1.404347826086957 0 0  1.404347826086957 0.01666666666666667 0  1.420869565217391 0 0  1.420869565217391 0.01666666666666667 0  1.437391304347826 0 0  1.437391304347826 0.01666666666666667 0  1.453913043478261 0 0  1.453913043478261 0.01666666666666667 0  1.470434782608696 0 0  1.470434782608696 0.01666666666666667 0  1.486956521739131 0 0  1.486956521739131 0.01666666666666667 0  1.503478260869565 0 0  1.503478260869565 0.01666666666666667 0  1.52 0 0  1.52 0.01666666666666667 0  1.536521739130435 0 0  1.536521739130435 0.01666666666666667 0  1.55304347826087 0 0  1.55304347826087 0.01666666666666667 0  1.569565217391304 0 0  1.569565217391304 0.01666666666666667 0  1.586086956521739 0 0  1.586086956521739 0.01666666666666667 0  1.602608695652174 0 0  1.602608695652174 0.01666666666666667 0  1.619130434782609 0 0  1.619130434782609 0.01666666666666667 0  1.635652173913043 0 0  1.635652173913043 0.01666666666666667 0  1.652173913043478 0 0  1.652173913043478 0.01666666666666667 0  1.668695652173913 0 0  1.668695652173913 0.01666666666666667 0  1.685217391304348 0 0  1.685217391304348 0.01666666666666667 0  1.701739130434782 0 0  1.701739130434782 0.01666666666666667 0  1.718260869565217 0 0  1.718260869565217 0.01666666666666667 0  1.734782608695652 0 0  1.734782608695652 0.01666666666666667 0  1.751304347826087 0 0  1.751304347826087 0.01666666666666667 0  1.767826086956522 0 0  1.767826086956522 0.01666666666666667 0  1.784347826086957 0 0  1.784347826086957 0.01666666666666667 0  1.800869565217391 0 0  1.800869565217391 0.01666666666666667 0  1.817391304347826 0 0  1.817391304347826 0.01666666666666667 0  1.833913043478261 0 0  1.833913043478261 0.01666666666666667 0  1.850434782608696 0 0  1.850434782608696 0.01666666666666667 0  1.86695652173913 0 0  1.86695652173913 0.01666666666666667 0  1.883478260869565 0 0  1.883478260869565 0.01666666666666667 0  1.354782608695652 0.03333333333333333 0  1.371304347826087 0.03333333333333333 0  1.387826086956522 0.03333333333333333 0  1.404347826086957 0.03333333333333333 0  1.420869565217391 0.03333333333333333 0  1.437391304347826 0.03333333333333333 0  1.453913043478261 0.03333333333333333 0  1.470434782608696 0.03333333333333333 0  1.486956521739131 0.03333333333333333 0  1.503478260869565 0.03333333333333333 0  1.52 0.03333333333333333 0  1.536521739130435 0.03333333333333333 0  1.55304347826087 0.03333333333333333 0  1.569565217391304 0.03333333333333333 0  1.586086956521739 0.03333333333333333 0  1.602608695652174 0.03333333333333333 0  1.619130434782609 0.03333333333333333 0  1.635652173913043 0.03333333333333333 0  1.652173913043478 0.03333333333333333 0  1.668695652173913 0.03333333333333333 0  1.685217391304348 0.03333333333333333 0  1.701739130434782 0.03333333333333333 0  1.718260869565217 0.03333333333333333 0  1.734782608695652 0.03333333333333333 0  1.751304347826087 0.03333333333333333 0  1.767826086956522 0.03333333333333333 0  1.784347826086957 0.03333333333333333 0  1.800869565217391 0.03333333333333333 0  1.817391304347826 0.03333333333333333 0  1.833913043478261 0.03333333333333333 0  1.850434782608696 0.03333333333333333 0  1.86695652173913 0.03333333333333333 0  1.883478260869565 0.03333333333333333 0  1.371304347826087 0.05 0  1.387826086956522 0.05 0  1.404347826086957 0.05 0  1.420869565217391 0.05 0  1.437391304347826 0.05 0  1.453913043478261 0.05 0  1.470434782608696 0.05 0  1.486956521739131 0.05 0  1.503478260869565 0.05 0  1.52 0.05 0  1.536521739130435 0.05 0  1.55304347826087 0.05 0  1.569565217391304 0.05 0  1.586086956521739 0.05 0  1.602608695652174 0.05 0  1.619130434782609 0.05 0  1.635652173913043 0.05 0  1.652173913043478 0.05 0  1.668695652173913 0.05 0  1.685217391304348 0.05 0  1.701739130434782 0.05 0  1.718260869565217 0.05 0  1.734782608695652 0.05 0  1.751304347826087 0.05 0  1.767826086956522 0.05 0  1.784347826086957 0.05 0  1.800869565217391 0.05 0  1.817391304347826 0.05 0  1.833913043478261 0.05 0  1.850434782608696 0.05 0  1.86695652173913 0.05 0  1.883478260869565 0.05 0  1.387826086956522 0.06666666666666667 0  1.404347826086957 0.06666666666666667 0  1.420869565217391 0.06666666666666667 0  1.437391304347826 0.06666666666666667 0  1.453913043478261 0.06666666666666667 0  1.470434782608696 0.06666666666666667 0  1.486956521739131 0.06666666666666667 0  1.503478260869565 0.06666666666666667 0  1.52 0.06666666666666667 0  1.536521739130435 0.06666666666666667 0  1.55304347826087 0.06666666666666667 0  1.569565217391304 0.06666666666666667 0  1.586086956521739 0.06666666666666667 0  1.602608695652174 0.06666666666666667 0  1.619130434782609 0.06666666666666667 0  1.635652173913043 0.06666666666666667 0  1.652173913043478 0.06666666666666667 0  1.668695652173913 0.06666666666666667 0  1.685217391304348 0.06666666666666667 0  1.701739130434782 0.06666666666666667 0  1.718260869565217 0.06666666666666667 0  1.734782608695652 0.06666666666666667 0  1.751304347826087 0.06666666666666667 0  1.767826086956522 0.06666666666666667 0  1.784347826086957 0.06666666666666667 0  1.800869565217391 0.06666666666666667 0  1.817391304347826 0.06666666666666667 0  1.833913043478261 0.06666666666666667 0  1.850434782608696 0.06666666666666667 0  1.86695652173913 0.06666666666666667 0  1.883478260869565 0.06666666666666667 0  1.404347826086957 0.08333333333333333 0  1.420869565217391 0.08333333333333333 0  1.437391304347826 0.08333333333333333 0  1.453913043478261 0.08333333333333333 0  1.470434782608696 0.08333333333333333 0  1.486956521739131 0.08333333333333333 0  1.503478260869565 0.08333333333333333 0  1.52 0.08333333333333333 0  1.536521739130435 0.08333333333333333 0  1.55304347826087 0.08333333333333333 0  1.569565217391304 0.08333333333333333 0  1.586086956521739 0.08333333333333333 0  1.602608695652174 0.08333333333333333 0  1.619130434782609 0.08333333333333333 0  1.635652173913043 0.08333333333333333 0  1.652173913043478 0.08333333333333333 0  1.668695652173913 0.08333333333333333 0  1.685217391304348 0.08333333333333333 0  1.701739130434782 0.08333333333333333 0  1.718260869565217 0.08333333333333333 0  1.734782608695652 0.08333333333333333 0  1.751304347826087 0.08333333333333333 0  1.767826086956522 0.08333333333333333 0  1.784347826086957 0.08333333333333333 0  1.800869565217391 0.08333333333333333 0  1.817391304347826 0.08333333333333333 0  1.833913043478261 0.08333333333333333 0  1.850434782608696 0.08333333333333333 0  1.86695652173913 0.08333333333333333 0  1.883478260869565 0.08333333333333333 0  1.420869565217391 0.1 0  1.437391304347826 0.1 0  1.453913043478261 0.1 0  1.470434782608696 0.1 0  1.486956521739131 0.1 0  1.503478260869565 0.1 0  1.52 0.1 0  1.536521739130435 0.1 0  1.55304347826087 0.1 0  1.569565217391304 0.1 0  1.586086956521739 0.1 0  1.602608695652174 0.1 0  1.619130434782609 0.1 0  1.635652173913043 0.1 0  1.652173913043478 0.1 0  1.668695652173913 0.1 0  1.685217391304348 0.1 0  1.701739130434782 0.1 0  1.718260869565217 0.1 0  1.734782608695652 0.1 0  1.751304347826087 0.1 0  1.767826086956522 0.1 0  1.784347826086957 0.1 0  1.800869565217391 0.1 0  1.817391304347826 0.1 0  1.833913043478261 0.1 0  1.850434782608696 0.1 0  1.86695652173913 0.1 0  1.883478260869565 0.1 0  1.437391304347826 0.1166666666666667 0  1.453913043478261 0.1166666666666667 0  1.470434782608696 0.1166666666666667 0  1.486956521739131 0.1166666666666667 0  1.503478260869565 0.1166666666666667 0  1.52 0.1166666666666667 0  1.536521739130435 0.1166666666666667 0  1.55304347826087 0.1166666666666667 0  1.569565217391304 0.1166666666666667 0  1.586086956521739 0.1166666666666667 0  1.602608695652174 0.1166666666666667 0  1.619130434782609 0.1166666666666667 0  1.635652173913043 0.1166666666666667 0  1.652173913043478 0.1166666666666667 0  1.668695652173913 0.1166666666666667 0  1.685217391304348 0.1166666666666667 0  1.701739130434782 0.1166666666666667 0  1.718260869565217 0.1166666666666667 0  1.734782608695652 0.1166666666666667 0  1.751304347826087 0.1166666666666667 0  1.767826086956522 0.1166666666666667 0  1.784347826086957 0.1166666666666667 0  1.800869565217391 0.1166666666666667 0  1.817391304347826 0.1166666666666667 0  1.833913043478261 0.1166666666666667 0  1.850434782608696 0.1166666666666667 0  1.86695652173913 0.1166666666666667 0  1.883478260869565 0.1166666666666667 0  1.453913043478261 0.1333333333333333 0  1.470434782608696 0.1333333333333333 0  1.486956521739131 0.1333333333333333 0  1.503478260869565 0.1333333333333333 0  1.52 0.1333333333333333 0  1.536521739130435 0.1333333333333333 0  1.55304347826087 0.1333333333333333 0  1.569565217391304 0.1333333333333333 0  1.586086956521739 0.1333333333333333 0  1.602608695652174 0.1333333333333333 0  1.619130434782609 0.1333333333333333 0  1.635652173913043 0.1333333333333333 0  1.652173913043478 0.1333333333333333 0  1.668695652173913 0.1333333333333333 0  1.685217391304348 0.1333333333333333 0  1.701739130434782 0.1333333333333333 0  1.718260869565217 0.1333333333333333 0  1.734782608695652 0.1333333333333333 0  1.751304347826087 0.1333333333333333 0  1.767826086956522 0.1333333333333333 0  1.784347826086957 0.1333333333333333 0  1.800869565217391 0.1333333333333333 0  1.817391304347826 0.1333333333333333 0  1.833913043478261 0.1333333333333333 0  1.850434782608696 0.1333333333333333 0  1.86695652173913 0.1333333333333333 0  1.883478260869565 0.1333333333333333 0  1.470434782608696 0.15 0  1.486956521739131 0.15 0  1.503478260869565 0.15 0  1.52 0.15 0  1.5365217391304
[...]
<PointData  Vectors="Displacement"> 
<DataArray  type="Float64"  Name="Displacement"  NumberOfComponents="3" format="ascii">2.0254793138727232e-04 1.8843323846322482e-03 0.0000000000000000e+00  2.0480878359815959e-04 1.9038441864369627e-03 0.0000000000000000e+00  1.8516569191638437e-04 1.9030588384488217e-03 0.0000000000000000e+00  2.0705486597435055e-04 1.9233677611280953e-03 0.0000000000000000e+00  1.8751067778724270e-04 1.9225590707867173e-03 0.0000000000000000e+00  2.0924157290974890e-04 1.9428076680021952e-03 0.0000000000000000e+00  1.8995117512074600e-04 1.9419807369076320e-03 0.0000000000000000e+00  2.1140152933651893e-04 1.9618889449271376e-03 0.0000000000000000e+00  1.9260177330834673e-04 1.9609636192058463e-03 0.0000000000000000e+00  2.1361846997082368e-04 1.9800893839365574e-03 0.0000000000000000e+00  1.9585307773231617e-04 1.9790730035062183e-03 0.0000000000000000e+00  2.1588082058724030e-04 1.9969737694040600e-03 0.0000000000000000e+00  1.9959161459478242e-04 1.9959575176424524e-03 0.0000000000000000e+00  2.1814893458703110e-04 2.0123618393678390e-03 0.0000000000000000e+00  2.0340174215596017e-04 2.0113482630575706e-03 0.0000000000000000e+00  2.2040431860403104e-04 2.0262007655997213e-03 0.0000000000000000e+00  2.0722146650519751e-04 2.0252119989521344e-03 0.0000000000000000e+00  2.2251331185789937e-04 2.0382577301345625e-03 0.0000000000000000e+00  2.1101810861550550e-04 2.0376122085218888e-03 0.0000000000000000e+00  2.2463072060974405e-04 2.0490038733387982e-03 0.0000000000000000e+00  2.1362887258744937e-04 2.0483392294823356e-03 0.0000000000000000e+00  2.2691424078239778e-04 2.0596070735887611e-03 0.0000000000000000e+00  2.1578266055799074e-04 2.0589236956811475e-03 0.0000000000000000e+00  2.2935841060885270e-04 2.0706642009813447e-03 0.0000000000000000e+00  2.1768748268648826e-04 2.0699432840879540e-03 0.0000000000000000e+00  2.3185322834552090e-04 2.0825707664892403e-03 0.0000000000000000e+00  2.1944902565827743e-04 2.0818612729872140e-03 0.0000000000000000e+00  2.3430910066794843e-04 2.0953098139994404e-03 0.0000000000000000e+00  2.2114037537568435e-04 2.0946327333043156e-03 0.0000000000000000e+00  2.3670975604643245e-04 2.1087682272480446e-03 0.0000000000000000e+00  2.2278408411433530e-04 2.1081300574642878e-03 0.0000000000000000e+00  2.3916638961644273e-04 2.1227735110896924e-03 0.0000000000000000e+00  2.2445504389321551e-04 2.1221237026072459e-03 0.0000000000000000e+00  2.4187068850043238e-04 2.1373409880768228e-03 0.0000000000000000e+00  2.2624990138689759e-04 2.1366147575804786e-03 0.0000000000000000e+00  2.4497983551959778e-04 2.1527425285316885e-03 0.0000000000000000e+00  2.2821548676905154e-04 2.1519063717561561e-03 0.0000000000000000e+00  2.4854266770545455e-04 2.1694081255615697e-03 0.0000000000000000e+00  2.3031793557384787e-04 2.1684731525315258e-03 0.0000000000000000e+00  2.5251678685276691e-04 2.1877661353576646e-03 0.0000000000000000e+00  2.3247936317938764e-04 2.1867658820652102e-03 0.0000000000000000e+00  2.5681585936521649e-04 2.2082064142985420e-03 0.0000000000000000e+00  2.3459689962483971e-04 2.2071807527779970e-03 0.0000000000000000e+00  2.6137627752016664e-04 2.2310835182198160e-03 0.0000000000000000e+00  2.3658040998342494e-04 2.2300312281692924e-03 0.0000000000000000e+00  2.6619734751019724e-04 2.2567699424181696e-03 0.0000000000000000e+00  2.3845563119923147e-04 2.2556229879983577e-03 0.0000000000000000e+00  2.7095924364241791e-04 2.2860587003277104e-03 0.0000000000000000e+00  2.4005093392911035e-04 2.2850144995881826e-03 0.0000000000000000e+00  2.7544205634103528e-04 2.3186594084576993e-03 0.0000000000000000e+00  2.4137623045159291e-04 2.3177310775204319e-03 0.0000000000000000e+00  2.7976100777158178e-04 2.3544078515952719e-03 0.0000000000000000e+00  2.4249547312342357e-04 2.3533200708159463e-03 0.0000000000000000e+00  2.8369222274337219e-04 2.3938613188535978e-03 0.0000000000000000e+00  2.4369288067859035e-04 2.3926972879119725e-03 0.0000000000000000e+00  2.8687284232860875e-04 2.4357979059758039e-03 0.0000000000000000e+00  2.4555285428066672e-04 2.4347211395121301e-03 0.0000000000000000e+00  2.8915342645602203e-04 2.4783555828963477e-03 0.0000000000000000e+00  2.4801797842862112e-04 2.4773480047058419e-03 0.0000000000000000e+00  2.9043886672243055e-04 2.5197992320982812e-03 0.0000000000000000e+00  2.5110389718483621e-04 2.5190691282293777e-03 0.0000000000000000e+00  2.9073976393355507e-04 2.5583794662154841e-03 0.0000000000000000e+00  2.5424942204492457e-04 2.5581161880957239e-03 0.0000000000000000e+00  2.9056935567347815e-04 2.5934882032830437e-03 0.0000000000000000e+00  2.5656332803514296e-04 2.5932633725968038e-03 0.0000000000000000e+00  2.9015089413637207e-04 2.6263419673864625e-03 0.0000000000000000e+00  2.5825331868643662e-04 2.6262204566014379e-03 0.0000000000000000e+00  2.8947228265796185e-04 2.6572143635294628e-03 0.0000000000000000e+00  2.5948827584230835e-04 2.6572427862466426e-03 0.0000000000000000e+00  1.6767682233145834e-04 1.9217627102805280e-03 0.0000000000000000e+00  1.7005122882625260e-04 1.9411384742763660e-03 0.0000000000000000e+00  1.7320963165323421e-04 1.9600581579323406e-03 0.0000000000000000e+00  1.7760556475199127e-04 1.9779565076797072e-03 0.0000000000000000e+00  1.8272099153704622e-04 1.9946620440644282e-03 0.0000000000000000e+00  1.8804056412306347e-04 2.0100244224874084e-03 0.0000000000000000e+00  1.9339058236198629e-04 2.0238882585101856e-03 0.0000000000000000e+00  1.9871644443567231e-04 2.0363127002871934e-03 0.0000000000000000e+00  2.0380202890868743e-04 2.0476993021388873e-03 0.0000000000000000e+00  2.0543497219682795e-04 2.0584354964168954e-03 0.0000000000000000e+00  2.0644537650279398e-04 2.0694462277025668e-03 0.0000000000000000e+00  2.0716576161946776e-04 2.0814081612577366e-03 0.0000000000000000e+00  2.0795858670649402e-04 2.0942603691218187e-03 0.0000000000000000e+00  2.0872060989340205e-04 2.1078828656152311e-03 0.0000000000000000e+00  2.0947842866407920e-04 2.1218925540070002e-03 0.0000000000000000e+00  2.1030523561382737e-04 2.1362842943135497e-03 0.0000000000000000e+00  2.1118668154861115e-04 2.1514578353957533e-03 0.0000000000000000e+00  2.1198102939246999e-04 2.1679834403908775e-03 0.0000000000000000e+00  2.1252117494576159e-04 2.1863080850667268e-03 0.0000000000000000e+00  2.1267728956654686e-04 2.2068422604456170e-03 0.0000000000000000e+00  2.1231818973474164e-04 2.2298257880633099e-03 0.0000000000000000e+00  2.1145942597258852e-04 2.2552397305390238e-03 0.0000000000000000e+00  2.0986181388437059e-04 2.2848305663605729e-03 0.0000000000000000e+00  2.0840947111189903e-04 2.3175452758117995e-03 0.0000000000000000e+00  2.0750366941870913e-04 2.3526292092569071e-03 0.0000000000000000e+00  2.0510577313142576e-04 2.3921000889006432e-03 0.0000000000000000e+00  2.0405911805847779e-04 2.4340111085346646e-03 0.0000000000000000e+00  2.0594042290237468e-04 2.4764017431742518e-03 0.0000000000000000e+00  2.1028242007426159e-04 2.5178445326556730e-03 0.0000000000000000e+00  2.1755173124726493e-04 2.5568451709580319e-03 0.0000000000000000e+00  2.2460762126992411e-04 2.5926282334776366e-03 0.0000000000000000e+00  2.2730714659111647e-04 2.6254614371119373e-03 0.0000000000000000e+00  2.3030070192286197e-04 2.6568107547305831e-03 0.0000000000000000e+00  1.6797499597391650e-04 1.9412935810746463e-03 0.0000000000000000e+00  1.7060101755864677e-04 1.9598129126790673e-03 0.0000000000000000e+00  1.7375124397701601e-04 1.9773450988648197e-03 0.0000000000000000e+00  1.7730321763350737e-04 1.9938618394047154e-03 0.0000000000000000e+00  1.8104215771462328e-04 2.0092486595289366e-03 0.0000000000000000e+00  1.8475281949164180e-04 2.0233742097891133e-03 0.0000000000000000e+00  1.8820987385721342e-04 2.0362956237332890e-03 0.0000000000000000e+00  1.9114815920982236e-04 2.0483195069269139e-03 0.0000000000000000e+00  1.9327145258269505e-04 2.0598279972195307e-03 0.0000000000000000e+00  1.9468479124171818e-04 2.0693236174692264e-03 0.0000000000000000e+00  1.9455478443758923e-04 2.0812733158274196e-03 0.0000000000000000e+00  1.9453513254547077e-04 2.0941888852014641e-03 0.0000000000000000e+00  1.9451575804598574e-04 2.1080654493355749e-03 0.0000000000000000e+00  1.9448041882783040e-04 2.1221039231766842e-03 0.0000000000000000e+00  1.9451275813258301e-04 2.1362916849905901e-03 0.0000000000000000e+00  1.9456039975281265e-04 2.1512467722551807e-03 0.0000000000000000e+00  1.9435671316010307e-04 2.1677526738933983e-03 0.0000000000000000e+00  1.9360448181971547e-04 2.1861780140722204e-03 0.0000000000000000e+00  1.9215913588424148e-04 2.2068051846379309e-03 0.0000000000000000e+00  1.9037340896645966e-04 2.2298328019653610e-03 0.0000000000000000e+00  1.8836526624058960e-04 2.2550246134673468e-03 0.0000000000000000e+00  1.8227233284481912e-04 2.2850705297790359e-03 0.0000000000000000e+00  1.7566841255464526e-04 2.3180039699608325e-03 0.0000000000000000e+00  1.8112308877384596e-04 2.3578620343345513e-03 0.0000000000000000e+00  1.8297540652510109e-04 2.3972906467504013e-03 0.0000000000000000e+00  1.8403965181153822e-04 2.4369726602750581e-03 0.0000000000000000e+00  1.8594482456140663e-04 2.4766265009930244e-03 0.0000000000000000e+00  1.8903302751131887e-04 2.5156066466273811e-03 0.0000000000000000e+00  1.9293576225650846e-04 2.5530021223107422e-03 0.0000000000000000e+00  1.9649182850984843e-04 2.5888871766148801e-03 0.0000000000000000e+00  1.9820983837920335e-04 2.6237656396051051e-03 0.0000000000000000e+00  2.0167089578366500e-04 2.6557596517948604e-03 0.0000000000000000e+00  1.6683814067146782e-04 1.9603995486231706e-03 0.0000000000000000e+00  1.6904389747339076e-04 1.9778945304579822e-03 0.0000000000000000e+00  1.7141274211926515e-04 1.9944105394658364e-03 0.0000000000000000e+00  1.7384195820068930e-04 2.0098910323018320e-03 0.0000000000000000e+00  1.7618717023099850e-04 2.0242794768536914e-03 0.0000000000000000e+00  1.7827591256932039e-04 2.0376365721956370e-03 0.0000000000000000e+00  1.7994644677014334e-04 2.0501654788364068e-03 0.0000000000000000e+00  1.8108640129853900e-04 2.0620589390580590e-03 0.0000000000000000e+00  1.8156584165065806e-04 2.0729553089540564e-03 0.0000000000000000e+00  1.8116388686434187e-04 2.0844626091623625e-03 0.0000000000000000e+00  1.8023628359757117e-04 2.0942747555643547e-03 0.0000000000000000e+00  1.8004979052328715e-04 2.1085697664482974e-03 0.0000000000000000e+00  1.7967208583409525e-04 2.1226633993252975e-03 0.0000000000000000e+00  1.7930801882776466e-04 2.1364276045635032e-03 0.0000000000000000e+00  1.7898706000530574e-04 2.1509532365506438e-03 0.0000000000000000e+00  1.7828687811329900e-04 2.1673884627618901e-03 0.0000000000000000e+00  1.7697969433125925e-04 2.1859451864057761e-03 0.0000000000000000e+00  1.7471483124725654e-04 2.2066037129337534e-03 0.0000000000000000e+00  1.7064380299275830e-04 2.2298611401079253e-03 0.0000000000000000e+00  1.7143186618966068e-04 2.2628199148907843e-03 0.0000000000000000e+00  1.6866815758623935e-04 2.2945589360866387e-03 0.0000000000000000e+00  1.6562895925959623e-04 2.3275249965565227e-03 0.0000000000000000e+00  1.6429325805825132e-04 2.3628255095840761e-03 0.0000000000000000e+00  1.6462582694374238e-04 2.4010748145835399e-03 0.0000000000000000e+00  1.6537527630643866e-04 2.4394139384182460e-03 0.0000000000000000e+00  1.6674930856976322e-04 2.4773920875601737e-03 0.0000000000000000e+00  1.6888594942219431e-04 2.5147207426942193e-03 0.0000000000000000e+00  1.7162231420908360e-04 2.5510067086313630e-03 0.0000000000000000e+00  1.7457160682744351e-04 2.5862502648465670e-03 0.0000000000000000e+00  1.7752063512199565e-04 2.6204153415937781e-03 0.0000000000000000e+00  1.8067385849455117e-04 2.6521575121281008e-03 0.0000000000000000e+00  1.6374498700503939e-04 1.9794115928259888e-03 0.0000000000000000e+00  1.6516842490330158e-04 1.9960608429894764e-03 0.0000000000000000e+00  1.6654894016012031e-04 2.0117123085733597e-03 0.0000000000000000e+00  1.6779904340990094e-04 2.0263546435736733e-03 0.0000000000000000e+00  1.6881355456131370e-04 2.0400496462463853e-03 0.0000000000000000e+00  1.6949773663933748e-04 2.0529406559466170e-03 0.0000000000000000e+00  1.6978098131358426e-04 2.0651867517739739e-03 0.0000000000000000e+00  1.6958325917194094e-04 2.0768235474680524e-03 0.0000000000000000e+00  1.6878904620900434e-04 2.0884692077410599e-03 0.0000000000000000e+00  1.6742209128620827e-04 2.0993029281247454e-03 0.0000000000000000e+00  1.6584147940965072e-04 2.1094737278658216e-03 0.0000000000000000e+00  1.6555438042251496e-04 2.1234407592747081e-03 0.0000000000000000e+00  1.6521790341308561e-04 2.1364186604439245e-03 0.0000000000000000e+00  1.6495136149221842e-04 2.1501238238002146e-03 0.0000000000000000e+00  1.6427650319075454e-04 2.1666033662694701e-03 0.0000000000000000e+00  1.6219290977549525e-04 2.1854461866299508e-03 0.0000000000000000e+00  1.6269418299345848e-04 2.2127559856594840e-03 0.0000000000000000e+00  1.6008476274649407e-04 2.2395153348853023e-03 0.0000000000000000e+00  1.5688430402693634e-04 2.2700592542909703e-03 0.0000000000000000e+00  1.5422686055864042e-04 2.3024262489623557e-03 0.0000000000000000e+00  1.5144440146116987e-04 2.3353710948345501e-03 0.0000000000000000e+00  1.4916491695098131e-04 2.3696107020295155e-03 0.0000000000000000e+00  1.4785963228813916e-04 2.4056568168998125e-03 0.0000000000000000e+00  1.4765890557495281e-04 2.4423290562576938e-03 0.0000000000000000e+00  1.4830192302508420e-04 2.4788083455616334e-03 0.0000000000000000e+00  1.4968993194786219e-04 2.5147518125684192e-03 0.0000000000000000e+00  1.5170376801026391e-04 2.5499198870637422e-03 0.0000000000000000e+00  1.5417004462485743e-04 2.5842337821108310e-03 0.0000000000000000e+00  1.5697224005889072e-04 2.6175243859328165e-03 0.0000000000000000e+00  1.5998751404671283e-04 2.6492198018754753e-03 0.0000000000000000e+00  1.5869983255109853e-04 1.9986512803444982e-03 0.0000000000000000e+00  1.5923697610694282e-04 2.0145237243314232e-03 0.0000000000000000e+00  1.5960944813660956e-04 2.0294096661197213e-03 0.0000000000000000e+00  1.5976058631389498e-04 2.0433672564138658e-03 0.0000000000000000e+00  1.5963938956807888e-04 2.0565136631358568e-03 0.0000000000000000e+00  1.5918582505050687e-04 2.0690244304206224e-03 0.0000000000000000e+00  1.5834770854758839e-04 2.0810584145851494e-03 0.0000000000000000e+00  1.5712859428396793e-04 2.0930272390209119e-03 0.0000000000000000e+00  1.5533509510905005e-04 2.1047467401907826e-03 0.0000000000000000e+00  1.5362853598717083e-04 2.1138178696318015e-03 0.0000000000000000e+00  1.5308353942392486e-04 2.1243941207118229e-03 0.0000000000000000e+00  1.5313904292546361e-04 2.1360067846282011e-03 0.0000000000000000e+00  1.5330704072568437e-04 2.1482773186843793e-03 0.0000000000000000e+00  1.5320770331351752e-04 2.1635353913157865e-03 0.0000000000000000e+00  1.5356773377400408e-04 2.1901002228874944e-03 0.0000000000000000e+00  1.5096558008268472e-04 2.2184099620893996e-03 0.0000000000000000e+00  1.4763596177801920e-04 2.2476643729157195e-03 0.0000000000000000e+00  1.4361484570511813e-04 2.2783869354047553e-03 0.0000000000000000e+00  1.3984828394515150e-04 2.3102448150545797e-03 0.0000000000000000e+00  1.3651758880920409e-04 2.3428783299356561e-03 0.0000000000000000e+00  1.3367570105899017e-04 2.3763545096537569e-03 0.0000000000000000e+00  1.3160152687742669e-04 2.4108663314059667e-03 0.0000000000000000e+00  1.3053144411045482e-04 2.4458831838540542e-03 0.0000000000000000e+00  1.3041562145630240e-04 2.4808813440587297e-03 0.0000000000000000e+00  1.3112124767754481e-04 2.5155030538945625e-03 0.0000000000000000e+00  1.3252469601715699e-04 2.5495310653116687e-03 0.0000000000000000e+00  1.3450065910647837e-04 2.5828516365603788e-03 0.0000000000000000e+00  1.3693470780939675e-04 2.6153214901145547e-03 0.0000000000000000e+00  1.3966673597937704e-04 2.6467346916414407e-03 0.0000000000000000e+00  1.5197149361736049e-04 2.0181892958143388e-03 0.0000000000000000e+00  1.5164342421919872e-04 2.0333074324094037e-03 0.0000000000000000e+00  1.5110320192881967e-04 2.0474696271825187e-03 0.0000000000000000e+00  1.5033017106517261e-04 2.0607845908997432e-03 0.0000000000000000e+00  1.4924726476754925e-04 2.0734998855041690e-03 0.0000000000000000e+00  1.4772909388847014e-04 2.0857801103546670e-03 0.0000000000000000e+00  1.4576518489588830e-04 2.0978914860470743e-03 0.0000000000000000e+00  1.4373704703325889e-04 2.1107337762072001e-03 0.0000000000000000e+00  1.4352917280738978e-04 2.1181670166835736e-03 0.0000000000000000e+00  1.4329117222202183e-04 2.1255446336970276e-03 0.0000000000000000e+00  1.4319966901824870e-04 2.1352524919302277e-03 0.0000000000000000e+00  1.4334441642619136e-04 2.1464010317608592e-03 0.0000000000000000e+00  1.4394959129279350e-04 2.1564215993065991e-03 0.0000000000000000e+00  1.4308771685638962e-04 2.1937979230174896e-03 0.0000000000000000e+00  1.3911967921613114e-04 2.2252251598742726e-03 0.0000000000000000e+00  1.3447133810388527e-04 2.2558038380561152e-03 0.0000000000000000e+00  1.2970679463053427e-04 2.2868442078825845e-03 0.0000000000000000e+00  1.2522064369607585e-04 2.3183889514512015e-03 0.0000000000000000e+00  1.2124010041657749e-04 2.3504579596072650e-03 0.0000000000000000e+00  1.1787416592337566e-04 2.3831127174431697e-03 0.0000000000000000e+00  1.1526688111171146e-04 2.4163707313305254e-03 0.0000000000000000e+00  1.1357323504565025e-04 2.4499520086847478e-03 0.0000000000000000e+00  1.1281126536044872e-04 2.4835413833785812e-03 0.0000000000000000e+00  1.1290815571408721e-04 2.5168704328962519e-03 0.0000000000000000e+00  1.1376046390932348e-04 2.5497479280047037e-03 0.0000000000000000e+00  1.1526005897335274e-04 2.5820572849666323e-03 0.0000000000000000e+00  1.1729662462649125e-04 2.6137024233957511e-03 0.0000000000000000e+00  1.1973012637992234e-04 2.6446333822676060e-03 0.0000000000000000e+00  1.4395803061631514e-04 2.0379367495245767e-03 0.0000000000000000e+00  1.4290890651669932e-04 2.0522301185599201e-03 0.0000000000000000e+00  1.4172622635555618e-04 2.0655842821473720e-03 0.0000000000000000e+00  1.4032819416954571e-04 2.0783667533265187e-03 0.0000000000000000e+00  1.3871460631036076e-04 2.0907447770682980e-03 0.0000000000000000e+00  1.3687797724043100e-04 2.1023601028017950e-03 0.0000000000000000e+00  1.3603128312582834e-04 2.1127815800032275e-03 0.0000000000000000e+00  1.3593088892236842e-04 2.1188275482468804e-03 0.0000000000000000e+00  1.3568143369207131e-04 2.1260092923319077e-03 0.0000000000000000e+00  1.3538482338163154e-04 2.1344226850981453e-03 0.0000000000000000e+00  1.3533605931005522e-04 2.1441615126265748e-03 0.0000000000000000e+00  1.3479782480255794e-04 2.1666789150149657e-03 0.0000000000000000e+00  1.2978878005593557e-04 2.2000918216394062e-03 0.0000000000000000e+00  1.2534882237728520e-04 2.2329467747000844e-03 0.0000000000000000e+00  1.2022644212833652e-04 2.2643944930212751e-03 0.0000000000000000e+00  1.1496621586442591e-04 2.2955420722466698e-03 0.0000000000000000e+00  1.0999357612763464e-04 2.3267558866991809e-03 0.0000000000000000e+00  1.0553553718379580e-04 2.3582027502877770e-03 0.0000000000000000e+00  1.0173171474115684e-04 2.3899838972319585e-03 0.0000000000000000e+00  9.8698542424308956e-05 2.4221021578708069e-03 0.0000000000000000e+00  9.6532606466470552e-05 2.4543987566254012e-03 0.0000000000000000e+00  9.5259243010791940e-05 2.4866794100672201e-03 0.0000000000000000e+00  9.4841808118116108e-05 2.5187592804240726e-03 0.0000000000000000e+00  9.5207103748115173e-05 2.5504910111761691e-03 0.0000000000000000e+00  9.6266413872803084e-05 2.5817764704715563e-03 0.0000000000000000e+00  9.7923388213064211e-05 2.6125570595706129e-03 0.0000000000000000e+00  1.0006795226186363e-04 2.6428439511508952e-03 0.0000000000000000e+00  1.3516943360616528e-04 2.0575634270738347e-03 0.0000000000000000e+00  1.3374244518792007e-04 2.0707373547016678e-03 0.0000000000000000e+00  1.3228154652300295e-04 2.0835145894828140e-03 0.0000000000000000e+00  1.3055647784031735e-04 2.0956080719270564e-03 0.0000000000000000e+00  1.2989266561499966e-04 2.1069469883112433e-03 0.0000000000000000e+