<?xml version="1.0"?>
<VTKFile type="UnstructuredGrid"  version="0.1"  >
<UnstructuredGrid>
<Piece  NumberOfPoints="629" NumberOfCells="1162">
<Points>
<DataArray  type="Float64"  NumberOfComponents="3"  format="ascii">0.7104347826086956 0 0  0.7269565217391304 0 0  0.7269565217391304 0.01666666666666667 0  0.7104347826086956 0.01666666666666667 0  0.7434782608695653 0 0  0.7434782608695653 0.01666666666666667 0  0.7599999999999999 0 0  0.7599999999999999 0.01666666666666667 0  0.7765217391304348 0 0  0.7765217391304348 0.01666666666666667 0  0.7930434782608695 0 0  0.7930434782608695 0.01666666666666667 0  0.8095652173913043 0 0  0.8095652173913043 0.01666666666666667 0  0.8260869565217391 0 0  0.8260869565217391 0.01666666666666667 0  0.8426086956521739 0 0  0.8426086956521739 0.01666666666666667 0  0.8591304347826086 0 0  0.8591304347826086 0.01666666666666667 0  0.8756521739130434 0 0  0.8756521739130434 0.01666666666666667 0  0.8921739130434783 0 0  0.8921739130434783 0.01666666666666667 0  0.908695652173913 0 0  0.908695652173913 0.01666666666666667 0  0.9252173913043478 0 0  0.9252173913043478 0.01666666666666667 0  0.9417391304347826 0 0  0.9417391304347826 0.01666666666666667 0  0.9582608695652173 0 0  0.9582608695652173 0.01666666666666667 0  0.9747826086956521 0 0  0.9747826086956521 0.01666666666666667 0  0.991304347826087 0 0  0.991304347826087 0.01666666666666667 0  1.007826086956522 0 0  1.007826086956522 0.01666666666666667 0  1.024347826086957 0 0  1.024347826086957 0.01666666666666667 0  0.7269565217391304 0.03333333333333333 0  0.7104347826086956 0.03333333333333333 0  0.7434782608695653 0.03333333333333333 0  0.7599999999999999 0.03333333333333333 0  0.7765217391304348 0.03333333333333333 0  0.7930434782608695 0.03333333333333333 0  0.8095652173913043 0.03333333333333333 0  0.8260869565217391 0.03333333333333333 0  0.8426086956521739 0.03333333333333333 0  0.8591304347826086 0.03333333333333333 0  0.8756521739130434 0.03333333333333333 0  0.8921739130434783 0.03333333333333333 0  0.908695652173913 0.03333333333333333 0  0.9252173913043478 0.03333333333333333 0  0.9417391304347826 0.03333333333333333 0  0.9582608695652173 0.03333333333333333 0  0.9747826086956521 0.03333333333333333 0  0.991304347826087 0.03333333333333333 0  1.007826086956522 0.03333333333333333 0  1.024347826086957 0.03333333333333333 0  1.040869565217391 0.03333333333333333 0  0.7269565217391304 0.05 0  0.7434782608695653 0.05 0  0.7599999999999999 0.05 0  0.7765217391304348 0.05 0  0.7930434782608695 0.05 0  0.8095652173913043 0.05 0  0.8260869565217391 0.05 0  0.8426086956521739 0.05 0  0.8591304347826086 0.05 0  0.8756521739130434 0.05 0  0.8921739130434783 0.05 0  0.908695652173913 0.05 0  0.9252173913043478 0.05 0  0.9417391304347826 0.05 0  0.9582608695652173 0.05 0  0.9747826086956521 0.05 0  0.991304347826087 0.05 0  1.007826086956522 0.05 0  1.024347826086957 0.05 0  1.040869565217391 0.05 0  1.057391304347826 0.05 0  0.7434782608695653 0.06666666666666667 0  0.7599999999999999 0.06666666666666667 0  0.7765217391304348 0.06666666666666667 0  0.7930434782608695 0.06666666666666667 0  0.8095652173913043 0.06666666666666667 0  0.8260869565217391 0.06666666666666667 0  0.8426086956521739 0.06666666666666667 0  0.8591304347826086 0.06666666666666667 0  0.8756521739130434 0.06666666666666667 0  0.8921739130434783 0.06666666666666667 0  0.908695652173913 0.06666666666666667 0  0.9252173913043478 0.06666666666666667 0  0.9417391304347826 0.06666666666666667 0  0.9582608695652173 0.06666666666666667 0  0.9747826086956521 0.06666666666666667 0  0.991304347826087 0.06666666666666667 0  1.007826086956522 0.06666666666666667 0  1.024347826086957 0.06666666666666667 0  1.040869565217391 0.06666666666666667 0  1.057391304347826 0.06666666666666667 0  1.073913043478261 0.06666666666666667 0  0.7599999999999999 0.08333333333333333 0  0.7765217391304348 0.08333333333333333 0  0.7930434782608695 0.08333333333333333 0  0.8095652173913043 0.08333333333333333 0  0.8260869565217391 0.08333333333333333 0  0.8426086956521739 0.08333333333333333 0  0.8591304347826086 0.08333333333333333 0  0.8756521739130434 0.08333333333333333 0  0.8921739130434783 0.08333333333333333 0  0.908695652173913 0.08333333333333333 0  0.9252173913043478 0.08333333333333333 0  0.9417391304347826 0.08333333333333333 0  0.9582608695652173 0.08333333333333333 0  0.9747826086956521 0.08333333333333333 0  0.991304347826087 0.08333333333333333 0  1.007826086956522 0.08333333333333333 0  1.024347826086957 0.08333333333333333 0  1.040869565217391 0.08333333333333333 0  1.057391304347826 0.08333333333333333 0  1.073913043478261 0.08333333333333333 0  1.090434782608696 0.08333333333333333 0  0.7765217391304348 0.1 0  0.7930434782608695 0.1 0  0.8095652173913043 0.1 0  0.8260869565217391 0.1 0  0.8426086956521739 0.1 0  0.8591304347826086 0.1 0  0.8756521739130434 0.1 0  0.8921739130434783 0.1 0  0.908695652173913 0.1 0  0.9252173913043478 0.1 0  0.9417391304347826 0.1 0  0.9582608695652173 0.1 0  0.9747826086956521 0.1 0  0.991304347826087 0.1 0  1.007826086956522 0.1 0  1.024347826086957 0.1 0  1.040869565217391 0.1 0  1.057391304347826 0.1 0  1.073913043478261 0.1 0  1.090434782608696 0.1 0  1.10695652173913 0.1 0  0.7930434782608695 0.1166666666666667 0  0.8095652173913043 0.1166666666666667 0  0.8260869565217391 0.1166666666666667 0  0.8426086956521739 0.1166666666666667 0  0.8591304347826086 0.1166666666666667 0  0.8756521739130434 0.1166666666666667 0  0.8921739130434783 0.1166666666666667 0  0.908695652173913 0.1166666666666667 0  0.9252173913043478 0.1166666666666667 0  0.9417391304347826 0.1166666666666667 0  0.9582608695652173 0.1166666666666667 0  0.9747826086956521 0.1166666666666667 0  0.991304347826087 0.1166666666666667 0  1.007826086956522 0.1166666666666667 0  1.024347826086957 0.1166666666666667 0  1.040869565217391 0.1166666666666667 0  1.057391304347826 0.1166666666666667 0  1.073913043478261 0.1166666666666667 0  1.090434782608696 0.1166666666666667 0  1.10695652173913 0.1166666666666667 0  1.123478260869565 0.1166666666666667 0  0.8095652173913043 0.1333333333333333 0  0.8260869565217391 0.1333333333333333 0  0.8426086956521739 0.1333333333333333 0  0.8591304347826086 0.1333333333333333 0  0.8756521739130434 0.1333333333333333 0  0.8921739130434783 0.1333333333333333 0  0.908695652173913 0.1333333333333333 0  0.9252173913043478 0.1333333333333333 0  0.9417391304347826 0.1333333333333333 0  0.9582608695652173 0.1333333333333333 0  0.9747826086956521 0.1333333333333333 0  0.991304347826087 0.1333333333333333 0  1.007826086956522 0.1333333333333333 0  1.024347826086957 0.1333333333333333 0  1.040869565217391 0.1333333333333333 0  1.057391304347826 0.1333333333333333 0  1.073913043478261 0.1333333333333333 0  1.090434782608696 0.1333333333333333 0  1.10695652173913 0.1333333333333333 0  1.123478260869565 0.1333333333333333 0  1.14 0.1333333333333333 0  0.8260869565217391 0.15 0  0.8426086956521739 0.15 0  0.8591304347826086 0.15 0  0.8756521739130434 0.15 0  0.8921739130434783 0.15 0  0.908695652173913 0.15 0  0.9252173913043478 0.15 0  0.9417391304347826 0.15 0  0.9582608695652173 0.15 0  0.9747826086956521 0.15 0  0.991304347826087 0.15 0  1.007826086956522 0.15 0  1.024347826086957 0.15 0  1.040869565217391 0.15 0  1.057391304347826 0.15 0  1.073913043478261 0.15 0  1.090434782608696 0.15 0  1.10695652173913 0.15 0  1.123478260869565 0.15 0  1.14 0.15 0  1.156521739130435 0.15 0  0.8426086956521739 0.1666666666666667 0  0.8591304347826086 0.1666666666666667 0  0.8756521739130434 0.1666666666666667 0  0.8921739130434783 0.1666666666666667 0  0.908695652173913 0.1666666666666667 0  0.9252173913043478 0.1666666666666667 0  0.9417391304347826 0.1666666666666667 0  0.9582608695652173 0.1666666666666667 0  0.9747826086956521 0.1666666666666667 0  0.991304347826087 0.1666666666666667 0  1.007826086956522 0.1666666666666667 0  1.024347826086957 0.1666666666666667 0  1.040869565217391 0.1666666666666667 0  1.057391304347826 0.1666666666666667 0  1.073913043478261 0.1666666666666667 0  1.090434782608696 0.1666666666666667 0  1.10695652173913 0.1666666666666667 0  1.123478260869565 0.1666666666666667 0  1.14 0.1666666666666667 0  1.156521739130435 0.1666666666666667 0  1.17304347826087 0.1666666666666667 0  0.8591304347826086 0.1833333333333333 0  0.8756521739130434 0.1833333333333333 0  0.8921739130434783 0.1833333333333333 0  0.908695652173913 0.1833333333333333 0  0.9252173913043478 0.1833333333333333 0  0.9417391304347826 0.1833333333333333 0  0.9582608695652173 0.1833333333333333 0  0.9747826086956521 0.1833333333333333 0  0.991304347826087 0.1833333333333333 0  1.007826086956522 0.1833333333333333 0  1.024347826086957 0.1833333333333333 0  1.040869565217391 0.1833333333333333 0  1.057391304347826 0.1833333333333333 0  1.073913043478261 0.1833333333333333 0  1.090434782608696 0.1833333333333333 0  1.10695652173913 0.1833333333333333 0  1.123478260869565 0.1833333333333333 0  1.14 0.1833333333333333 0  1.156521739130435 0.1833333333333333 0  1.17304347826087 0.1833333333333333 0  1.189565217391304 0.1833333333333333 0  0.8756521739130434 0.2 0  0.8921739130434783 0.2 0  0.908695652173913 0.2 0  0.9252173913043478 0.2 0  0.9417391304347826 0.2 0  0.9582608695652173 0.2 0  0.9747826086956521 0.2 0  0.991304347826087 0.2 0  1.007826086956522 0.2 0  1.024347826086957 0.2 0  1.040869565217391 0.2 0  1.057391304347826 0.2 0  1.073913043478261 0.2 0  1.090434782608696 0.2 0  1.10695652173913 0.2 0  1.123478260869565 0.2 0  1.14 0.2 0  1.156521739130435 0.2 0  1.17304347826087 0.2 0  1.189565217391304 0.2 0  1.206086956521739 0.2 0  0.8921739130434783 0.2166666666666667 0  0.908695652173913 0.2166666666666667 0  0.9252173913043478 0.2166666666666667 0  0.9417391304347826 0.2166666666666667 0  0.9582608695652173 0.2166666666666667 0  0.9747826086956521 0.2166666666666667 0  0.991304347826087 0.2166666666666667 0  1.007826086956522 0.2166666666666667 0  1.02434782608
[...]
<PointData  Vectors="Displacement"> 
<DataArray  type="Float64"  Name="Displacement"  NumberOfComponents="3" format="ascii">1.1752879611618651e-04 1.0497808123451544e-03 0.0000000000000000e+00  1.1976306420323607e-04 1.0699143744741775e-03 0.0000000000000000e+00  9.9350658004554058e-05 1.0691804704712603e-03 0.0000000000000000e+00  9.6880739243029496e-05 1.0490552160531354e-03 0.0000000000000000e+00  1.2209152732660342e-04 1.0899769613976983e-03 0.0000000000000000e+00  1.0163901348860277e-04 1.0892380295127366e-03 0.0000000000000000e+00  1.2449861464291614e-04 1.1102421528663149e-03 0.0000000000000000e+00  1.0379619590252640e-04 1.1094955615936018e-03 0.0000000000000000e+00  1.2695748204402899e-04 1.1308831677490990e-03 0.0000000000000000e+00  1.0587525586832566e-04 1.1301278442064303e-03 0.0000000000000000e+00  1.2943997933209929e-04 1.1519816528296556e-03 0.0000000000000000e+00  1.0792506720109322e-04 1.1512198556033748e-03 0.0000000000000000e+00  1.3192300472194941e-04 1.1735429967380251e-03 0.0000000000000000e+00  1.0997998049889792e-04 1.1727782941482780e-03 0.0000000000000000e+00  1.3439286471928440e-04 1.1955264980592979e-03 0.0000000000000000e+00  1.1205734507162338e-04 1.1947614074826578e-03 0.0000000000000000e+00  1.3684515169733825e-04 1.2178780775373580e-03 0.0000000000000000e+00  1.1416102891076969e-04 1.2171132043818360e-03 0.0000000000000000e+00  1.3928081015956274e-04 1.2405508231654436e-03 0.0000000000000000e+00  1.1628824787816188e-04 1.2397856914603857e-03 0.0000000000000000e+00  1.4170189853281555e-04 1.2635085896329037e-03 0.0000000000000000e+00  1.1843551786589462e-04 1.2627427607941543e-03 0.0000000000000000e+00  1.4410956545696303e-04 1.2867204446790003e-03 0.0000000000000000e+00  1.2060105445815514e-04 1.2859540730793210e-03 0.0000000000000000e+00  1.4650434963286313e-04 1.3101556575366815e-03 0.0000000000000000e+00  1.2278399639232263e-04 1.3093892374361742e-03 0.0000000000000000e+00  1.4888726021363550e-04 1.3337842017354549e-03 0.0000000000000000e+00  1.2498275323477592e-04 1.3330178703057781e-03 0.0000000000000000e+00  1.5125984656568918e-04 1.3575805743843504e-03 0.0000000000000000e+00  1.2719489696654392e-04 1.3568139686504397e-03 0.0000000000000000e+00  1.5362324837849234e-04 1.3815244761131908e-03 0.0000000000000000e+00  1.2941867070350639e-04 1.3807572462158245e-03 0.0000000000000000e+00  1.5597763784359645e-04 1.4055971465920919e-03 0.0000000000000000e+00  1.3165385658019821e-04 1.4048292983214138e-03 0.0000000000000000e+00  1.5832263556347660e-04 1.4297780308777245e-03 0.0000000000000000e+00  1.3390107274425131e-04 1.4290098130800700e-03 0.0000000000000000e+00  1.6065808568966973e-04 1.4540448103660434e-03 0.0000000000000000e+00  1.3616058331005260e-04 1.4532763353060085e-03 0.0000000000000000e+00  1.6298431221266368e-04 1.4783758960268422e-03 0.0000000000000000e+00  1.3843192337366462e-04 1.4776068520980967e-03 0.0000000000000000e+00  7.9529323666081814e-05 1.0684106902748456e-03 0.0000000000000000e+00  7.6315864208090293e-05 1.0481190864947405e-03 0.0000000000000000e+00  8.1698476137102770e-05 1.0885527524880083e-03 0.0000000000000000e+00  8.3435629896349100e-05 1.1088549677309566e-03 0.0000000000000000e+00  8.4977624537325064e-05 1.1294985295110154e-03 0.0000000000000000e+00  8.6482197578530837e-05 1.1505830398023029e-03 0.0000000000000000e+00  8.8044030373913114e-05 1.1721266948501133e-03 0.0000000000000000e+00  8.9706391740386045e-05 1.1940956796326150e-03 0.0000000000000000e+00  9.1465034517066796e-05 1.2164360557177585e-03 0.0000000000000000e+00  9.3292936162256291e-05 1.2390986519469150e-03 0.0000000000000000e+00  9.5169450406100271e-05 1.2620460544226230e-03 0.0000000000000000e+00  9.7090038010920685e-05 1.2852477005971764e-03 0.0000000000000000e+00  9.9059044738029214e-05 1.3086741973676076e-03 0.0000000000000000e+00  1.0107617982188603e-04 1.3322960729231729e-03 0.0000000000000000e+00  1.0313083127545483e-04 1.3560866913104521e-03 0.0000000000000000e+00  1.0521266198472089e-04 1.3800244789961343e-03 0.0000000000000000e+00  1.0732148038342642e-04 1.4040906025631569e-03 0.0000000000000000e+00  1.0946329097897944e-04 1.4282651328933207e-03 0.0000000000000000e+00  1.1164192375356650e-04 1.4525261784779585e-03 0.0000000000000000e+00  1.1385464896678938e-04 1.4768517853932842e-03 0.0000000000000000e+00  1.1609538125668377e-04 1.5012216832462060e-03 0.0000000000000000e+00  6.0945961608210133e-05 1.0569069126788210e-03 0.0000000000000000e+00  6.4711498781767636e-05 1.0773356935536945e-03 0.0000000000000000e+00  6.8018453018912203e-05 1.0978084575600120e-03 0.0000000000000000e+00  7.1036288030048490e-05 1.1185377847964355e-03 0.0000000000000000e+00  7.3890596013322530e-05 1.1396427553857240e-03 0.0000000000000000e+00  7.6669691348157644e-05 1.1611720103658879e-03 0.0000000000000000e+00  7.9426085706817533e-05 1.1831249456240615e-03 0.0000000000000000e+00  8.2182119074139553e-05 1.2054752237279113e-03 0.0000000000000000e+00  8.4940837920216173e-05 1.2281864658096335e-03 0.0000000000000000e+00  8.7698900750874265e-05 1.2512205175787907e-03 0.0000000000000000e+00  9.0454502309053738e-05 1.2745413722903285e-03 0.0000000000000000e+00  9.3208275151006667e-05 1.2981164159847800e-03 0.0000000000000000e+00  9.5960505560359374e-05 1.3219167644737625e-03 0.0000000000000000e+00  9.8709323364230500e-05 1.3459167827972788e-03 0.0000000000000000e+00  1.0145223418737662e-04 1.3700924018679680e-03 0.0000000000000000e+00  1.0418864389300684e-04 1.3944201799213122e-03 0.0000000000000000e+00  1.0691991634322447e-04 1.4188774097330138e-03 0.0000000000000000e+00  1.0964738312892122e-04 1.4434419686720479e-03 0.0000000000000000e+00  1.1237101507037404e-04 1.4680919819958361e-03 0.0000000000000000e+00  1.1509030758145997e-04 1.4928048862823072e-03 0.0000000000000000e+00  1.1780671585173443e-04 1.5175557688144980e-03 0.0000000000000000e+00  4.8729297510778675e-05 1.0651716554380690e-03 0.0000000000000000e+00  5.3218456438924008e-05 1.0857454678889484e-03 0.0000000000000000e+00  5.7436227182056638e-05 1.1065649920363038e-03 0.0000000000000000e+00  6.1450175565358871e-05 1.1277394740991187e-03 0.0000000000000000e+00  6.5319328296454789e-05 1.1493254715031498e-03 0.0000000000000000e+00  6.9086777870847822e-05 1.1713377386943227e-03 0.0000000000000000e+00  7.2779135258906738e-05 1.1937640923020132e-03 0.0000000000000000e+00  7.6410510723052535e-05 1.2165772050560736e-03 0.0000000000000000e+00  7.9987900392365015e-05 1.2397426093103308e-03 0.0000000000000000e+00  8.3515416952987249e-05 1.2632244343044740e-03 0.0000000000000000e+00  8.6996280021137210e-05 1.2869889903833801e-03 0.0000000000000000e+00  9.0433072235338228e-05 1.3110062484797934e-03 0.0000000000000000e+00  9.3827583172404337e-05 1.3352493950193290e-03 0.0000000000000000e+00  9.7181022563020141e-05 1.3596931959673486e-03 0.0000000000000000e+00  1.0049438634995023e-04 1.3843130157374555e-03 0.0000000000000000e+00  1.0376858487464206e-04 1.4090849006547313e-03 0.0000000000000000e+00  1.0700432025882678e-04 1.4339855077524493e-03 0.0000000000000000e+00  1.1020208301874560e-04 1.4589913589040430e-03 0.0000000000000000e+00  1.1336265754284888e-04 1.4840774690489638e-03 0.0000000000000000e+00  1.1648797899092600e-04 1.5092157744108986e-03 0.0000000000000000e+00  1.1958182269816790e-04 1.5343739978957553e-03 0.0000000000000000e+00  3.9096772089263020e-05 1.0728744781713228e-03 0.0000000000000000e+00  4.4291551655234080e-05 1.0937388490289619e-03 0.0000000000000000e+00  4.9288950262971040e-05 1.1149866913234495e-03 0.0000000000000000e+00  5.4112891474482653e-05 1.1366636245421838e-03 0.0000000000000000e+00  5.8787773724789138e-05 1.1587839591322320e-03 0.0000000000000000e+00  6.3333650336062602e-05 1.1813385494084379e-03 0.0000000000000000e+00  6.7765538925159693e-05 1.2043030480618020e-03 0.0000000000000000e+00  7.2094517507646387e-05 1.2276448713609400e-03 0.0000000000000000e+00  7.6329050317975976e-05 1.2513288098854767e-03 0.0000000000000000e+00  8.0475919079119293e-05 1.2753209118350521e-03 0.0000000000000000e+00  8.4540670245553042e-05 1.2995903468836696e-03 0.0000000000000000e+00  8.8527775832844625e-05 1.3241093762928829e-03 0.0000000000000000e+00  9.2440671699226597e-05 1.3488522038215330e-03 0.0000000000000000e+00  9.6281735706601443e-05 1.3737939835677796e-03 0.0000000000000000e+00  1.0005235712041231e-04 1.3989103994122875e-03 0.0000000000000000e+00  1.0375319740808124e-04 1.4241772392983489e-03 0.0000000000000000e+00  1.0738459325580969e-04 1.4495695520831940e-03 0.0000000000000000e+00  1.1094703159453816e-04 1.4750604018586172e-03 0.0000000000000000e+00  1.1444157473890000e-04 1.5006195769697653e-03 0.0000000000000000e+00  1.1787009649399152e-04 1.5262126414163938e-03 0.0000000000000000e+00  1.2123525125455407e-04 1.5518002143211384e-03 0.0000000000000000e+00  3.1643363151356183e-05 1.0801740748743781e-03 0.0000000000000000e+00  3.7476139307799635e-05 1.1014800343856377e-03 0.0000000000000000e+00  4.3128096008977459e-05 1.1232618783265551e-03 0.0000000000000000e+00  4.8603446654048147e-05 1.1455221411393254e-03 0.0000000000000000e+00  5.3911453951204995e-05 1.1682455196753651e-03 0.0000000000000000e+00  5.9063233074810862e-05 1.1914043503742152e-03 0.0000000000000000e+00  6.4070186783365008e-05 1.2149642693287917e-03 0.0000000000000000e+00  6.8943151012308500e-05 1.2388891130591141e-03 0.0000000000000000e+00  7.3691878794739164e-05 1.2631443502885181e-03 0.0000000000000000e+00  7.8324729076196582e-05 1.2876987278718512e-03 0.0000000000000000e+00  8.2848486762689594e-05 1.3125242865609594e-03 0.0000000000000000e+00  8.7268249032807890e-05 1.3375953864570532e-03 0.0000000000000000e+00  9.1587377508819604e-05 1.3628876054060260e-03 0.0000000000000000e+00  9.5807626485993900e-05 1.3883768862570593e-03 0.0000000000000000e+00  9.9929505480283198e-05 1.4140387505671018e-03 0.0000000000000000e+00  1.0395277886411336e-04 1.4398473758986156e-03 0.0000000000000000e+00  1.0787694653283605e-04 1.4657745357572124e-03 0.0000000000000000e+00  1.1170157100892711e-04 1.4917886046254697e-03 0.0000000000000000e+00  1.1542637743703551e-04 1.5178538395151872e-03 0.0000000000000000e+00  1.1905109267332979e-04 1.5439299041620197e-03 0.0000000000000000e+00  1.2257492405294811e-04 1.5699714830607755e-03 0.0000000000000000e+00  2.6041708416343785e-05 1.0872905220222719e-03 0.0000000000000000e+00  3.2410461511785029e-05 1.1091849269631701e-03 0.0000000000000000e+00  3.8584586431268565e-05 1.1316092551715614e-03 0.0000000000000000e+00  4.4562506797335676e-05 1.1545351472595361e-03 0.0000000000000000e+00  5.0350105288514795e-05 1.1779260122006267e-03 0.0000000000000000e+00  5.5957640437721057e-05 1.2017417935073168e-03 0.0000000000000000e+00  6.1397260147491624e-05 1.2259431583735954e-03 0.0000000000000000e+00  6.6681099072314027e-05 1.2504942042313517e-03 0.0000000000000000e+00  7.1819986010957410e-05 1.2753634651218747e-03 0.0000000000000000e+00  7.6822692414729954e-05 1.3005235004948947e-03 0.0000000000000000e+00  8.1695588247420524e-05 1.3259496576975411e-03 0.0000000000000000e+00  8.6442601881884363e-05 1.3516186581301940e-03 0.0000000000000000e+00  9.1065452605663665e-05 1.3775073482478976e-03 0.0000000000000000e+00  9.5564110914086680e-05 1.4035916175996815e-03 0.0000000000000000e+00  9.9937365620277139e-05 1.4298454078379816e-03 0.0000000000000000e+00  1.0418334450929627e-04 1.4562398059171945e-03 0.0000000000000000e+00  1.0829986310608761e-04 1.4827423112548450e-03 0.0000000000000000e+00  1.1228453616065966e-04 1.5093163725973171e-03 0.0000000000000000e+00  1.1613462571612500e-04 1.5359211885088858e-03 0.0000000000000000e+00  1.1984658393815787e-04 1.5625117459290181e-03 0.0000000000000000e+00  1.2341525272675430e-04 1.5890392987976906e-03 0.0000000000000000e+00  2.1983009762296785e-05 1.0944837776400323e-03 0.0000000000000000e+00  2.8762710095463536e-05 1.1170962051045008e-03 0.0000000000000000e+00  3.5321397502982098e-05 1.1402565577110838e-03 0.0000000000000000e+00  4.1660568160412575e-05 1.1639146228399502e-03 0.0000000000000000e+00  4.7789638285372486e-05 1.1880211028219660e-03 0.0000000000000000e+00  5.3722147212400885e-05 1.2125314309961526e-03 0.0000000000000000e+00  5.9472569125941194e-05 1.2374076406716204e-03 0.0000000000000000e+00  6.5054045452130508e-05 1.2626183674145492e-03 0.0000000000000000e+00  7.0477052806538110e-05 1.2881375507034260e-03 0.0000000000000000e+00  7.5748839434783586e-05 1.3139425115208981e-03 0.0000000000000000e+00  8.0873421932737795e-05 1.3400119920379044e-03 0.0000000000000000e+00  8.5851967971049413e-05 1.3663244757056783e-03 0.0000000000000000e+00  9.0683411339106032e-05 1.3928568485019953e-03 0.0000000000000000e+00  9.5365141756901403e-05 1.4195833606335283e-03 0.0000000000000000e+00  9.9893622841250947e-05 1.4464748549058335e-03 0.0000000000000000e+00  1.0426482836188652e-04 1.4734982707966830e-03 0.0000000000000000e+00  1.0847443740645374e-04 1.5006164420315511e-03 0.0000000000000000e+00  1.1251776639441692e-04 1.5277881717854103e-03 0.0000000000000000e+00  1.1638942905232768e-04 1.5549685769798902e-03 0.0000000000000000e+00  1.2008274691730785e-04 1.5821097866278589e-03 0.0000000000000000e+00  1.2358903834383474e-04 1.6091620969673087e-03 0.0000000000000000e+00  1.9154482644874896e-05 1.1020268412754487e-03 0.0000000000000000e+00  2.6209282450765087e-05 1.1254562423777331e-03 0.0000000000000000e+00  3.3017288375635653e-05 1.1494170049739624e-03 0.0000000000000000e+00  3.9588662259855450e-05 1.1738475090065053e-03 0.0000000000000000e+00  4.5939452604406016e-05 1.1986964185419112e-03 0.0000000000000000e+00  5.2087087123163370e-05 1.2239235468292436e-03 0.0000000000000000e+00  5.8047175255519923e-05 1.2494984061034804e-03 0.0000000000000000e+00  6.3831697126187783e-05 1.2753975329854539e-03 0.0000000000000000e+00  6.9448337143786104e-05 1.3016014782840121e-03 0.0000000000000000e+00  7.4900622164970088e-05 1.3280920719097417e-03 0.0000000000000000e+00  8.0188546539857532e-05 1.3548502540145948e-03 0.0000000000000000e+00  8.5309427388934416e-05 1.3818545060005640e-03 0.0000000000000000e+00  9.0258792308083781e-05 1.4090798004879003e-03 0.0000000000000000e+00  9.5031155562161289e-05 1.4364969781779930e-03 0.0000000000000000e+00  9.9620589058573985e-05 1.4640724904193740e-03 0.0000000000000000e+00  1.0402103925164649e-04 1.4917684665204441e-03 0.0000000000000000e+00  1.0822637392555736e-04 1.5195430638064776e-03 0.0000000000000000e+00  1.1223016491836933e-04 1.5473510689480324e-03 0.0000000000000000e+00  1.1602524705092323e-04 1.5751447482481049e-03 0.0000000000000000e+00  1.1960315945793016e-04 1.6028749148642334e-03 0.0000000000000000e+00  1.2295364117074654e-04 1.6304920322796153e-03 0.0000000000000000e+00  1.7235957084411639e-05 1.1101781672616790e-03 0.0000000000000000e+00  2.4432174798331584e-05 1.1344800121749893e-03 0.0000000000000000e+00  3.1367226256291324e-05 1.1592676428649616e-03 0.0000000000000000e+00  3.8061710299764983e-05 1.1844821914320661e-03 0.0000000000000000e+00  4.4537236100754118e-05 1.2100820225528989e-03 0.0000000000000000e+00  5.0812324023582055e-05 1.2360391251329157e-03 0.0000000000000000e+00  5.6900298790384396e-05 1.2623344678889417e-03 0.0000000000000000e+00  6.2808742676726946e-05 1.2889534937621885e-03 0.0000000000000000e+00  6.8539971631741389e-05 1.3158824105628866e-03 0.0000000000000000e+00  7.4092052896217905e-05 1.3431055023759748e-03 0.0000000000000000e+00  7.9460009552919465e-05 1.3706033836027062e-03 0.0000000000000000e+00  8.4636983006986527e-05 1.3983520044577010e-03 0.0000000000000000e+00  8.9615219329886882e-05 1.4263222247688587e-03 0.0000000000000000e+00  9.4386807811803493e-05 1.4544798256972775e-03 0.0000000000000000e+00  9.8944139168649512e-05 1.4827858715872452e-03 0.0000000000000000e+00  1.0328007535727089e-04 1.5111973524778181e-03 0.0000000000000000e+00  1.0738784181957421e-04 1.5396680461217617e-03 0.0000000000000000e+00  1.1126067939259562e-04 1.5681495378431546e-03 0.0000000000000000e+00  1.1489133293663175e-04 1.5965922956018284e-03 0.0000000000000000e+00  1.1827148847931629e-04 1.6249466046837256e-03 0.0000000000000000e+00  1.2139127269835403e-04 1.6531630873139040e-03 0.0000000000000000e+00  1.5907537602226149e-05 1.1191512953478758e-03 0.0000000000000000e+00  2.3128518530334934e-05 1.1443297949107112e-03 0.0000000000000000e+00  3.0092699132893586e-05 1.1699343246961377e-03 0.0000000000000000e+00  3.6827648728143753e-05 1.1959239698003264e-03 0.0000000000000000e+00  4.3355417516747820e-05 1.2222760160537499e-03 0.0000000000000000e+00  4.9690442762824587e-05 1.2489785776390924e-03 0.0000000000000000e+00  5.5839475344953644e-05 1.2760241782551879e-03 0.0000000000000000e+00  6.1802691479928535e-05 1.3034049302904028e-03 0.0000000000000000e+00  6.7575308433423214e-05 1.3311093769594387e-03 0.0000000000000000e+00  7.3149261494368463e-05 1.3591206929934895e-03 0.0000000000000000e+00  7.8514707942849729e-05 1.3874158657909983e-03 0.0000000000000000e+00  8.3661257391595475e-05 1.4159655524906677e-03 0.0000000000000000e+00  8.8578894076989613e-05 1.4447344171456453e-03 0.0000000000000000e+00  9.3258582750168102e-05 1.4736818284361887e-03 0.0000000000000000e+00  9.7692559851022542e-05 1.5027628306991340e-03 0.0000000000000000e+00  1.0187432001808006e-04 1.5319293053897977e-03 0.0000000000000000e+00  1.0579832291868392e-04 1.5611312244085398e-03 0.0000000000000000e+00  1.0945946714180828e-04 1.5903178539995923e-03 0.0000000000000000e+00  1.1285239634929774e-04 1.6194387027755211e-03 0.0000000000000000e+00  1.1597070974687430e-04 1.6484439584246824e-03 0.0000000000000000e+00  1.1880615639746087e-04 1.6772841752877138e-03 0.0000000000000000e+00  1.4867288892462478e-05 1.1290848613847233e-03 0.0000000000000000e+00  2.2028075985571201e-05 1.1551001228782437e-03 0.0000000000000000e+00  2.8955584304078317e-05 1.1814907440489612e-03 0.0000000000000000e+00  3.5675992018328492e-05 1.2082438174969711e-03 0.0000000000000000e+00  4.2204342142371202e-05 1.2353584427172981e-03 0.0000000000000000e+00  4.8545484436484623e-05 1.2628370091797264e-03 0.0000000000000000e+00  5.4696234472150130e-05 1.2906792552849786e-03 0.0000000000000000e+00  6.0647834494182933e-05 1.3188788439304471e-03 0.0000000000000000e+00  6.6388218130385027e-05 1.3474217508530916e-03 0.0000000000000000e+00  7.1903893518490702e-05 1.3762858130999835e-03 0.0000000000000000e+00  7.7181421836041797e-05 1.4054409920620506e-03 0.0000000000000000e+00  8.2208518516992793e-05 1.4348501092431621e-03 0.0000000000000000e+00  8.6974801786626117e-05 1.4644699305249374e-03 0.0000000000000000e+00  9.1472200058353707e-05 1.4942525132684477e-03 0.0000000000000000e+00  9.5695023454875857e-05 1.5241467258230417e-03 0.0000000000000000e+00  9.9639708202750918e-05 1.5540998214174763e-03 0.0000000000000000e+00  1.0330425137484101e-04 1.5840589041198967e-03 0.0000000000000000e+00  1.0668736017220405e-04 1.6139720701451889e-03 0.0000000000000000e+00  1.0978734491080411e-04 1.6437889605630412e-03 0.0000000000000000e+00  1.1260080256114079e-04 1.6734604482883761e-03 0.0000000000000000e+00  1.1512120018877248e-04 1.7029372077237361e-03 0.0000000000000000e+00  1.3856253436650769e-05 1.1400290572094131e-03 0.0000000000000000e+00  2.0911833889524290e-05 1.1668237575071035e-03 0.0000000000000000e+00  2.7768228667233890e-05 1.1939756502398115e-03 0.0000000000000000e+00  3.4439983475077330e-05 1.2214999860955212e-03 0.0000000000000000e+00  4.0928431101187068e-05 1.2494123712441039e-03 0.0000000000000000e+00  4.7225424884965477e-05 1.2777219437859414e-03 0.0000000000000000e+00  5.3316896800977347e-05 1.3064281396629449e-03 0.0000000000000000e+00  5.9185774689731435e-05 1.3355196766731145e-03 0.0000000000000000e+00  6.4814222192762636e-05 1.3649747422604349e-03 0.0000000000000000e+00  7.0185324588838155e-05 1.3947618083473450e-03 0.0000000000000000e+00  7.5284339274474217e-05 1.4248408383165584e-03 0.0000000000000000e+00  8.0099572596896445e-05 1.4551648047494894e-03 0.0000000000000000e+00  8.4622899000515514e-05 1.4856814613502249e-03 0.0000000000000000e+