<?xml version="1.0"?>
<VTKFile type="UnstructuredGrid"  version="0.1"  >
<UnstructuredGrid>
<Piece  NumberOfPoints="650" NumberOfCells="1199">
<Points>
<DataArray  type="Float64"  NumberOfComponents="3"  format="ascii">3.238260869565217 0 0  3.254782608695652 0 0  3.254782608695652 0.01666666666666667 0  3.238260869565217 0.01666666666666667 0  3.271304347826087 0 0  3.271304347826087 0.01666666666666667 0  3.287826086956521 0 0  3.287826086956521 0.01666666666666667 0  3.304347826086957 0 0  3.304347826086957 0.01666666666666667 0  3.320869565217391 0 0  3.320869565217391 0.01666666666666667 0  3.337391304347826 0 0  3.337391304347826 0.01666666666666667 0  3.353913043478261 0 0  3.353913043478261 0.01666666666666667 0  3.370434782608696 0 0  3.370434782608696 0.01666666666666667 0  3.386956521739131 0 0  3.386956521739131 0.01666666666666667 0  3.403478260869565 0 0  3.403478260869565 0.01666666666666667 0  3.419999999999999 0 0  3.419999999999999 0.01666666666666667 0  3.436521739130435 0 0  3.436521739130435 0.01666666666666667 0  3.453043478260869 0 0  3.453043478260869 0.01666666666666667 0  3.469565217391304 0 0  3.469565217391304 0.01666666666666667 0  3.486086956521739 0 0  3.486086956521739 0.01666666666666667 0  3.502608695652174 0 0  3.502608695652174 0.01666666666666667 0  3.519130434782609 0 0  3.519130434782609 0.01666666666666667 0  3.535652173913043 0 0  3.535652173913043 0.01666666666666667 0  3.552173913043478 0 0  3.552173913043478 0.01666666666666667 0  3.568695652173913 0 0  3.568695652173913 0.01666666666666667 0  3.585217391304347 0 0  3.585217391304347 0.01666666666666667 0  3.601739130434782 0 0  3.601739130434782 0.01666666666666667 0  3.618260869565217 0 0  3.618260869565217 0.01666666666666667 0  3.634782608695652 0 0  3.634782608695652 0.01666666666666667 0  3.651304347826087 0 0  3.651304347826087 0.01666666666666667 0  3.667826086956521 0 0  3.667826086956521 0.01666666666666667 0  3.684347826086956 0 0  3.684347826086956 0.01666666666666667 0  3.700869565217391 0 0  3.700869565217391 0.01666666666666667 0  3.717391304347826 0 0  3.717391304347826 0.01666666666666667 0  3.733913043478261 0 0  3.733913043478261 0.01666666666666667 0  3.750434782608695 0 0  3.750434782608695 0.01666666666666667 0  3.766956521739131 0 0  3.766956521739131 0.01666666666666667 0  3.783478260869565 0 0  3.783478260869565 0.01666666666666667 0  3.8 0 0  3.8 0.01666666666666667 0  3.254782608695652 0.03333333333333333 0  3.271304347826087 0.03333333333333333 0  3.287826086956521 0.03333333333333333 0  3.304347826086957 0.03333333333333333 0  3.320869565217391 0.03333333333333333 0  3.337391304347826 0.03333333333333333 0  3.353913043478261 0.03333333333333333 0  3.370434782608696 0.03333333333333333 0  3.386956521739131 0.03333333333333333 0  3.403478260869565 0.03333333333333333 0  3.419999999999999 0.03333333333333333 0  3.436521739130435 0.03333333333333333 0  3.453043478260869 0.03333333333333333 0  3.469565217391304 0.03333333333333333 0  3.486086956521739 0.03333333333333333 0  3.502608695652174 0.03333333333333333 0  3.519130434782609 0.03333333333333333 0  3.535652173913043 0.03333333333333333 0  3.552173913043478 0.03333333333333333 0  3.568695652173913 0.03333333333333333 0  3.585217391304347 0.03333333333333333 0  3.601739130434782 0.03333333333333333 0  3.618260869565217 0.03333333333333333 0  3.634782608695652 0.03333333333333333 0  3.651304347826087 0.03333333333333333 0  3.667826086956521 0.03333333333333333 0  3.684347826086956 0.03333333333333333 0  3.700869565217391 0.03333333333333333 0  3.717391304347826 0.03333333333333333 0  3.733913043478261 0.03333333333333333 0  3.750434782608695 0.03333333333333333 0  3.766956521739131 0.03333333333333333 0  3.783478260869565 0.03333333333333333 0  3.8 0.03333333333333333 0  3.271304347826087 0.05 0  3.287826086956521 0.05 0  3.304347826086957 0.05 0  3.320869565217391 0.05 0  3.337391304347826 0.05 0  3.353913043478261 0.05 0  3.370434782608696 0.05 0  3.386956521739131 0.05 0  3.403478260869565 0.05 0  3.419999999999999 0.05 0  3.436521739130435 0.05 0  3.453043478260869 0.05 0  3.469565217391304 0.05 0  3.486086956521739 0.05 0  3.502608695652174 0.05 0  3.519130434782609 0.05 0  3.535652173913043 0.05 0  3.552173913043478 0.05 0  3.568695652173913 0.05 0  3.585217391304347 0.05 0  3.601739130434782 0.05 0  3.618260869565217 0.05 0  3.634782608695652 0.05 0  3.651304347826087 0.05 0  3.667826086956521 0.05 0  3.684347826086956 0.05 0  3.700869565217391 0.05 0  3.717391304347826 0.05 0  3.733913043478261 0.05 0  3.750434782608695 0.05 0  3.766956521739131 0.05 0  3.783478260869565 0.05 0  3.8 0.05 0  3.287826086956521 0.06666666666666667 0  3.304347826086957 0.06666666666666667 0  3.320869565217391 0.06666666666666667 0  3.337391304347826 0.06666666666666667 0  3.353913043478261 0.06666666666666667 0  3.370434782608696 0.06666666666666667 0  3.386956521739131 0.06666666666666667 0  3.403478260869565 0.06666666666666667 0  3.419999999999999 0.06666666666666667 0  3.436521739130435 0.06666666666666667 0  3.453043478260869 0.06666666666666667 0  3.469565217391304 0.06666666666666667 0  3.486086956521739 0.06666666666666667 0  3.502608695652174 0.06666666666666667 0  3.519130434782609 0.06666666666666667 0  3.535652173913043 0.06666666666666667 0  3.552173913043478 0.06666666666666667 0  3.568695652173913 0.06666666666666667 0  3.585217391304347 0.06666666666666667 0  3.601739130434782 0.06666666666666667 0  3.618260869565217 0.06666666666666667 0  3.634782608695652 0.06666666666666667 0  3.651304347826087 0.06666666666666667 0  3.667826086956521 0.06666666666666667 0  3.684347826086956 0.06666666666666667 0  3.700869565217391 0.06666666666666667 0  3.717391304347826 0.06666666666666667 0  3.733913043478261 0.06666666666666667 0  3.750434782608695 0.06666666666666667 0  3.766956521739131 0.06666666666666667 0  3.783478260869565 0.06666666666666667 0  3.8 0.06666666666666667 0  3.304347826086957 0.08333333333333333 0  3.320869565217391 0.08333333333333333 0  3.337391304347826 0.08333333333333333 0  3.353913043478261 0.08333333333333333 0  3.370434782608696 0.08333333333333333 0  3.386956521739131 0.08333333333333333 0  3.403478260869565 0.08333333333333333 0  3.419999999999999 0.08333333333333333 0  3.436521739130435 0.08333333333333333 0  3.453043478260869 0.08333333333333333 0  3.469565217391304 0.08333333333333333 0  3.486086956521739 0.08333333333333333 0  3.502608695652174 0.08333333333333333 0  3.519130434782609 0.08333333333333333 0  3.535652173913043 0.08333333333333333 0  3.552173913043478 0.08333333333333333 0  3.568695652173913 0.08333333333333333 0  3.585217391304347 0.08333333333333333 0  3.601739130434782 0.08333333333333333 0  3.618260869565217 0.08333333333333333 0  3.634782608695652 0.08333333333333333 0  3.651304347826087 0.08333333333333333 0  3.667826086956521 0.08333333333333333 0  3.684347826086956 0.08333333333333333 0  3.700869565217391 0.08333333333333333 0  3.717391304347826 0.08333333333333333 0  3.733913043478261 0.08333333333333333 0  3.750434782608695 0.08333333333333333 0  3.766956521739131 0.08333333333333333 0  3.783478260869565 0.08333333333333333 0  3.8 0.08333333333333333 0  3.320869565217391 0.1 0  3.337391304347826 0.1 0  3.353913043478261 0.1 0  3.370434782608696 0.1 0  3.386956521739131 0.1 0  3.403478260869565 0.1 0  3.419999999999999 0.1 0  3.436521739130435 0.1 0  3.453043478260869 0.1 0  3.469565217391304 0.1 0  3.486086956521739 0.1 0  3.502608695652174 0.1 0  3.519130434782609 0.1 0  3.535652173913043 0.1 0  3.552173913043478 0.1 0  3.568695652173913 0.1 0  3.585217391304347 0.1 0  3.601739130434782 0.1 0  3.618260869565217 0.1 0  3.634782608695652 0.1 0  3.651304347826087 0.1 0  3.667826086956521 0.1 0  3.684347826086956 0.1 0  3.700869565217391 0.1 0  3.717391304347826 0.1 0  3.733913043478261 0.1 0  3.750434782608695 0.1 0  3.766956521739131 0.1 0  3.783478260869565 0.1 0  3.8 0.1 0  3.337391304347826 0.1166666666666667 0  3.353913043478261 0.1166666666666667 0  3.370434782608696 0.1166666666666667 0  3.386956521739131 0.1166666666666667 0  3.403478260869565 0.1166666666666667 0  3.419999999999999 0.1166666666666667 0  3.436521739130435 0.1166666666666667 0  3.453043478260869 0.1166666666666667 0  3.469565217391304 0.1166666666666667 0  3.486086956521739 0.1166666666666667 0  3.502608695652174 0.1166666666666667 0  3.519130434782609 0.1166666666666667 0  3.535652173913043 0.1166666666666667 0  3.552173913043478 0.1166666666666667 0  3.568695652173913 0.1166666666666667 0  3.585217391304347 0.1166666666666667 0  3.601739130434782 0.1166666666666667 0  3.618260869565217 0.1166666666666667 0  3.634782608695652 0.1166666666666667 0  3.651304347826087 0.1166666666666667 0  3.667826086956521 0.1166666666666667 0  3.684347826086956 0.1166666666666667 0  3.700869565217391 0.1166666666666667 0  3.717391304347826 0.1166666666666667 0  3.733913043478261 0.1166666666666667 0  3.750434782608695 0.1166666666666667 0  3.766956521739131 0.1166666666666667 0  3.783478260869565 0.1166666666666667 0  3.8 0.1166666666666667 0  3.353913043478261 0.1333333333333333 0  3.370434782608696 0.1333333333333333 0  3.386956521739131 0.1333333333333333 0  3.403478260869565 0.1333333333333333 0  3.419999999999999 0.1333333333333333 0  3.436521739130435 0.1333333333333333 0  3.453043478260869 0.1333333333333333 0  3.469565217391304 0.1333333333333333 0  3.486086956521739 0.1333333333333333 0  3.502608695652174 0.1333333333333333 0  3.519130434782609 0.1333333333333333 0  3.535652173913043 0.1333333333333333 0  3.552173913043478 0.1333333333333333 0  3.568695652173913 0.1333333333333333 0  3.585217391304347 0.1333333333333333 0  3.601739130434782 0.1333333333333333 0  3.618260869565217 0.1333333333333333 0  3.634782608695652 0.1333333333333333 0  3.651304347826087 0.1333333333333333 0  3.667826086956521 0.1333333333333333 0  3.684347826086956 0.1333333333333333 0  3.700869565217391 0.1333333333333333 0  3.717391304347826 0.13333333
[...]
<PointData  Vectors="Displacement"> 
<DataArray  type="Float64"  Name="Displacement"  NumberOfComponents="3" format="ascii">3.8382022046367091e-04 4.1470114216790198e-03 0.0000000000000000e+00  3.8547536206220458e-04 4.1759956951875621e-03 0.0000000000000000e+00  3.5660441733500120e-04 4.1755451387649797e-03 0.0000000000000000e+00  3.5525496146424529e-04 4.1464435373367112e-03 0.0000000000000000e+00  3.8677328596875706e-04 4.2051377741705595e-03 0.0000000000000000e+00  3.5769999072133798e-04 4.2047824830540982e-03 0.0000000000000000e+00  3.8778357205225658e-04 4.2343530177040272e-03 0.0000000000000000e+00  3.5858692166914886e-04 4.2340731885249843e-03 0.0000000000000000e+00  3.8856568949654385e-04 4.2635909860729432e-03 0.0000000000000000e+00  3.5930230076832120e-04 4.2633713037569330e-03 0.0000000000000000e+00  3.8916624414258785e-04 4.2928209512501422e-03 0.0000000000000000e+00  3.5987573792198302e-04 4.2926499563280497e-03 0.0000000000000000e+00  3.8962136041245622e-04 4.3220219178754472e-03 0.0000000000000000e+00  3.6033152238302033e-04 4.3218905351776098e-03 0.0000000000000000e+00  3.8995963410658462e-04 4.3511792066826703e-03 0.0000000000000000e+00  3.6068997985400748e-04 4.3510800018451935e-03 0.0000000000000000e+00  3.9020397976389072e-04 4.3802831820930616e-03 0.0000000000000000e+00  3.6096806482252254e-04 4.3802100964321746e-03 0.0000000000000000e+00  3.9037276918306441e-04 4.4093279728366110e-03 0.0000000000000000e+00  3.6117981134666731e-04 4.4092761118051920e-03 0.0000000000000000e+00  3.9048074372893349e-04 4.4383102627890214e-03 0.0000000000000000e+00  3.6133682266400319e-04 4.4382756609207185e-03 0.0000000000000000e+00  3.9053980291283829e-04 4.4672284427403515e-03 0.0000000000000000e+00  3.6144873309293304e-04 4.4672078545885292e-03 0.0000000000000000e+00  3.9055962739326458e-04 4.4960821118744066e-03 0.0000000000000000e+00  3.6152357612169840e-04 4.4960728607163387e-03 0.0000000000000000e+00  3.9054813045724641e-04 4.5248717692941360e-03 0.0000000000000000e+00  3.6156805717917117e-04 4.5248716452978141e-03 0.0000000000000000e+00  3.9051178797594639e-04 4.5535985691597357e-03 0.0000000000000000e+00  3.6158776708511734e-04 4.5536057518814057e-03 0.0000000000000000e+00  3.9045590054047628e-04 4.5822641101693224e-03 0.0000000000000000e+00  3.6158736397733679e-04 4.5822771009270237e-03 0.0000000000000000e+00  3.9038481473322828e-04 4.6108702724784187e-03 0.0000000000000000e+00  3.6157073220862584e-04 4.6108878346226559e-03 0.0000000000000000e+00  3.9030211069781613e-04 4.6394191065912823e-03 0.0000000000000000e+00  3.6154111869707702e-04 4.6394402150245623e-03 0.0000000000000000e+00  3.9021075939679316e-04 4.6679127630334955e-03 0.0000000000000000e+00  3.6150124884301560e-04 4.6679365622682963e-03 0.0000000000000000e+00  3.9011325590914011e-04 4.6963534490841825e-03 0.0000000000000000e+00  3.6145342693455490e-04 4.6963792173176661e-03 0.0000000000000000e+00  3.9001173674884732e-04 4.7247434048140607e-03 0.0000000000000000e+00  3.6139962639600558e-04 4.7247705214062755e-03 0.0000000000000000e+00  3.8990808777102700e-04 4.7530848971337556e-03 0.0000000000000000e+00  3.6134157373529299e-04 4.7531128117665866e-03 0.0000000000000000e+00  3.8980404599684560e-04 4.7813802345006030e-03 0.0000000000000000e+00  3.6128082774210702e-04 4.7814084374132489e-03 0.0000000000000000e+00  3.8970129464781597e-04 4.8096318067780315e-03 0.0000000000000000e+00  3.6121885278961476e-04 4.8096598006761512e-03 0.0000000000000000e+00  3.8960154625624759e-04 4.8378421548166397e-03 0.0000000000000000e+00  3.6115708218746779e-04 4.8378694303041272e-03 0.0000000000000000e+00  3.8950660431242770e-04 4.8660140723193078e-03 0.0000000000000000e+00  3.6109696483520044e-04 4.8660400898204587e-03 0.0000000000000000e+00  3.8941838995743190e-04 4.8941507383066987e-03 0.0000000000000000e+00  3.6103998642334238e-04 4.8941749202406513e-03 0.0000000000000000e+00  3.8933891701261724e-04 4.9222558719855076e-03 0.0000000000000000e+00  3.6098765555447394e-04 4.9222776093236255e-03 0.0000000000000000e+00  3.8927019624103020e-04 4.9503338926065385e-03 0.0000000000000000e+00  3.6094144581977605e-04 4.9503525699166728e-03 0.0000000000000000e+00  3.8921404822923579e-04 4.9783900534314382e-03 0.0000000000000000e+00  3.6090268753708176e-04 4.9784050964368663e-03 0.0000000000000000e+00  3.8917180407914165e-04 5.0064304972879028e-03 0.0000000000000000e+00  3.6087240788368872e-04 5.0064414482945876e-03 0.0000000000000000e+00  3.8914387600254491e-04 5.0344621417790399e-03 0.0000000000000000e+00  3.6085112479791677e-04 5.0344687761817624e-03 0.0000000000000000e+00  3.8912919205020261e-04 5.0624922208628341e-03 0.0000000000000000e+00  3.6083860258479710e-04 5.0624947493707563e-03 0.0000000000000000e+00  3.8912453126916768e-04 5.0905271264091957e-03 0.0000000000000000e+00  3.6083355033344046e-04 5.0905266332067116e-03 0.0000000000000000e+00  3.8912399607932065e-04 5.1185698729313504e-03 0.0000000000000000e+00  3.6083307939858061e-04 5.1185693139971095e-03 0.0000000000000000e+00  3.2832956075556571e-04 4.1752517967321478e-03 0.0000000000000000e+00  3.2912414299755003e-04 4.2045467196427247e-03 0.0000000000000000e+00  3.2980283458102947e-04 4.2338783306381739e-03 0.0000000000000000e+00  3.3038070729502742e-04 4.2632094043850649e-03 0.0000000000000000e+00  3.3086839166757148e-04 4.2925171771738451e-03 0.0000000000000000e+00  3.3127605489367324e-04 4.3217832069825908e-03 0.0000000000000000e+00  3.3161407709321266e-04 4.3509942624371072e-03 0.0000000000000000e+00  3.3189217611611407e-04 4.3801425105357466e-03 0.0000000000000000e+00  3.3211891385299638e-04 4.4092238435298184e-03 0.0000000000000000e+00  3.3230173563370067e-04 4.4382363328968055e-03 0.0000000000000000e+00  3.3244715685227957e-04 4.4671794001741568e-03 0.0000000000000000e+00  3.3256088735250986e-04 4.4960534689837892e-03 0.0000000000000000e+00  3.3264788734133825e-04 4.5248597604038007e-03 0.0000000000000000e+00  3.3271241871498281e-04 4.5536000640096263e-03 0.0000000000000000e+00  3.3275811921858737e-04 4.5822765151625365e-03 0.0000000000000000e+00  3.3278808652602190e-04 4.6108914339706179e-03 0.0000000000000000e+00  3.3280495494838748e-04 4.6394472305125861e-03 0.0000000000000000e+00  3.3281096047942999e-04 4.6679463507808714e-03 0.0000000000000000e+00  3.3280799864179259e-04 4.6963912424591615e-03 0.0000000000000000e+00  3.3279768060960369e-04 4.7247843333253700e-03 0.0000000000000000e+00  3.3278139086357630e-04 4.7531280239030355e-03 0.0000000000000000e+00  3.3276034734344663e-04 4.7814246995127058e-03 0.0000000000000000e+00  3.3273566291935512e-04 4.8096767685810822e-03 0.0000000000000000e+00  3.3270840470563622e-04 4.8378867343278082e-03 0.0000000000000000e+00  3.3267964568502227e-04 4.8660573046380639e-03 0.0000000000000000e+00  3.3265050184835035e-04 4.8941915399445726e-03 0.0000000000000000e+00  3.3262214787813593e-04 4.9222930316871888e-03 0.0000000000000000e+00  3.3259580535682651e-04 4.9503660944848291e-03 0.0000000000000000e+00  3.3257269926916986e-04 4.9784159431290175e-03 0.0000000000000000e+00  3.3255397986060322e-04 5.0064488104093361e-03 0.0000000000000000e+00  3.3254060365294061e-04 5.0344719437895001e-03 0.0000000000000000e+00  3.3253314909183267e-04 5.0624934018320611e-03 0.0000000000000000e+00  3.3253148369111077e-04 5.0905215740047124e-03 0.0000000000000000e+00  3.3253404358759886e-04 5.1185644491824576e-03 0.0000000000000000e+00  3.0084395721673818e-04 4.2044792675557897e-03 0.0000000000000000e+00  3.0128455402692874e-04 4.2338096060002368e-03 0.0000000000000000e+00  3.0169516270378593e-04 4.2631401723056432e-03 0.0000000000000000e+00  3.0206776038835904e-04 4.2924528533837686e-03 0.0000000000000000e+00  3.0239951162562930e-04 4.3217260809879105e-03 0.0000000000000000e+00  3.0269185745603842e-04 4.3509442674762042e-03 0.0000000000000000e+00  3.0294765913020183e-04 4.3800992355330108e-03 0.0000000000000000e+00  3.0316991274322724e-04 4.4091870315230439e-03 0.0000000000000000e+00  3.0336163219075768e-04 4.4382056825299984e-03 0.0000000000000000e+00  3.0352592927473796e-04 4.4671544135462225e-03 0.0000000000000000e+00  3.0366593729679720e-04 4.4960335063827413e-03 0.0000000000000000e+00  3.0378463778512932e-04 4.5248441782679231e-03 0.0000000000000000e+00  3.0388474021613554e-04 4.5535882930057723e-03 0.0000000000000000e+00  3.0396865216509770e-04 4.5822680674691921e-03 0.0000000000000000e+00  3.0403849396192585e-04 4.6108858888303890e-03 0.0000000000000000e+00  3.0409611568871778e-04 4.6394442289156759e-03 0.0000000000000000e+00  3.0414310719631161e-04 4.6679455994302075e-03 0.0000000000000000e+00  3.0418080875808289e-04 4.6963925169778344e-03 0.0000000000000000e+00  3.0421033030281355e-04 4.7247874734251058e-03 0.0000000000000000e+00  3.0423258296803543e-04 4.7531329174624413e-03 0.0000000000000000e+00  3.0424832396957178e-04 4.7814312544868049e-03 0.0000000000000000e+00  3.0425821372665190e-04 4.8096848732135057e-03 0.0000000000000000e+00  3.0426288164017175e-04 4.8378962082302173e-03 0.0000000000000000e+00  3.0426299450712912e-04 4.8660678452227355e-03 0.0000000000000000e+00  3.0425931999681369e-04 4.8942026700864597e-03 0.0000000000000000e+00  3.0425277698747639e-04 4.9223040557346163e-03 0.0000000000000000e+00  3.0424446450787781e-04 4.9503760717519918e-03 0.0000000000000000e+00  3.0423566087099728e-04 4.9784236924785511e-03 0.0000000000000000e+00  3.0422778270340476e-04 5.0064529702591454e-03 0.0000000000000000e+00  3.0422228649065096e-04 5.0344711369596142e-03 0.0000000000000000e+00  3.0422047704701789e-04 5.0624866101553244e-03 0.0000000000000000e+00  3.0422315101387025e-04 5.0905089433222880e-03 0.0000000000000000e+00  3.0422995392004722e-04 5.1185489692828628e-03 0.0000000000000000e+00  2.7289040403891541e-04 4.2338739667165401e-03 0.0000000000000000e+00  2.7314209968963825e-04 4.2631728102202580e-03 0.0000000000000000e+00  2.7339642739812435e-04 4.2924690033062114e-03 0.0000000000000000e+00  2.7364344249785781e-04 4.3217321090095843e-03 0.0000000000000000e+00  2.7387935645678915e-04 4.3509423253047111e-03 0.0000000000000000e+00  2.7410182400066123e-04 4.3800914513216624e-03 0.0000000000000000e+00  2.7430883468621301e-04 4.4091757495641429e-03 0.0000000000000000e+00  2.7449919979466675e-04 4.4381927613647704e-03 0.0000000000000000e+00  2.7467280561459354e-04 4.4671409529035491e-03 0.0000000000000000e+00  2.7483035181460051e-04 4.4960200532830341e-03 0.0000000000000000e+00  2.7497290766315997e-04 4.5248310552507259e-03 0.0000000000000000e+00  2.7510162386207586e-04 4.5535757587446398e-03 0.0000000000000000e+00  2.7521763297111174e-04 4.5822563356001794e-03 0.0000000000000000e+00  2.7532202110312580e-04 4.6108751209948465e-03 0.0000000000000000e+00  2.7541579330132409e-04 4.6394345544413041e-03 0.0000000000000000e+00  2.7549982720141225e-04 4.6679371509927032e-03 0.0000000000000000e+00  2.7557483425990389e-04 4.6963854603033466e-03 0.0000000000000000e+00  2.7564134175658730e-04 4.7247820192083878e-03 0.0000000000000000e+00  2.7569969992034631e-04 4.7531293117712104e-03 0.0000000000000000e+00  2.7575011541877605e-04 4.7814297460104446e-03 0.0000000000000000e+00  2.7579271049553943e-04 4.8096856577543685e-03 0.0000000000000000e+00  2.7582760343450985e-04 4.8378993545448628e-03 0.0000000000000000e+00  2.7585500238425992e-04 4.8660732096923540e-03 0.0000000000000000e+00  2.7587530213522111e-04 4.8942098101013385e-03 0.0000000000000000e+00  2.7588917200051922e-04 4.9223121538424335e-03 0.0000000000000000e+00  2.7589762187873464e-04 4.9503838856099595e-03 0.0000000000000000e+00  2.7590203243257427e-04 4.9784295506071696e-03 0.0000000000000000e+00  2.7590413321248916e-04 5.0064548427998469e-03 0.0000000000000000e+00  2.7590590788593370e-04 5.0344668278844854e-03 0.0000000000000000e+00  2.7590939748543879e-04 5.0624741463196300e-03 0.0000000000000000e+00  2.7591636494165856e-04 5.0904872716069569e-03 0.0000000000000000e+00  2.7592780092354610e-04 5.1185190650981883e-03 0.0000000000000000e+00  2.4464208208915318e-04 4.2632963331497844e-03 0.0000000000000000e+00  2.4478705505842814e-04 4.2925632841172194e-03 0.0000000000000000e+00  2.4495303190597137e-04 4.3218031798596289e-03 0.0000000000000000e+00  2.4513351999893310e-04 4.3509916208401226e-03 0.0000000000000000e+00  2.4532175054583084e-04 4.3801229304078612e-03 0.0000000000000000e+00  2.4551092522498137e-04 4.4091942852778204e-03 0.0000000000000000e+00  2.4569602287670552e-04 4.4382022057258830e-03 0.0000000000000000e+00  2.4587424913854577e-04 4.4671437006166721e-03 0.0000000000000000e+00  2.4604438481563271e-04 4.4960175643643891e-03 0.0000000000000000e+00  2.4620592652036671e-04 4.5248244811791159e-03 0.0000000000000000e+00  2.4635864544910775e-04 4.5535661493206767e-03 0.0000000000000000e+00  2.4650249631614194e-04 4.5822446013867157e-03 0.0000000000000000e+00  2.4663759644185079e-04 4.6108620033132970e-03 0.0000000000000000e+00  2.4676415080604773e-04 4.6394206720275291e-03 0.0000000000000000e+00  2.4688234620215746e-04 4.6679230759807408e-03 0.0000000000000000e+00  2.4699226094836900e-04 4.6963717788469127e-03 0.0000000000000000e+00  2.4709381072150771e-04 4.7247693606972613e-03 0.0000000000000000e+00  2.4718673375109064e-04 4.7531183442120241e-03 0.0000000000000000e+00  2.4727061694743976e-04 4.7814211350454359e-03 0.0000000000000000e+00  2.4734496338430265e-04 4.8096799891188865e-03 0.0000000000000000e+00  2.4740929573706415e-04 4.8378970263495882e-03 0.0000000000000000e+00  2.4746328450166188e-04 4.8660743063144067e-03 0.0000000000000000e+00  2.4750688628980764e-04 4.8942139728076406e-03 0.0000000000000000e+00  2.4754047533504523e-04 4.9223184660022743e-03 0.0000000000000000e+00  2.4756494958789684e-04 4.9503907935767736e-03 0.0000000000000000e+00  2.4758179171357634e-04 4.9784348449968402e-03 0.0000000000000000e+00  2.4759306505114980e-04 5.0064557294545019e-03 0.0000000000000000e+00  2.4760132483284076e-04 5.0344601238010581e-03 0.0000000000000000e+00  2.4760942692394632e-04 5.0624566400381639e-03 0.0000000000000000e+00  2.4762022688271606e-04 5.0904562734146019e-03 0.0000000000000000e+00  2.4763620146725344e-04 5.1184730829371018e-03 0.0000000000000000e+00  2.1617524681476788e-04 4.2927253455783097e-03 0.0000000000000000e+00  2.1627599720347570e-04 4.3219331926395970e-03 0.0000000000000000e+00  2.1641409244672788e-04 4.3510874586323491e-03 0.0000000000000000e+00  2.1657705522922950e-04 4.3801906775799791e-03 0.0000000000000000e+00  2.1675327380809683e-04 4.4092416503055650e-03 0.0000000000000000e+00  2.1693472871473407e-04 4.4382346753875056e-03 0.0000000000000000e+00  2.1711708763358245e-04 4.4671642780166254e-03 0.0000000000000000e+00  2.1729818340258071e-04 4.4960280408930303e-03 0.0000000000000000e+00  2.1747652284318108e-04 4.5248265514092213e-03 0.0000000000000000e+00  2.1765080000944563e-04 4.5535615413430808e-03 0.0000000000000000e+00  2.1781998708292252e-04 4.5822348442488168e-03 0.0000000000000000e+00  2.1798339978096277e-04 4.6108483329529472e-03 0.0000000000000000e+00  2.1814058378226910e-04 4.6394041216756606e-03 0.0000000000000000e+00  2.1829113617930388e-04 4.6679046100437617e-03 0.0000000000000000e+00  2.1843455984465356e-04 4.6963523898346802e-03 0.0000000000000000e+00  2.1857017543149929e-04 4.7247501153151600e-03 0.0000000000000000e+00  2.1869708730389806e-04 4.7531003825056380e-03 0.0000000000000000e+00  2.1881420599060818e-04 4.7814056175885843e-03 0.0000000000000000e+00  2.1892033093222837e-04 4.8096679898132610e-03 0.0000000000000000e+00  2.1901428680003610e-04 4.8378893805043057e-03 0.0000000000000000e+00  2.1909509757702276e-04 4.8660714316287818e-03 0.0000000000000000e+00  2.1916217817696899e-04 4.8942156846312141e-03 0.0000000000000000e+00  2.1921552078161456e-04 4.9223238111257457e-03 0.0000000000000000e+00  2.1925585068724272e-04 4.9503979300015216e-03 0.0000000000000000e+00  2.1928472597994501e-04 4.9784409966228994e-03 0.0000000000000000e+00  2.1930455790690701e-04 5.0064572436103851e-03 0.0000000000000000e+00  2.1931853415441685e-04 5.0344526555297885e-03 0.0000000000000000e+00  2.1933043643045878e-04 5.0624354756191340e-03 0.0000000000000000e+00  2.1934436202088040e-04 5.0904167721256373e-03 0.0000000000000000e+00  2.1936439785910181e-04 5.1184111262460984e-03 0.0000000000000000e+00  1.8756192593232432e-04 4.3221072744821249e-03 0.0000000000000000e+00  1.8768831908639081e-04 4.3512172791420984e-03 0.0000000000000000e+00  1.8784424178972987e-04 4.3802855653618323e-03 0.0000000000000000e+00  1.8801791282627343e-04 4.4093125448227584e-03 0.0000000000000000e+00  1.8820106927730439e-04 4.4382878028063387e-03 0.0000000000000000e+00  1.8838994243042698e-04 4.4672019577227523e-03 0.0000000000000000e+00  1.8858283397296498e-04 4.4960514661173626e-03 0.0000000000000000e+00  1.8877792818688458e-04 4.5248376262730901e-03 0.0000000000000000e+00  1.8897312107243021e-04 4.5535625762929766e-03 0.0000000000000000e+00  1.8916662229680347e-04 4.5822278712129424e-03 0.0000000000000000e+00  1.8935719092343407e-04 4.6108349197153120e-03 0.0000000000000000e+00  1.8954393953699505e-04 4.6393855658709649e-03 0.0000000000000000e+00  1.8972604617159433e-04 4.6678821645243134e-03 0.0000000000000000e+00  1.8990254814428917e-04 4.6963274001953371e-03 0.0000000000000000e+00  1.9007222536665048e-04 4.7247240801936144e-03 0.0000000000000000e+00  1.9023354867691826e-04 4.7530749566398797e-03 0.0000000000000000e+00  1.9038470059856320e-04 4.7813825442103285e-03 0.0000000000000000e+00  1.9052368097284943e-04 4.8096489539729169e-03 0.0000000000000000e+00  1.9064848868001016e-04 4.8378757985405203e-03 0.0000000000000000e+00  1.9075735671786632e-04 4.8660642025725263e-03 0.0000000000000000e+00  1.9084901365385259e-04 4.8942149321625668e-03 0.0000000000000000e+00  1.9092294182254207e-04 4.9223286474541312e-03 0.0000000000000000e+00  1.9097959894389213e-04 4.9504062768883630e-03 0.0000000000000000e+00  1.9102056991894168e-04 4.9784494980114353e-03 0.0000000000000000e+00  1.9104862148994252e-04 5.0064612976787673e-03 0.0000000000000000e+00  1.9106764259876633e-04 5.0344465823506518e-03 0.0000000000000000e+00  1.9108246691870197e-04 5.0624128175937762e-03 0.0000000000000000e+00  1.9109859381558105e-04 5.0903706892670951e-03 0.0000000000000000e+00  1.9112185489975994e-04 5.1183347831040031e-03 0.0000000000000000e+00  1.5895439003107425e-04 4.3513637268602044e-03 0.0000000000000000e+00  1.5911484383776981e-04 4.3803948302608862e-03 0.0000000000000000e+00  1.5929467389875449e-04 4.4093994845272998e-03 0.0000000000000000e+00  1.5948510877776914e-04 4.4383578509755439e-03 0.0000000000000000e+00  1.5968393593941314e-04 4.4672547521331174e-03 0.0000000000000000e+00  1.5989095469975473e-04 4.4960864043937432e-03 0.0000000000000000e+00  1.6010431291874834e-04 4.5248566953444390e-03 0.0000000000000000e+00  1.6032112869943484e-04 4.5535687480070218e-03 0.0000000000000000e+00  1.6053903048753791e-04 4.5822235605174613e-03 0.0000000000000000e+00  1.6075654668659927e-04 4.6108217732547460e-03 0.0000000000000000e+00  1.6097266891328642e-04 4.6393649162884774e-03 0.0000000000000000e+00  1.6118638479456688e-04 4.6678553987098258e-03 0.0000000000000000e+00  1.6139641602267048e-04 4.6962961310400651e-03 0.0000000000000000e+00  1.6160108635825311e-04 4.7246902133417671e-03 0.0000000000000000e+00  1.6179825003716567e-04 4.7530407024578584e-03 0.0000000000000000e+00  1.6198530790510331e-04 4.7813503348474720e-03 0.0000000000000000e+00  1.6215934410264443e-04 4.8096212440951625e-03 0.0000000000000000e+00  1.6231736921161827e-04 4.8378547766386179e-03 0.0000000000000000e+00  1.6245663588725093e-04 4.8660514505928240e-03 0.0000000000000000e+00  1.6257499209187465e-04 4.8942110700056765e-03 0.0000000000000000e+00  1.6267123477429996e-04 4.9223330016899790e-03 0.0000000000000000e+00  1.6274541972832285e-04 4.9504166198287682e-03 0.0000000000000000e+00  1.6279908363745244e-04 4.9784619003373594e-03 0.0000000000000000e+00  1.6283534480869070e-04 5.0064701249163462e-03 0.0000000000000000e+00  1.6285886439969423e-04 5.0344446476902130e-03 0.0000000000000000e+