<?xml version="1.0"?>
<VTKFile type="UnstructuredGrid"  version="0.1"  >
<UnstructuredGrid>
<Piece  NumberOfPoints="621" NumberOfCells="1125">
<Points>
<DataArray  type="Float64"  NumberOfComponents="3"  format="ascii">1.883478260869565 0 0  1.9 0 0  1.9 0.01666666666666667 0  1.883478260869565 0.01666666666666667 0  1.916521739130435 0 0  1.916521739130435 0.01666666666666667 0  1.933043478260869 0 0  1.933043478260869 0.01666666666666667 0  1.949565217391304 0 0  1.949565217391304 0.01666666666666667 0  1.966086956521739 0 0  1.966086956521739 0.01666666666666667 0  1.982608695652174 0 0  1.982608695652174 0.01666666666666667 0  1.999130434782608 0 0  1.999130434782608 0.01666666666666667 0  2.015652173913043 0 0  2.015652173913043 0.01666666666666667 0  2.032173913043478 0 0  2.032173913043478 0.01666666666666667 0  2.048695652173913 0 0  2.048695652173913 0.01666666666666667 0  2.065217391304348 0 0  2.065217391304348 0.01666666666666667 0  2.081739130434782 0 0  2.081739130434782 0.01666666666666667 0  2.098260869565217 0 0  2.098260869565217 0.01666666666666667 0  2.114782608695652 0 0  2.114782608695652 0.01666666666666667 0  2.131304347826087 0 0  2.131304347826087 0.01666666666666667 0  2.147826086956522 0 0  2.147826086956522 0.01666666666666667 0  2.164347826086956 0 0  2.164347826086956 0.01666666666666667 0  2.180869565217391 0 0  2.180869565217391 0.01666666666666667 0  2.197391304347826 0 0  2.197391304347826 0.01666666666666667 0  2.213913043478261 0 0  2.213913043478261 0.01666666666666667 0  2.230434782608695 0 0  2.230434782608695 0.01666666666666667 0  2.24695652173913 0 0  2.24695652173913 0.01666666666666667 0  2.263478260869565 0 0  2.263478260869565 0.01666666666666667 0  2.28 0 0  2.28 0.01666666666666667 0  2.296521739130434 0 0  2.296521739130434 0.01666666666666667 0  2.31304347826087 0 0  2.31304347826087 0.01666666666666667 0  2.329565217391304 0 0  2.329565217391304 0.01666666666666667 0  2.346086956521739 0 0  2.346086956521739 0.01666666666666667 0  2.362608695652174 0 0  2.362608695652174 0.01666666666666667 0  2.379130434782609 0 0  2.379130434782609 0.01666666666666667 0  2.395652173913044 0 0  2.395652173913044 0.01666666666666667 0  2.412173913043478 0 0  2.412173913043478 0.01666666666666667 0  2.428695652173913 0 0  2.428695652173913 0.01666666666666667 0  2.445217391304348 0 0  2.445217391304348 0.01666666666666667 0  2.461739130434782 0 0  2.461739130434782 0.01666666666666667 0  2.478260869565217 0 0  2.478260869565217 0.01666666666666667 0  2.494782608695652 0 0  2.494782608695652 0.01666666666666667 0  2.511304347826087 0 0  2.511304347826087 0.01666666666666667 0  2.527826086956522 0 0  2.527826086956522 0.01666666666666667 0  2.544347826086956 0 0  2.544347826086956 0.01666666666666667 0  2.560869565217391 0 0  2.560869565217391 0.01666666666666667 0  2.577391304347826 0 0  2.577391304347826 0.01666666666666667 0  1.916521739130435 0.03333333333333333 0  1.933043478260869 0.03333333333333333 0  1.949565217391304 0.03333333333333333 0  1.966086956521739 0.03333333333333333 0  1.982608695652174 0.03333333333333333 0  1.999130434782608 0.03333333333333333 0  2.015652173913043 0.03333333333333333 0  2.032173913043478 0.03333333333333333 0  2.048695652173913 0.03333333333333333 0  2.065217391304348 0.03333333333333333 0  2.081739130434782 0.03333333333333333 0  2.098260869565217 0.03333333333333333 0  2.114782608695652 0.03333333333333333 0  2.131304347826087 0.03333333333333333 0  2.147826086956522 0.03333333333333333 0  2.164347826086956 0.03333333333333333 0  2.180869565217391 0.03333333333333333 0  2.197391304347826 0.03333333333333333 0  2.213913043478261 0.03333333333333333 0  2.230434782608695 0.03333333333333333 0  2.24695652173913 0.03333333333333333 0  2.263478260869565 0.03333333333333333 0  2.28 0.03333333333333333 0  2.296521739130434 0.03333333333333333 0  2.31304347826087 0.03333333333333333 0  2.329565217391304 0.03333333333333333 0  2.346086956521739 0.03333333333333333 0  2.362608695652174 0.03333333333333333 0  2.379130434782609 0.03333333333333333 0  2.395652173913044 0.03333333333333333 0  2.412173913043478 0.03333333333333333 0  2.428695652173913 0.03333333333333333 0  2.445217391304348 0.03333333333333333 0  2.461739130434782 0.03333333333333333 0  2.478260869565217 0.03333333333333333 0  2.494782608695652 0.03333333333333333 0  2.511304347826087 0.03333333333333333 0  2.527826086956522 0.03333333333333333 0  2.544347826086956 0.03333333333333333 0  2.560869565217391 0.03333333333333333 0  2.577391304347826 0.03333333333333333 0  2.593913043478261 0.03333333333333333 0  1.933043478260869 0.05 0  1.949565217391304 0.05 0  1.966086956521739 0.05 0  1.982608695652174 0.05 0  1.999130434782608 0.05 0  2.015652173913043 0.05 0  2.032173913043478 0.05 0  2.048695652173913 0.05 0  2.065217391304348 0.05 0  2.081739130434782 0.05 0  2.098260869565217 0.05 0  2.114782608695652 0.05 0  2.131304347826087 0.05 0  2.147826086956522 0.05 0  2.164347826086956 0.05 0  2.180869565217391 0.05 0  2.197391304347826 0.05 0  2.213913043478261 0.05 0  2.230434782608695 0.05 0  2.24695652173913 0.05 0  2.263478260869565 0.05 0  2.28 0.05 0  2.296521739130434 0.05 0  2.31304347826087 0.05 0  2.329565217391304 0.05 0  2.346086956521739 0.05 0  2.362608695652174 0.05 0  2.379130434782609 0.05 0  2.395652173913044 0.05 0  2.412173913043478 0.05 0  2.428695652173913 0.05 0  2.445217391304348 0.05 0  2.461739130434782 0.05 0  2.478260869565217 0.05 0  2.494782608695652 0.05 0  2.511304347826087 0.05 0  2.527826086956522 0.05 0  2.544347826086956 0.05 0  2.560869565217391 0.05 0  2.577391304347826 0.05 0  2.593913043478261 0.05 0  2.610434782608696 0.05 0  1.949565217391304 0.06666666666666667 0  1.966086956521739 0.06666666666666667 0  1.982608695652174 0.06666666666666667 0  1.999130434782608 0.06666666666666667 0  2.015652173913043 0.06666666666666667 0  2.032173913043478 0.06666666666666667 0  2.048695652173913 0.06666666666666667 0  2.065217391304348 0.06666666666666667 0  2.081739130434782 0.06666666666666667 0  2.098260869565217 0.06666666666666667 0  2.114782608695652 0.06666666666666667 0  2.131304347826087 0.06666666666666667 0  2.147826086956522 0.06666666666666667 0  2.164347826086956 0.06666666666666667 0  2.180869565217391 0.06666666666666667 0  2.197391304347826 0.06666666666666667 0  2.213913043478261 0.06666666666666667 0  2.230434782608695 0.06666666666666667 0  2.24695652173913 0.06666666666666667 0  2.263478260869565 0.06666666666666667 0  2.28 0.06666666666666667 0  2.296521739130434 0.06666666666666667 0  2.31304347826087 0.06666666666666667 0  2.329565217391304 0.06666666666666667 0  2.346086956521739 0.06666666666666667 0  2.362608695652174 0.06666666666666667 0  2.379130434782609 0.06666666666666667 0  2.395652173913044 0.06666666666666667 0  2.412173913043478 0.06666666666666667 0  2.428695652173913 0.06666666666666667 0  2.445217391304348 0.06666666666666667 0  2.461739130434782 0.06666666666666667 0  2.478260869565217 0.06666666666666667 0  2.494782608695652 0.06666666666666667 0  2.511304347826087 0.06666666666666667 0  2.527826086956522 0.06666666666666667 0  2.544347826086956 0.06666666666666667 0  2.560869565217391 0.06666666666666667 0  2.577391304347826 0.06666666666666667 0  2.593913043478261 0.06666666666666667 0  2.610434782608696 0.06666666666666667 0  2.62695652173913 0.06666666666666667 0  1.966086956521739 0.08333333333333333 0  1.982608695652174 0.08333333333333333 0  1.999130434782608 0.08333333333333333 0  2.015652173913043 0.08333333333333333 0  2.032173913043478 0.08333333333333333 0  2.048695652173913 0.08333333333333333 0  2.065217391304348 0.08333333333333333 0  2.081739130434782 0.08333333333333333 0  2.098260869565217 0.08333333333333333 0  2.114782608695652 0.08333333333333333 0  2.131304347826087 0.08333333333333333 0  2.147826086956522 0.08333333333333333 0  2.164347826086956 0.08333333333333333 0  2.180869565217391 0.08333333333333333 0  2.197391304347826 0.08333333333333333 0  2.213913043478261 0.08333333333333333 0  2.230434782608695 0.08333333333333333 0  2.24695652173913 0.08333333333333333 0  2.263478260869565 0.08333333333333333 0  2.28 0.08333333333333333 0  2.296521739130434 0.08333333333333333 0  2.31304347826087 0.08333333333333333 0  2.329565217391304 0.08333333333333333 0  2.346086956521739 0.08333333333333333 0  2.362608695652174 0.08333333333333333 0  2.379130434782609 0.08333333333333333 0  2.395652173913044 0.08333333333333333 0  2.412173913043478 0.08333333333333333 0  2.428695652173913 0.08333333333333333 0  2.445217391304348 0.08333333333333333 0  2.461739130434782 0.08333333333333333 0  2.478260869565217 0.08333333333333333 0  2.494782608695652 0.08333333333333333 0  2.511304347826087 0.08333333333333333 0  2.527826086956522 0.08333333333333333 0  2.544347826086956 0.08333333333333333 0  2.560869565217391 0.08333333333333333 0  2.577391304347826 0.08333333333333333 0  2.593913043478261 0.08333333333333333 0  2.610434782608696 0.08333333333333333 0  2.62695652173913 0.08333333333333333 0  2.643478260869565 0.08333333333333333 0  1.982608695652174 0.1 0  1.999130434782608 0.1 0  2.015652173913043 0.1 0  2.032173913043478 0.1 0  2.048695652173913 0.1 0  2.065217391304348 0.1 0  2.081739130434782 0.1 0  2.098260869565217 0.1 0  2.114782608695652 0.1 0  2.131304347826087 0.1 0  2.147826086956522 0.1 0  2.164347826086956 0.1 0  2.180869565217391 0.1 0  2.197391304347826 0.1 0  2.213913043478261 0.1 0  2.230434782608695 0.1 0  2.24695652173913 0.1 0  2.263478260869565 0.1 0  2.28 0.1 0  2.296521739130434 0.1 0  2.31304347826087 0.1 0  2.329565217391304 0.1 0  2.346086956521739 0.1 0  2.362608695652174 0.1 0  2.379130434782609 0.1 0  2.395652173913044 0.1 0  2.412173913043478 0.1 0  2.428695652173913 0.1 0  2.445217391304348 0.1 0  2.461739130434782 0.1 0  2.478260869565217 0.1 0  2.494782608695652 0.1 0  2.511304347826087 0.1 0  2.527826086956522 0.1 0  2.544347826086956 0.1 0  2.560869565217391 0.1 0  2.5773
[...]
<CellData  Scalars="sigma_m"> 
<DataArray  type="Float64"  Name="sigma_m"  format="ascii">4.1310542394700591e+06   5.5022745942915175e+06   4.1546839972348972e+06   5.4875145722438376e+06   4.1468877230966412e+06   5.5165638410892924e+06   4.1072585224205819e+06   5.5935710905424245e+06   4.0626992006629361e+06   5.6675862953886027e+06   4.0279973720286572e+06   5.7153255873786509e+06   4.0227086281469115e+06   5.7132875183005566e+06   4.0478989526164178e+06   5.6403035773021271e+06   4.1585498963539391e+06   5.4547343646465335e+06   4.3709257684882348e+06   5.1172921159986500e+06   4.5862808600621819e+06   4.7795202450704202e+06   4.7322773652922437e+06   4.5899330189516898e+06   4.8118633192197839e+06   4.5043947331652893e+06   4.8524458941129493e+06   4.4678861642803894e+06   4.8746143814642243e+06   4.4524157392768702e+06   4.8889173916998329e+06   4.4459316755904201e+06   4.8997001640903987e+06   4.4443744456651090e+06   4.9083907973397104e+06   4.4477468635295788e+06   4.9151953917973852e+06   4.4599308791996678e+06   4.9185821978658540e+06   4.4938238734681997e+06   4.9017807022971055e+06   4.5870499016404040e+06   4.7930697190883700e+06   4.8043746785669252e+06   4.5908493394137444e+06   5.0860296817160072e+06   4.4244008177268477e+06   5.2775961753891958e+06   4.4141749455476394e+06   5.2603869741812106e+06   4.5727729026726512e+06   5.0146200187385567e+06   4.7678617167103449e+06   4.7472396918713236e+06   4.8672073825210407e+06   4.7175198809389314e+06   4.7295167352773752e+06   4.9775220691652289e+06   4.4963721971487207e+06   5.2723128843751997e+06   4.3399729742612317e+06   5.3905418486458939e+06   4.5134651257105684e+06   5.1118478532584338e+06   4.8471417820048584e+06   4.5435439102237532e+06   5.1512343483948149e+06   4.1809846836552266e+06   5.3353286524752872e+06   3.9884319087236421e+06   5.2862244478550125e+06   3.8560717572846422e+06   5.0232565352095868e+06   3.6007560507204332e+06   4.8142810885587921e+06   3.2561160110706631e+06   4.9391943577608466e+06   3.0421348249240527e+06   5.2745550027233725e+06   3.0807583864794630e+06   5.4010659110173304e+06   3.1415048898161105e+06   5.3673593289438179e+06   3.2488116856020144e+06   5.5335869414501134e+06   5.5696341798889749e+06   6.1790124025006443e+06   5.6471127332419427e+06   6.5626931593450103e+06   5.7213802823044071e+06   6.7834268046639329e+06   5.7693352113042362e+06   6.9368222897340702e+06   5.7667565678578475e+06   7.0339366723690815e+06   5.6966809337867210e+06   6.9118045799690178e+06   5.5016482521757139e+06   6.7796079340155935e+06   5.1288709360712832e+06   5.7786544218572732e+06   4.7707765786027266e+06   4.4715637130458849e+06   4.5756933624615688e+06   4.1092823986970037e+06   4.4837886997196078e+06   4.0231713077128162e+06   4.4428929107049815e+06   3.9882657679589526e+06   4.4249343043633578e+06   3.9684008080965048e+06   4.4170636717097573e+06   3.9526681526235701e+06   4.4147602612089422e+06   3.9395512228519134e+06   4.4178933313520681e+06   3.9307425868769335e+06   4.4307004081941778e+06   3.9270597117430670e+06   4.4678079673483148e+06   3.9313268624825072e+06   4.5739868986884803e+06   3.9641174075585813e+06   4.8267768584291032e+06   4.1882789379066555e+06   5.1280117107974151e+06   5.2153004373776354e+06   5.3222150781786870e+06   6.3908461472107638e+06   5.2969505606421772e+06   6.5027387340389071e+06   5.0122595074286992e+06   5.5623762863878300e+06   4.7302525221378002e+06   4.1311090799076403e+06   4.7198193912810627e+06   3.8244444957212615e+06   5.0315531391045880e+06   4.1304904792780839e+06   5.3182535717744967e+06   6.0740186341346558e+06   5.4426450071925474e+06   6.8839661677122237e+06   5.1270085631597862e+06   6.7777401257211640e+06   4.5031707443599291e+06   3.5733730872310139e+06   4.1194178279007524e+06   3.1591478770777159e+06   3.9270465622464865e+06   2.3879211379396636e+06   3.7074619595918562e+06   2.5042092062542611e+06   3.3654598082997762e+06   2.3908405003959481e+06   3.0606661394273294e+06   1.8099603190952144e+06   2.9859594448787966e+06   1.1226094229131350e+06   3.1315217608860764e+06   7.6899932755392324e+05   2.9899537203849242e+06   1.3002037314010074e+06   3.0927050352716655e+06   1.1368957060703496e+06   1.6326896336877607e+06   6.5326126227822257e-01   2.0334131827169957e-01   7.4288451339057182e-09   3.7544243016861850e-02   1.2722910519828155e-09   9.6144456517407492e-03   0.0000000000000000e+00   6.6367874146174063e-03   0.0000000000000000e+00   1.6065044171926102e-02   0.0000000000000000e+00   1.1926306206383477e-01   0.0000000000000000e+00   1.0495219929613939e+00   2.5259253212002221e-09   5.0542169073202619e+00   1.4912823409517007e-08   1.2917288421187500e+01   4.5520122670672481e-08   2.1193605021150042e+01   8.1420546612129210e-08   2.6706834341087898e+01   1.0741092022403950e-07   2.9656866993016457e+01   1.1874731341314446e-07   3.1729095283189029e+01   1.2519820047477877e-07   3.3070166524418646e+01   1.3167143642650476e-07   3.2614956417678826e+01   1.3347062072629538e-07   2.9516437575567330e+01   1.2677968803724177e-07   2.3237780650356978e+01   1.0932207652032996e-07   1.4294392171237661e+01   8.0094865732849720e-08   5.7686606986538393e+00   4.2687808874239774e-08   1.3872585105068942e+00   1.3798168032378309e-08   3.1507534683524285e-01   3.1588851868309142e-09   2.6404530879037696e-01   1.3550750024574201e-09   1.4440025397788583e+00   3.4546064796965657e-09   1.1779396861942921e+01   4.3297968286188628e-08   3.0238223156568090e+01   3.2057984085244600e-07   1.3584124676078616e+01   4.8047791784106236e-07   1.5817925455834791e+00   1.5246518734592071e-07   2.4270869487010882e-01   5.0922239180107446e-08   3.8972726245479445e+00   2.1249898726321796e-07   1.2074870014783836e+06   8.9486693486444488e-04   2.7009302154867081e+06   1.1574499192403373e+05   2.2016171059845150e+06   8.0283119788655895e+05   2.1776216338662957e+06   1.4533238046606081e+06   1.9127175026783396e+06   2.1922220275018662e+06   1.6007118818290930e+06   1.9356511184325025e+06   1.0339235976955458e+06   1.2746125119676718e+06   1.0994081289395064e+06   1.0877707794178964e+06   9.6475356703117292e+05   2.8931067523819138e+06   2.0675548934490921e+05   8.1331431259482159e+01   2.6684807760931541e-02   3.8007510677996301e-07   0.0000000000000000e+00   0.0000000000000000e+00   0.0000000000000000e+00   0.0000000000000000e+00   0.0000000000000000e+00   0.0000000000000000e+00   0.0000000000000000e+00   0.0000000000000000e+00   0.0000000000000000e+00   0.0000000000000000e+00   0.0000000000000000e+00   0.0000000000000000e+00   0.0000000000000000e+00   0.0000000000000000e+00   0.0000000000000000e+00   0.0000000000000000e+00   0.0000000000000000e+00   0.0000000000000000e+00   0.0000000000000000e+00   0.0000000000000000e+00   0.0000000000000000e+00   0.0000000000000000e+00   0.0000000000000000e+00   0.0000000000000000e+00   0.0000000000000000e+00   0.0000000000000000e+00   0.0000000000000000e+00   0.0000000000000000e+00   0.0000000000000000e+00   0.0000000000000000e+00   0.0000000000000000e+00   0.0000000000000000e+00   0.0000000000000000e+00   0.0000000000000000e+00   0.0000000000000000e+00   0.0000000000000000e+00   0.0000000000000000e+00   0.0000000000000000e+00   0.0000000000000000e+00   0.0000000000000000e+00   0.0000000000000000e+00   0.0000000000000000e+00   0.0000000000000000e+00   0.0000000000000000e+00   0.0000000000000000e+00   0.0000000000000000e+00   0.0000000000000000e+00   0.0000000000000000e+00   0.0000000000000000e+00   0.0000000000000000e+00   0.0000000000000000e+00   0.0000000000000000e+00   0.0000000000000000e+00   0.0000000000000000e+00   0.0000000000000000e+00   0.0000000000000000e+00   0.0000000000000000e+00   0.0000000000000000e+00   0.0000000000000000e+00   0.0000000000000000e+00   8.5472198452630145e-07   0.0000000000000000e+00   2.3334846826859284e+06   1.6838303858719105e-02   1.2962730624443633e+06   2.3238179956056010e+06   1.1844225709695169e+06   2.3549284357274370e+06   1.8803531393735504e+06   2.4250339413050180e+06   1.9486370660687375e+06   2.1478671463687485e+06   1.3987600236993541e+06   1.4026973760367164e+06   8.4151842057254648e-06   1.5556801101856084e-05   0.0000000000000000e+00   0.0000000000000000e+00   0.0000000000000000e+00   0.0000000000000000e+00   0.0000000000000000e+00   0.0000000000000000e+00   0.0000000000000000e+00   0.0000000000000000e+00   0.0000000000000000e+00   0.0000000000000000e+00   0.0000000000000000e+00   0.0000000000000000e+00   0.0000000000000000e+00   0.0000000000000000e+00   0.0000000000000000e+00   0.0000000000000000e+00   0.0000000000000000e+00   0.0000000000000000e+00   0.0000000000000000e+00   0.0000000000000000e+00   0.0000000000000000e+00   0.0000000000000000e+00   0.0000000000000000e+00   0.0000000000000000e+00   0.0000000000000000e+00   0.0000000000000000e+00   0.0000000000000000e+00   0.0000000000000000e+00   0.0000000000000000e+00   0.0000000000000000e+00   0.0000000000000000e+00   0.0000000000000000e+00   0.0000000000000000e+00   0.0000000000000000e+00   0.0000000000000000e+00   0.0000000000000000e+00   0.0000000000000000e+00   0.0000000000000000e+00   0.0000000000000000e+00   0.0000000000000000e+00   0.0000000000000000e+00   0.0000000000000000e+00   0.0000000000000000e+00   0.0000000000000000e+00   0.0000000000000000e+00   0.0000000000000000e+00   0.0000000000000000e+00   0.0000000000000000e+00   0.0000000000000000e+00   0.0000000000000000e+00   0.0000000000000000e+00   0.0000000000000000e+00   0.0000000000000000e+00   0.0000000000000000e+00   0.0000000000000000e+00   0.0000000000000000e+00   0.0000000000000000e+00   0.0000000000000000e+00   0.0000000000000000e+00   0.0000000000000000e+00   0.0000000000000000e+00   0.0000000000000000e+00   0.0000000000000000e+00   0.0000000000000000e+00   0.0000000000000000e+00   0.0000000000000000e+00   9.5365846258192766e-01   2.4637189833695507e-04   2.1596426893030014e+06   8.6523023313223291e+06   8.2052849172403081e+05   3.1336784607604132e+06   1.7298937541373337e+06   2.2541786519010323e+06   3.2945031005817801e+06   2.5503060384480241e+06   1.9968639119621845e-01   5.8085984322920686e+05   0.0000000000000000e+00   0.0000000000000000e+00   0.0000000000000000e+00   0.0000000000000000e+00   0.0000000000000000e+00   0.0000000000000000e+00   0.0000000000000000e+00   0.0000000000000000e+00   0.0000000000000000e+00   0.0000000000000000e+00   0.0000000000000000e+00   0.0000000000000000e+00   0.0000000000000000e+00   0.0000000000000000e+00   0.0000000000000000e+00   0.0000000000000000e+00   0.0000000000000000e+00   0.0000000000000000e+00   0.0000000000000000e+00   0.0000000000000000e+00   0.0000000000000000e+00   0.0000000000000000e+00   0.0000000000000000e+00   0.0000000000000000e+00   0.0000000000000000e+00   0.0000000000000000e+00   0.0000000000000000e+00   0.0000000000000000e+00   0.0000000000000000e+00   0.0000000000000000e+00   0.0000000000000000e+00   0.0000000000000000e+00   0.0000000000000000e+00   0.0000000000000000e+00   0.0000000000000000e+00   0.0000000000000000e+00   0.0000000000000000e+00   0.0000000000000000e+00   0.0000000000000000e+00   0.0000000000000000e+00   0.0000000000000000e+00   0.0000000000000000e+00   0.0000000000000000e+00   0.0000000000000000e+00   0.0000000000000000e+00   0.0000000000000000e+00   0.0000000000000000e+00   0.0000000000000000e+00   0.0000000000000000e+00   0.0000000000000000e+00   0.0000000000000000e+00   0.0000000000000000e+00   0.0000000000000000e+00   0.0000000000000000e+00   0.0000000000000000e+00   0.0000000000000000e+00   0.0000000000000000e+00   0.0000000000000000e+00   0.0000000000000000e+00   0.0000000000000000e+00   0.0000000000000000e+00   0.0000000000000000e+00   0.0000000000000000e+00   0.0000000000000000e+00   0.0000000000000000e+00   0.0000000000000000e+00   0.0000000000000000e+00   0.0000000000000000e+00   1.0884658253612749e+06   2.4231746299797692e+06   2.6883068417759198e+06   2.7697577401962401e+06   3.7806279047372233e+05   2.0295367376917319e+06   9.3348324103395734e+05   9.2419569235115487e+05   2.5696109997906517e+06   1.7589140592982566e+06   5.4564697816885100e+05   3.9194334957234520e+06   0.0000000000000000e+00   1.2603875525865923e-03   0.0000000000000000e+00   0.0000000000000000e+00   0.0000000000000000e+00   0.0000000000000000e+00   0.0000000000000000e+00   0.0000000000000000e+00   0.0000000000000000e+00   0.0000000000000000e+00   0.0000000000000000e+00   0.0000000000000000e+00   0.0000000000000000e+00   0.0000000000000000e+00   0.0000000000000000e+00   0.0000000000000000e+00   0.0000000000000000e+00   0.0000000000000000e+00   0.0000000000000000e+00   0.0000000000000000e+00   0.0000000000000000e+00   0.0000000000000000e+00   0.0000000000000000e+00   0.0000000000000000e+00   0.0000000000000000e+00   0.0000000000000000e+00   0.0000000000000000e+00   0.0000000000000000e+00   0.0000000000000000e+00   0.0000000000000000e+00   0.0000000000000000e+00   0.0000000000000000e+00   0.0000000000000000e+00   0.0000000000000000e+00   0.0000000000000000e+00   0.0000000000000000e+00   0.0000000000000000e+00   0.0000000000000000e+00   0.0000000000000000e+00   0.0000000000000000e+00   0.0000000000000000e+00   0.0000000000000000e+00   0.0000000000000000e+00   0.0000000000000000e+00   0.0000000000000000e+00   0.0000000000000000e+00   0.0000000000000000e+00   0.0000000000000000e+00   0.0000000000000000e+00   0.0000000000000000e+00   0.0000000000000000e+00   0.0000000000000000e+00   0.0000000000000000e+00   0.0000000000000000e+00   0.0000000000000000e+00   0.0000000000000000e+00   0.0000000000000000e+00   0.0000000000000000e+00   0.0000000000000000e+00   0.0000000000000000e+00   0.0000000000000000e+00   0.0000000000000000e+00   0.0000000000000000e+00   0.0000000000000000e+00   0.0000000000000000e+00   0.0000000000000000e+00   1.5198630523709789e+03   5.5887132608999536e+03   4.1450149178664270e+06   3.5830269999971767e+06   1.6064038898921160e+06   2.8164421957314131e+06   3.8312711378390598e+05   1.3161187715049530e+06   6.4798459967596654e+05   3.1728001501965825e+05   1.4380966650351225e+06   9.0256845642483921e+05   2.7580365666980562e+06   2.5232773049883507e+06   3.3170993095277046e-01   3.5084739756079908e+06   0.0000000000000000e+00   4.9669840595085344e-07   0.0000000000000000e+00   0.0000000000000000e+00   0.0000000000000000e+00   0.0000000000000000e+00   0.0000000000000000e+00   0.0000000000000000e+00   0.0000000000000000e+00   0.0000000000000000e+00   0.0000000000000000e+00   0.0000000000000000e+00   0.0000000000000000e+00   0.0000000000000000e+00   0.0000000000000000e+00   0.0000000000000000e+00   0.0000000000000000e+00   0.0000000000000000e+00   0.0000000000000000e+00   0.0000000000000000e+00   0.0000000000000000e+00   0.0000000000000000e+00   0.0000000000000000e+00   0.0000000000000000e+00   0.0000000000000000e+00   0.0000000000000000e+00   0.0000000000000000e+00   0.0000000000000000e+00   0.0000000000000000e+00   0.0000000000000000e+00   0.0000000000000000e+00   0.0000000000000000e+00   0.0000000000000000e+00   0.0000000000000000e+00   0.0000000000000000e+00   0.0000000000000000e+00   0.0000000000000000e+00   0.0000000000000000e+00   0.0000000000000000e+00   0.0000000000000000e+00   0.0000000000000000e+00   0.0000000000000000e+00   0.0000000000000000e+00   0.0000000000000000e+00   0.0000000000000000e+00   0.0000000000000000e+00   0.0000000000000000e+00   0.0000000000000000e+00   0.0000000000000000e+00   0.0000000000000000e+00   0.0000000000000000e+00   0.0000000000000000e+00   3.3454058525308338e+05   2.6179369944343655e+05   3.2804852859261977e+06   3.1954373605683534e+06   2.5349093820915045e+06   2.3756537844457245e+06   7.6071286477565533e+05   1.3109574723391286e+06   6.9358252248890232e+05   6.9617010779231496e+05   9.4216514649304596e+05   6.9422111219777411e+05   9.1174810252541269e+05   2.8338285152715031e+05   1.3933758259353344e+06   1.3350889928557232e+06   2.4781331646341770e+06   2.5409512526944061e+06   4.3986871317492049e-01   2.8601066312260423e+06   0.0000000000000000e+00   3.4614686299888370e-05   0.0000000000000000e+00   0.0000000000000000e+00   0.0000000000000000e+00   0.0000000000000000e+00   0.0000000000000000e+00   0.0000000000000000e+00   0.0000000000000000e+00   0.0000000000000000e+00   0.0000000000000000e+00   0.0000000000000000e+00   0.0000000000000000e+00   0.0000000000000000e+00   0.0000000000000000e+00   0.0000000000000000e+00   0.0000000000000000e+00   0.0000000000000000e+00   0.0000000000000000e+00   0.0000000000000000e+00   0.0000000000000000e+00   0.0000000000000000e+00   0.0000000000000000e+00   0.0000000000000000e+00   0.0000000000000000e+00   0.0000000000000000e+00   0.0000000000000000e+00   0.0000000000000000e+00   0.0000000000000000e+00   0.0000000000000000e+00   0.0000000000000000e+00   0.0000000000000000e+00   0.0000000000000000e+00   0.0000000000000000e+00   0.0000000000000000e+00   0.0000000000000000e+00   0.0000000000000000e+00   0.0000000000000000e+00   0.0000000000000000e+00   0.0000000000000000e+00   0.0000000000000000e+00   0.0000000000000000e+00   0.0000000000000000e+00   0.0000000000000000e+00   0.0000000000000000e+00   0.0000000000000000e+00   0.0000000000000000e+00   0.0000000000000000e+00   1.5318212319946836e+06   1.2400464675372385e+06   2.6296833634299808e+06   2.1629526725722142e+06   2.3974550232937424e+06   1.8935355318022186e+06   1.4053807488782022e+06   1.1791902988116234e+06   2.0634643015739208e+05   7.0555897240942193e+05   8.1319328176799614e+05   1.1396057142313353e+06   1.1765176324989467e+06   1.1183456612577487e+06   8.8477514305648359e+05   4.3721948154322471e+05   7.1191605666443147e+05   6.1820405091935606e+05   1.3607743302067094e+06   1.5180360045959202e+06   1.9979984370986219e+06   2.0381370114793091e+06   2.2899292697961901e+03   1.7833189855904612e+06   0.0000000000000000e+00   1.2710256871679981e-01   0.0000000000000000e+00   0.0000000000000000e+00   0.0000000000000000e+00   0.0000000000000000e+00   0.0000000000000000e+00   0.0000000000000000e+00   0.0000000000000000e+00   0.0000000000000000e+00   0.0000000000000000e+00   0.0000000000000000e+00   0.0000000000000000e+00   0.0000000000000000e+00   0.0000000000000000e+00   0.0000000000000000e+00   0.0000000000000000e+00   0.0000000000000000e+00   0.0000000000000000e+00   0.0000000000000000e+00   0.0000000000000000e+00   0.0000000000000000e+00   0.0000000000000000e+00   0.0000000000000000e+00   0.0000000000000000e+00   0.0000000000000000e+00   0.0000000000000000e+00   0.0000000000000000e+00   0.0000000000000000e+00   0.0000000000000000e+00   0.0000000000000000e+00   0.0000000000000000e+00   0.0000000000000000e+00   0.0000000000000000e+00   0.0000000000000000e+00   0.0000000000000000e+00   0.0000000000000000e+00   0.0000000000000000e+00   0.0000000000000000e+00   0.0000000000000000e+00   0.0000000000000000e+00   0.0000000000000000e+00   0.0000000000000000e+00   0.0000000000000000e+00   0.0000000000000000e+00   0.0000000000000000e+00   9.1134774614845810e+05   8.5995059926639183e+05   1.4732087627801411e+06   1.2426226332075717e+06   1.7809643738403921e+06   1.3048836957756483e+06   1.3082256782724038e+06   1.1701335503773137e+06   4.4682490596877772e+05   9.2587456561016163e+05   8.2822876231592591e+05   1.1232870268341363e+06   1.0697096810103310e+06   2.4912843795195981e+06   1.0776646220060757e+06   1.0120422964558294e+06   1.1993627140679287e+06   1.3565546878594866e+06   5.8692747228034423e+05   7.5863257694364071e+05   7.6909953090228897e+05   9.8657350293418567e+05   1.2205170317039485e+06   1.4147169055191565e+06   1.3343596114704539e+06   1.4471758076713923e+06   2.0080159354262069e+05   1.2571136203626106e+06   0.0000000000000000e+00   1.0384389680876092e+00   0.0000000000000000e+00   0.0000000000000000e+00   0.0000000000000000e+00   0.0000000000000000e+00   0.0000000000000000e+00   0.0000000000000000e+00   0.0000000000000000e+00   0.0000000000000000e+00   0.0000000000000000e+00   0.0000000000000000e+00   0.0000000000000000e+00   0.0000000000000000e+00   0.0000000000000000e+00   0.00000000