<?xml version="1.0"?>
<VTKFile type="UnstructuredGrid"  version="0.1"  >
<UnstructuredGrid>
<Piece  NumberOfPoints="611" NumberOfCells="1123">
<Points>
<DataArray  type="Float64"  NumberOfComponents="3"  format="ascii">1.883478260869565 0.01666666666666667 0  1.9 0.01666666666666667 0  1.9 0.03333333333333333 0  1.883478260869565 0.03333333333333333 0  1.916521739130435 0.03333333333333333 0  1.9 0.05 0  1.883478260869565 0.05 0  1.916521739130435 0.05 0  1.933043478260869 0.05 0  1.9 0.06666666666666667 0  1.883478260869565 0.06666666666666667 0  1.916521739130435 0.06666666666666667 0  1.933043478260869 0.06666666666666667 0  1.949565217391304 0.06666666666666667 0  1.9 0.08333333333333333 0  1.883478260869565 0.08333333333333333 0  1.916521739130435 0.08333333333333333 0  1.933043478260869 0.08333333333333333 0  1.949565217391304 0.08333333333333333 0  1.966086956521739 0.08333333333333333 0  1.9 0.1 0  1.883478260869565 0.1 0  1.916521739130435 0.1 0  1.933043478260869 0.1 0  1.949565217391304 0.1 0  1.966086956521739 0.1 0  1.982608695652174 0.1 0  1.9 0.1166666666666667 0  1.883478260869565 0.1166666666666667 0  1.916521739130435 0.1166666666666667 0  1.933043478260869 0.1166666666666667 0  1.949565217391304 0.1166666666666667 0  1.966086956521739 0.1166666666666667 0  1.982608695652174 0.1166666666666667 0  1.999130434782608 0.1166666666666667 0  1.9 0.1333333333333333 0  1.883478260869565 0.1333333333333333 0  1.916521739130435 0.1333333333333333 0  1.933043478260869 0.1333333333333333 0  1.949565217391304 0.1333333333333333 0  1.966086956521739 0.1333333333333333 0  1.982608695652174 0.1333333333333333 0  1.999130434782608 0.1333333333333333 0  2.015652173913043 0.1166666666666667 0  2.015652173913043 0.1333333333333333 0  2.032173913043478 0.1166666666666667 0  2.032173913043478 0.1333333333333333 0  2.048695652173913 0.1166666666666667 0  2.048695652173913 0.1333333333333333 0  2.065217391304348 0.1166666666666667 0  2.065217391304348 0.1333333333333333 0  2.081739130434782 0.1166666666666667 0  2.081739130434782 0.1333333333333333 0  2.098260869565217 0.1333333333333333 0  1.9 0.15 0  1.883478260869565 0.15 0  1.916521739130435 0.15 0  1.933043478260869 0.15 0  1.949565217391304 0.15 0  1.966086956521739 0.15 0  1.982608695652174 0.15 0  1.999130434782608 0.15 0  2.015652173913043 0.15 0  2.032173913043478 0.15 0  2.048695652173913 0.15 0  2.065217391304348 0.15 0  2.081739130434782 0.15 0  2.098260869565217 0.15 0  2.114782608695652 0.15 0  1.9 0.1666666666666667 0  1.883478260869565 0.1666666666666667 0  1.916521739130435 0.1666666666666667 0  1.933043478260869 0.1666666666666667 0  1.949565217391304 0.1666666666666667 0  1.966086956521739 0.1666666666666667 0  1.982608695652174 0.1666666666666667 0  1.999130434782608 0.1666666666666667 0  2.015652173913043 0.1666666666666667 0  2.032173913043478 0.1666666666666667 0  2.048695652173913 0.1666666666666667 0  2.065217391304348 0.1666666666666667 0  2.081739130434782 0.1666666666666667 0  2.098260869565217 0.1666666666666667 0  2.114782608695652 0.1666666666666667 0  2.131304347826087 0.1666666666666667 0  1.9 0.1833333333333333 0  1.883478260869565 0.1833333333333333 0  1.916521739130435 0.1833333333333333 0  1.933043478260869 0.1833333333333333 0  1.949565217391304 0.1833333333333333 0  1.966086956521739 0.1833333333333333 0  1.982608695652174 0.1833333333333333 0  1.999130434782608 0.1833333333333333 0  2.015652173913043 0.1833333333333333 0  2.032173913043478 0.1833333333333333 0  2.048695652173913 0.1833333333333333 0  2.065217391304348 0.1833333333333333 0  2.081739130434782 0.1833333333333333 0  2.098260869565217 0.1833333333333333 0  2.114782608695652 0.1833333333333333 0  2.131304347826087 0.1833333333333333 0  2.147826086956522 0.1833333333333333 0  1.9 0.2 0  1.883478260869565 0.2 0  1.916521739130435 0.2 0  1.933043478260869 0.2 0  1.949565217391304 0.2 0  1.966086956521739 0.2 0  1.982608695652174 0.2 0  1.999130434782608 0.2 0  2.015652173913043 0.2 0  2.032173913043478 0.2 0  2.048695652173913 0.2 0  2.065217391304348 0.2 0  2.081739130434782 0.2 0  2.098260869565217 0.2 0  2.114782608695652 0.2 0  2.131304347826087 0.2 0  2.147826086956522 0.2 0  2.164347826086956 0.2 0  1.9 0.2166666666666667 0  1.883478260869565 0.2166666666666667 0  1.916521739130435 0.2166666666666667 0  1.933043478260869 0.2166666666666667 0  1.949565217391304 0.2166666666666667 0  1.966086956521739 0.2166666666666667 0  1.982608695652174 0.2166666666666667 0  1.999130434782608 0.2166666666666667 0  2.015652173913043 0.2166666666666667 0  2.032173913043478 0.2166666666666667 0  2.048695652173913 0.2166666666666667 0  2.065217391304348 0.2166666666666667 0  2.081739130434782 0.2166666666666667 0  2.098260869565217 0.2166666666666667 0  2.114782608695652 0.2166666666666667 0  2.131304347826087 0.2166666666666667 0  2.147826086956522 0.2166666666666667 0  2.164347826086956 0.2166666666666667 0  2.180869565217391 0.2166666666666667 0  1.9 0.2333333333333333 0  1.883478260869565 0.2333333333333333 0  1.916521739130435 0.2333333333333333 0  1.933043478260869 0.2333333333333333 0  1.949565217391304 0.2333333333333333 0  1.966086956521739 0.2333333333333333 0  1.982608695652174 0.2333333333333333 0  1.999130434782608 0.2333333333333333 0  2.015652173913043 0.2333333333333333 0  2.032173913043478 0.2333333333333333 0  2.048695652173913 0.2333333333333333 0  2.065217391304348 0.2333333333333333 0  2.081739130434782 0.2333333333333333 0  2.098260869565217 0.2333333333333333 0  2.114782608695652 0.2333333333333333 0  2.131304347826087 0.2333333333333333 0  2.147826086956522 0.2333333333333333 0  2.164347826086956 0.2333333333333333 0  2.180869565217391 0.2333333333333333 0  2.197391304347826 0.2333333333333333 0  1.9 0.25 0  1.916521739130435 0.25 0  1.933043478260869 0.25 0  1.949565217391304 0.25 0  1.966086956521739 0.25 0  1.982608695652174 0.25 0  1.999130434782608 0.25 0  2.015652173913043 0.25 0  2.032173913043478 0.25 0  2.048695652173913 0.25 0  2.065217391304348 0.25 0  2.081739130434782 0.25 0  2.098260869565217 0.25 0  2.114782608695652 0.25 0  2.131304347826087 0.25 0  2.147826086956522 0.25 0  2.164347826086956 0.25 0  2.180869565217391 0.25 0  2.197391304347826 0.25 0  2.213913043478261 0.25 0  1.916521739130435 0.2666666666666667 0  1.9 0.2666666666666667 0  1.933043478260869 0.2666666666666667 0  1.949565217391304 0.2666666666666667 0  1.966086956521739 0.2666666666666667 0  1.982608695652174 0.2666666666666667 0  1.999130434782608 0.2666666666666667 0  2.015652173913043 0.2666666666666667 0  2.032173913043478 0.2666666666666667 0  2.048695652173913 0.2666666666666667 0  2.065217391304348 0.2666666666666667 0  2.081739130434782 0.2666666666666667 0  2.098260869565217 0.2666666666666667 0  2.114782608695652 0.2666666666666667 0  2.131304347826087 0.2666666666666667 0  2.147826086956522 0.2666666666666667 0  2.164347826086956 0.2666666666666667 0  2.180869565217391 0.2666666666666667 0  2.197391304347826 0.2666666666666667 0  2.213913043478261 0.2666666666666667 0  2.230434782608695 0.25 0  2.230434782608695 0.2666666666666667 0  2.24695652173913 0.2666666666666667 0  1.916521739130435 0.2833333333333333 0  1.9 0.2833333333333333 0  1.933043478260869 0.2833333333333333 0  1.949565217391304 0.2833333333333333 0  1.966086956521739 0.2833333333333333 0  1.982608695652174 0.2833333333333333 0  1.999130434782608 0.2833333333333333 0  2.015652173913043 0.2833333333333333 0  2.032173913043478 0.2833333333333333 0  2.048695652173913 0.2833333333333333 0  2.065217391304348 0.2833333333333333 0  2.081739130434782 0.2833333333333333 0  2.098260869565217 0.2833333333333333 0  2.114782608695652 0.2833333333333333 0  2.131304347826087 0.2833333333333333 0  2.147826086956522 0.2833333333333333 0  2.164347826086956 0.2833333333333333 0  2.180869565217391 0.2833333333333333 0  2.197391304347826 0.2833333333333333 0  2.213913043478261 0.2833333333333333 0  2.230434782608695 0.2833333333333333 0  2.24695652173913 0.2833333333333333 0  2.263478260869565 0.2833333333333333 0  1.916521739130435 0.3 0  1.9 0.3 0  1.933043478260869 0.3 0  1.949565217391304 0.3 0  1.966086956521739 0.3 0  1.982608695652174 0.3 0  1.999130434782608 0.3 0  2.015652173913043 0.3 0  2.032173913043478 0.3 0  2.048695652173913 0.3 0  2.065217391304348 0.3 0  2.081739130434782 0.3 0  2.098260869565217 0.3 0  2.114782608695652 0.3 0  2.131304347826087 0.3 0  2.147826086956522 0.3 0  2.164347826086956 0.3 0  2.180869565217391 0.3 0  2.197391304347826 0.3 0  2.213913043478261 0.3 0  2.230434782608695 0.3 0  2.24695652173913 0.3 0  2.263478260869565 0.3 0  2.28 0.3 0  1.916521739130435 0.3166666666666667 0  1.9 0.3166666666666667 0  1.933043478260869 0.3166666666666667 0  1.949565217391304 0.3166666666666667 0  1.966086956521739 0.3166666666666667 0  1.982608695652174 0.3166666666666667 0  1.999130434782608 0.3166666666666667 0  2.015652173913043 0.3166666666666667 0  2.032173913043478 0.3166666666666667 0  2.048695652173913 0.3166666666666667 0  2.065217391304348 0.3166666666666667 0  2.081739130434782 0.3166666666666667 0  2.098260869565217 0.3166666666666667 0  2.114782608695652 0.3166666666666667 0  2.131304347826087 0.3166666666666667 0  2.147826086956522 0.3166666666666667 0  2.164347826086956 0.3166666666666667 0  2.180869565217391 0.3166666666666667 0  2.197391304347826 0.3166666666666667 0  2.213913043478261 0.3166666666666667 0  2.230434782608695 0.3166666666666667 0  2.24695652173913 0.3166666666666667 0  2.263478260869565 0.3166666666666667 0  2.28 0.3166666666666667 0  2.296521739130434 0.3166666666666667 0  1.916521739130435 0.3333333333333333 0  1.9 0.3333333333333333 0  1.933043478260869 0.3333333333333333 0  1.949565217391304 0.3333333333333333 0  1.966086956521739 0.3333333333333333 0  1.982608695652174 0.3333333333333333 0  1.999130434782608 0.3333333333333333 0  2.015652173913043 0.3333333333333333 0  2.032173913043478 0.3333333333333333 0  2.048695652173913 0.3333333333333333 0  2.06521739
[...]
<CellData  Scalars="rho_bar"> 
<DataArray  type="Float64"  Name="rho_bar"  format="ascii">5.5624520596283179e-05   5.0993838781228841e-12   2.9276969737423990e-11   0.0000000000000000e+00   0.0000000000000000e+00   0.0000000000000000e+00   0.0000000000000000e+00   0.0000000000000000e+00   0.0000000000000000e+00   0.0000000000000000e+00   0.0000000000000000e+00   0.0000000000000000e+00   0.0000000000000000e+00   0.0000000000000000e+00   0.0000000000000000e+00   0.0000000000000000e+00   0.0000000000000000e+00   0.0000000000000000e+00   0.0000000000000000e+00   0.0000000000000000e+00   0.0000000000000000e+00   0.0000000000000000e+00   0.0000000000000000e+00   0.0000000000000000e+00   0.0000000000000000e+00   0.0000000000000000e+00   0.0000000000000000e+00   0.0000000000000000e+00   0.0000000000000000e+00   0.0000000000000000e+00   0.0000000000000000e+00   0.0000000000000000e+00   0.0000000000000000e+00   0.0000000000000000e+00   0.0000000000000000e+00   0.0000000000000000e+00   0.0000000000000000e+00   0.0000000000000000e+00   0.0000000000000000e+00   0.0000000000000000e+00   0.0000000000000000e+00   0.0000000000000000e+00   0.0000000000000000e+00   0.0000000000000000e+00   0.0000000000000000e+00   0.0000000000000000e+00   0.0000000000000000e+00   0.0000000000000000e+00   0.0000000000000000e+00   0.0000000000000000e+00   0.0000000000000000e+00   0.0000000000000000e+00   0.0000000000000000e+00   0.0000000000000000e+00   0.0000000000000000e+00   0.0000000000000000e+00   0.0000000000000000e+00   0.0000000000000000e+00   0.0000000000000000e+00   0.0000000000000000e+00   0.0000000000000000e+00   0.0000000000000000e+00   0.0000000000000000e+00   0.0000000000000000e+00   0.0000000000000000e+00   0.0000000000000000e+00   0.0000000000000000e+00   0.0000000000000000e+00   0.0000000000000000e+00   0.0000000000000000e+00   0.0000000000000000e+00   0.0000000000000000e+00   0.0000000000000000e+00   0.0000000000000000e+00   0.0000000000000000e+00   0.0000000000000000e+00   0.0000000000000000e+00   0.0000000000000000e+00   0.0000000000000000e+00   0.0000000000000000e+00   0.0000000000000000e+00   0.0000000000000000e+00   0.0000000000000000e+00   0.0000000000000000e+00   0.0000000000000000e+00   0.0000000000000000e+00   0.0000000000000000e+00   0.0000000000000000e+00   0.0000000000000000e+00   0.0000000000000000e+00   0.0000000000000000e+00   0.0000000000000000e+00   0.0000000000000000e+00   0.0000000000000000e+00   0.0000000000000000e+00   0.0000000000000000e+00   0.0000000000000000e+00   0.0000000000000000e+00   0.0000000000000000e+00   0.0000000000000000e+00   3.5231077314771632e-14   5.5796127392352756e-05   0.0000000000000000e+00   1.7578531223231644e-16   0.0000000000000000e+00   0.0000000000000000e+00   0.0000000000000000e+00   0.0000000000000000e+00   0.0000000000000000e+00   0.0000000000000000e+00   0.0000000000000000e+00   0.0000000000000000e+00   0.0000000000000000e+00   0.0000000000000000e+00   0.0000000000000000e+00   0.0000000000000000e+00   0.0000000000000000e+00   0.0000000000000000e+00   0.0000000000000000e+00   0.0000000000000000e+00   0.0000000000000000e+00   0.0000000000000000e+00   0.0000000000000000e+00   0.0000000000000000e+00   0.0000000000000000e+00   0.0000000000000000e+00   0.0000000000000000e+00   0.0000000000000000e+00   0.0000000000000000e+00   2.0423787936461138e-01   9.2875114286473415e-01   2.9486596497818592e-09   4.0749991108306696e-02   0.0000000000000000e+00   1.3237920019430287e-11   0.0000000000000000e+00   0.0000000000000000e+00   0.0000000000000000e+00   0.0000000000000000e+00   0.0000000000000000e+00   0.0000000000000000e+00   0.0000000000000000e+00   0.0000000000000000e+00   0.0000000000000000e+00   0.0000000000000000e+00   0.0000000000000000e+00   0.0000000000000000e+00   0.0000000000000000e+00   0.0000000000000000e+00   0.0000000000000000e+00   0.0000000000000000e+00   0.0000000000000000e+00   0.0000000000000000e+00   0.0000000000000000e+00   0.0000000000000000e+00   0.0000000000000000e+00   0.0000000000000000e+00   0.0000000000000000e+00   0.0000000000000000e+00   0.0000000000000000e+00   9.4212077914245973e-01   1.7325796349497732e-01   6.0746751253031339e-01   9.6282268585617903e-01   9.7665745470432164e-06   2.9420435044329674e-01   0.0000000000000000e+00   1.2084903032912503e-07   0.0000000000000000e+00   0.0000000000000000e+00   0.0000000000000000e+00   0.0000000000000000e+00   0.0000000000000000e+00   0.0000000000000000e+00   0.0000000000000000e+00   0.0000000000000000e+00   0.0000000000000000e+00   0.0000000000000000e+00   0.0000000000000000e+00   0.0000000000000000e+00   0.0000000000000000e+00   0.0000000000000000e+00   0.0000000000000000e+00   0.0000000000000000e+00   0.0000000000000000e+00   0.0000000000000000e+00   0.0000000000000000e+00   0.0000000000000000e+00   0.0000000000000000e+00   0.0000000000000000e+00   0.0000000000000000e+00   0.0000000000000000e+00   0.0000000000000000e+00   7.0248045667529541e-05   1.7319479184152442e-14   5.6041191000491430e-01   2.3676376562725694e-03   7.8127342772508124e-01   7.1470645563890878e-01   6.0329437601503453e-03   6.3254567922092186e-01   8.8003678418620750e-14   1.6709418954454397e-04   0.0000000000000000e+00   1.3877787807814454e-16   0.0000000000000000e+00   0.0000000000000000e+00   0.0000000000000000e+00   0.0000000000000000e+00   0.0000000000000000e+00   0.0000000000000000e+00   0.0000000000000000e+00   0.0000000000000000e+00   0.0000000000000000e+00   0.0000000000000000e+00   0.0000000000000000e+00   0.0000000000000000e+00   0.0000000000000000e+00   0.0000000000000000e+00   0.0000000000000000e+00   0.0000000000000000e+00   0.0000000000000000e+00   0.0000000000000000e+00   0.0000000000000000e+00   0.0000000000000000e+00   0.0000000000000000e+00   0.0000000000000000e+00   0.0000000000000000e+00   0.0000000000000000e+00   0.0000000000000000e+00   1.7020442805160130e-08   0.0000000000000000e+00   2.2543902490467496e-01   1.4348868912309833e-06   9.5675726599061328e-01   5.1997281684941610e-01   1.9294500194163486e-01   9.3375252118214014e-01   1.3339127025169262e-09   1.9612900983020057e-02   0.0000000000000000e+00   5.8382095454353102e-12   0.0000000000000000e+00   0.0000000000000000e+00   0.0000000000000000e+00   0.0000000000000000e+00   0.0000000000000000e+00   0.0000000000000000e+00   0.0000000000000000e+00   0.0000000000000000e+00   0.0000000000000000e+00   0.0000000000000000e+00   0.0000000000000000e+00   0.0000000000000000e+00   0.0000000000000000e+00   0.0000000000000000e+00   0.0000000000000000e+00   0.0000000000000000e+00   0.0000000000000000e+00   0.0000000000000000e+00   0.0000000000000000e+00   0.0000000000000000e+00   0.0000000000000000e+00   0.0000000000000000e+00   0.0000000000000000e+00   0.0000000000000000e+00   0.0000000000000000e+00   0.0000000000000000e+00   7.8526999717591183e-13   0.0000000000000000e+00   8.6905119110975981e-03   2.0718969132952719e-10   8.1328664374189608e-01   8.0395905896932213e-02   5.1741360247924573e-01   8.4276993819769874e-01   4.9135524573991800e-06   1.9664048611976517e-01   0.0000000000000000e+00   8.5666545209435910e-08   0.0000000000000000e+00   0.0000000000000000e+00   0.0000000000000000e+00   0.0000000000000000e+00   0.0000000000000000e+00   0.0000000000000000e+00   0.0000000000000000e+00   0.0000000000000000e+00   0.0000000000000000e+00   0.0000000000000000e+00   0.0000000000000000e+00   0.0000000000000000e+00   0.0000000000000000e+00   0.0000000000000000e+00   0.0000000000000000e+00   0.0000000000000000e+00   0.0000000000000000e+00   0.0000000000000000e+00   0.0000000000000000e+00   0.0000000000000000e+00   0.0000000000000000e+00   0.0000000000000000e+00   0.0000000000000000e+00   0.0000000000000000e+00   0.0000000000000000e+00   0.0000000000000000e+00   0.0000000000000000e+00   9.2518585385429707e-18   0.0000000000000000e+00   6.3017589791343935e-06   1.3137639124731022e-15   3.2948928232434349e-01   1.6408170967660565e-04   6.8642921847418392e-01   5.9318883064307293e-01   3.8287037688044447e-03   5.1896986027305403e-01   8.1074036373252044e-14   1.1248167800786044e-04   0.0000000000000000e+00   6.4763009769800790e-17   0.0000000000000000e+00   0.0000000000000000e+00   0.0000000000000000e+00   0.0000000000000000e+00   0.0000000000000000e+00   0.0000000000000000e+00   0.0000000000000000e+00   0.0000000000000000e+00   0.0000000000000000e+00   0.0000000000000000e+00   0.0000000000000000e+00   0.0000000000000000e+00   0.0000000000000000e+00   0.0000000000000000e+00   0.0000000000000000e+00   0.0000000000000000e+00   0.0000000000000000e+00   0.0000000000000000e+00   0.0000000000000000e+00   0.0000000000000000e+00   0.0000000000000000e+00   0.0000000000000000e+00   0.0000000000000000e+00   0.0000000000000000e+00   0.0000000000000000e+00   0.0000000000000000e+00   0.0000000000000000e+00   0.0000000000000000e+00   0.0000000000000000e+00   0.0000000000000000e+00   0.0000000000000000e+00   4.7986950524325788e-10   0.0000000000000000e+00   7.4357108298070046e-02   6.8947198746579133e-08   9.0666947622789940e-01   3.6154655851390854e-01   1.4899820432387501e-01   8.8998463659041949e-01   2.3792404157951802e-10   9.7719250472346735e-03   0.0000000000000000e+00   2.7513176921919086e-13   0.0000000000000000e+00   0.0000000000000000e+00   0.0000000000000000e+00   0.0000000000000000e+00   0.0000000000000000e+00   0.0000000000000000e+00   0.0000000000000000e+00   0.0000000000000000e+00   0.0000000000000000e+00   0.0000000000000000e+00   0.0000000000000000e+00   0.0000000000000000e+00   0.0000000000000000e+00   0.0000000000000000e+00   0.0000000000000000e+00   0.0000000000000000e+00   0.0000000000000000e+00   0.0000000000000000e+00   0.0000000000000000e+00   0.0000000000000000e+00   0.0000000000000000e+00   0.0000000000000000e+00   0.0000000000000000e+00   0.0000000000000000e+00   0.0000000000000000e+00   0.0000000000000000e+00   0.0000000000000000e+00   0.0000000000000000e+00   0.0000000000000000e+00   0.0000000000000000e+00   0.0000000000000000e+00   0.0000000000000000e+00   0.0000000000000000e+00   3.5971225997855072e-14   0.0000000000000000e+00   3.3712458521417692e-03   2.8770680282619307e-11   8.8161048358034244e-01   9.6396484734087975e-02   4.7058191923963055e-01   9.2715141952586244e-01   2.3411497832951750e-07   1.4331567769389006e-01   0.0000000000000000e+00   1.3139392999554167e-09   0.0000000000000000e+00   0.0000000000000000e+00   0.0000000000000000e+00   0.0000000000000000e+00   0.0000000000000000e+00   0.0000000000000000e+00   0.0000000000000000e+00   0.0000000000000000e+00   0.0000000000000000e+00   0.0000000000000000e+00   0.0000000000000000e+00   0.0000000000000000e+00   0.0000000000000000e+00   0.0000000000000000e+00   0.0000000000000000e+00   0.0000000000000000e+00   0.0000000000000000e+00   0.0000000000000000e+00   0.0000000000000000e+00   0.0000000000000000e+00   0.0000000000000000e+00   0.0000000000000000e+00   0.0000000000000000e+00   0.0000000000000000e+00   0.0000000000000000e+00   0.0000000000000000e+00   0.0000000000000000e+00   0.0000000000000000e+00   0.0000000000000000e+00   0.0000000000000000e+00   0.0000000000000000e+00   0.0000000000000000e+00   0.0000000000000000e+00   0.0000000000000000e+00   0.0000000000000000e+00   0.0000000000000000e+00   0.0000000000000000e+00   6.3922444390250105e-05   1.5052773842209415e-14   5.7515187636565135e-01   4.1935643229552644e-03   6.4737609846553690e-01   7.6607335519718467e-01   5.0128779428481218e-04   4.4487302136753382e-01   9.5294142946992582e-15   2.6240984555521887e-05   0.0000000000000000e+00   1.2027416100105862e-16   0.0000000000000000e+00   0.0000000000000000e+00   0.0000000000000000e+00   0.0000000000000000e+00   0.0000000000000000e+00   0.0000000000000000e+00   0.0000000000000000e+00   0.0000000000000000e+00   0.0000000000000000e+00   0.0000000000000000e+00   0.0000000000000000e+00   0.0000000000000000e+00   0.0000000000000000e+00   0.0000000000000000e+00   0.0000000000000000e+00   0.0000000000000000e+00   0.0000000000000000e+00   0.0000000000000000e+00   7.3709788273035302e-11   9.2767460380116518e-11   1.3832693688897249e-01   0.0000000000000000e+00   0.0000000000000000e+00   0.0000000000000000e+00   0.0000000000000000e+00   0.0000000000000000e+00   0.0000000000000000e+00   0.0000000000000000e+00   0.0000000000000000e+00   0.0000000000000000e+00   0.0000000000000000e+00   0.0000000000000000e+00   0.0000000000000000e+00   0.0000000000000000e+00   0.0000000000000000e+00   0.0000000000000000e+00   0.0000000000000000e+00   1.8493904552219218e-07   0.0000000000000000e+00   2.8261159125558682e-01   1.5166153915557866e-05   9.3101441091445569e-01   5.9833371623810772e-01   1.7937332607238743e-01   9.1779442868712380e-01   1.2708538231024726e-08   5.3953496475081200e-02   0.0000000000000000e+00   4.1111699230119326e-10   0.0000000000000000e+00   0.0000000000000000e+00   0.0000000000000000e+00   0.0000000000000000e+00   0.0000000000000000e+00   0.0000000000000000e+00   0.0000000000000000e+00   0.0000000000000000e+00   0.0000000000000000e+00   0.0000000000000000e+00   0.0000000000000000e+00   0.0000000000000000e+00   0.0000000000000000e+00   0.0000000000000000e+00   1.2722489080759418e-09   8.8753292955730724e-09   1.2604215892862378e-01   1.5431455581919787e-01   6.6247290953693760e-01   6.4729754911987136e-01   2.4634019867214726e-01   0.0000000000000000e+00   0.0000000000000000e+00   0.0000000000000000e+00   0.0000000000000000e+00   0.0000000000000000e+00   0.0000000000000000e+00   0.0000000000000000e+00   0.0000000000000000e+00   0.0000000000000000e+00   0.0000000000000000e+00   0.0000000000000000e+00   0.0000000000000000e+00   0.0000000000000000e+00   0.0000000000000000e+00   0.0000000000000000e+00   0.0000000000000000e+00   0.0000000000000000e+00   0.0000000000000000e+00   2.9081801781553434e-11   0.0000000000000000e+00   3.5236338343159264e-02   3.4118273946800075e-09   8.5902731220615136e-01   1.3548481182288150e-01   6.2206896173654036e-01   8.7733263997756894e-01   9.1922121046198802e-04   4.7516283217177480e-01   1.8722616050107864e-12   2.8157838426944476e-04   0.0000000000000000e+00   9.1376906041773489e-13   0.0000000000000000e+00   0.0000000000000000e+00   0.0000000000000000e+00   0.0000000000000000e+00   0.0000000000000000e+00   0.0000000000000000e+00   9.2518585385429722e-18   2.0631644540950824e-15   1.0879391649047203e-06   2.4984291336368106e-05   1.8361874271916714e-01   3.2490006773054719e-01   6.1426072265306531e-01   5.8693363004596244e-01   2.0128912562192119e-01   1.5615298213541165e-01   1.7630344471368052e-08   1.0259078642160802e-08   0.0000000000000000e+00   0.0000000000000000e+00   0.0000000000000000e+00   0.0000000000000000e+00   0.0000000000000000e+00   0.0000000000000000e+00   0.0000000000000000e+00   0.0000000000000000e+00   0.0000000000000000e+00   0.0000000000000000e+00   0.0000000000000000e+00   0.0000000000000000e+00   0.0000000000000000e+00   0.0000000000000000e+00   0.0000000000000000e+00   0.0000000000000000e+00   0.0000000000000000e+00   0.0000000000000000e+00   0.0000000000000000e+00   0.0000000000000000e+00   0.0000000000000000e+00   8.3266726846886741e-17   0.0000000000000000e+00   5.8118403296336663e-06   2.5350092395607740e-15   2.8381587397327096e-01   3.0536813470029747e-05   9.1531103415501225e-01   4.2299438430057629e-01   4.6543601846577370e-01   9.4522932325512654e-01   1.5942748921012845e-02   6.4956773183576744e-01   5.3924957940654217e-07   2.3541344077224857e-01   2.4296645991424737e-09   8.6624066335617960e-03   2.0986123461334363e-06   4.8705570051332657e-02   8.9464284891457649e-02   3.9147541028090610e-01   5.1491106140984155e-01   6.5278783215786484e-01   5.8752682323438998e-01   5.7853617166560667e-01   7.4282587928492225e-02   1.5345010545980258e-02   6.2944166545619851e-10   6.3672086122087051e-11   0.0000000000000000e+00   0.0000000000000000e+00   0.0000000000000000e+00   0.0000000000000000e+00   0.0000000000000000e+00   0.0000000000000000e+00   0.0000000000000000e+00   0.0000000000000000e+00   0.0000000000000000e+00   0.0000000000000000e+00   0.0000000000000000e+00   0.0000000000000000e+00   0.0000000000000000e+00   0.0000000000000000e+00   0.0000000000000000e+00   0.0000000000000000e+00   0.0000000000000000e+00   0.0000000000000000e+00   0.0000000000000000e+00   0.0000000000000000e+00   0.0000000000000000e+00   0.0000000000000000e+00   0.0000000000000000e+00   0.0000000000000000e+00   0.0000000000000000e+00   0.0000000000000000e+00   0.0000000000000000e+00   0.0000000000000000e+00   0.0000000000000000e+00   1.0852522584296289e-12   0.0000000000000000e+00   6.5000481753390194e-04   6.1108340609905546e-12   6.0888346585299913e-01   2.9693379643735977e-03   9.9989269675874637e-01   7.6860606914525786e-01   9.9981947956763340e-01   9.9999576251262789e-01   9.9902458906214064e-01   9.9999801144892575e-01   9.9947493888065697e-01   9.9999383584915846e-01   9.9987866480954291e-01   9.9997966273660344e-01   6.3705668023484197e-01   6.4619963157644567e-01   2.9003889109961347e-03   4.8370987570900409e-04   5.8619775700208265e-14   3.6914915568786463e-15   0.0000000000000000e+00   0.0000000000000000e+00   0.0000000000000000e+00   0.0000000000000000e+00   0.0000000000000000e+00   0.0000000000000000e+00   0.0000000000000000e+00   0.0000000000000000e+00   0.0000000000000000e+00   0.0000000000000000e+00   0.0000000000000000e+00   0.0000000000000000e+00   0.0000000000000000e+00   0.0000000000000000e+00   0.0000000000000000e+00   0.0000000000000000e+00   0.0000000000000000e+00   0.0000000000000000e+00   0.0000000000000000e+00   0.0000000000000000e+00   0.0000000000000000e+00   0.0000000000000000e+00   0.0000000000000000e+00   0.0000000000000000e+00   0.0000000000000000e+00   0.0000000000000000e+00   0.0000000000000000e+00   0.0000000000000000e+00   0.0000000000000000e+00   0.0000000000000000e+00   0.0000000000000000e+00   0.0000000000000000e+00   0.0000000000000000e+00   0.0000000000000000e+00   0.0000000000000000e+00   0.0000000000000000e+00   0.0000000000000000e+00   2.0227903241298853e-09   0.0000000000000000e+00   3.3250426688906759e-01   6.9403433925844610e-08   9.9999986339166336e-01   6.6613012501631064e-01   9.9999999999868316e-01   9.9999999695947883e-01   9.9999999884592727e-01   9.9999999911475046e-01   6.6304770449426698e-01   6.6792472568542527e-01   4.6656561544411435e-04   5.5709087111302513e-04   1.8503717077085938e-17   9.2518585385429691e-18   0.0000000000000000e+00   0.0000000000000000e+00   0.0000000000000000e+00   0.0000000000000000e+00   0.0000000000000000e+00   0.0000000000000000e+00   0.0000000000000000e+00   0.0000000000000000e+00   0.0000000000000000e+00   0.0000000000000000e+00   0.0000000000000000e+00   0.0000000000000000e+00   0.0000000000000000e+00   0.0000000000000000e+00   0.0000000000000000e+00   0.0000000000000000e+00   0.0000000000000000e+00   0.0000000000000000e+00   0.0000000000000000e+00   0.0000000000000000e+00   0.0000000000000000e+00   0.0000000000000000e+00   0.0000000000000000e+00   0.0000000000000000e+00   0.0000000000000000e+00   0.0000000000000000e+00   0.0000000000000000e+00   0.0000000000000000e+00   0.0000000000000000e+00   0.0000000000000000e+00   0.0000000000000000e+00   0.0000000000000000e+00   0.0000000000000000e+00   0.0000000000000000e+00   0.0000000000000000e+00   0.0000000000000000e+00   0.0000000000000000e+00   0.0000000000000000e+00   0.0000000000000000e+00   0.0000000000000000e+00   0.0000000000000000e+00   0.0000000000000000e+00   0.0000000000000000e+00   5.5326114060486970e-15   0.0000000000000000e+00   3.1954351619771382e-01   2.8391798171748896e-11   9.9999794284969123e-01   6.5233581818554387e-01   9.9665150652371004e-01   9.8512356926785904e-01   1.3675962438422282e-01   2.4122680834602511e-01   4.6259292692714852e-17   3.0808688933348098e-15   0.0000000000000000e+00   0.0000000000000000e+00   0.0000000000000000e+00   0.0000000000000000e+00   0.0000000000000000e+00   0.0000000000000000e+00   0.0000000000000000e+00   0.0000000000000000e+00   0.0000000000000000e+00   0.0000000000000000e+00   0.00000000