<?xml version="1.0"?>
<VTKFile type="UnstructuredGrid"  version="0.1"  >
<UnstructuredGrid>
<Piece  NumberOfPoints="650" NumberOfCells="1199">
<Points>
<DataArray  type="Float64"  NumberOfComponents="3"  format="ascii">3.238260869565217 0 0  3.254782608695652 0 0  3.254782608695652 0.01666666666666667 0  3.238260869565217 0.01666666666666667 0  3.271304347826087 0 0  3.271304347826087 0.01666666666666667 0  3.287826086956521 0 0  3.287826086956521 0.01666666666666667 0  3.304347826086957 0 0  3.304347826086957 0.01666666666666667 0  3.320869565217391 0 0  3.320869565217391 0.01666666666666667 0  3.337391304347826 0 0  3.337391304347826 0.01666666666666667 0  3.353913043478261 0 0  3.353913043478261 0.01666666666666667 0  3.370434782608696 0 0  3.370434782608696 0.01666666666666667 0  3.386956521739131 0 0  3.386956521739131 0.01666666666666667 0  3.403478260869565 0 0  3.403478260869565 0.01666666666666667 0  3.419999999999999 0 0  3.419999999999999 0.01666666666666667 0  3.436521739130435 0 0  3.436521739130435 0.01666666666666667 0  3.453043478260869 0 0  3.453043478260869 0.01666666666666667 0  3.469565217391304 0 0  3.469565217391304 0.01666666666666667 0  3.486086956521739 0 0  3.486086956521739 0.01666666666666667 0  3.502608695652174 0 0  3.502608695652174 0.01666666666666667 0  3.519130434782609 0 0  3.519130434782609 0.01666666666666667 0  3.535652173913043 0 0  3.535652173913043 0.01666666666666667 0  3.552173913043478 0 0  3.552173913043478 0.01666666666666667 0  3.568695652173913 0 0  3.568695652173913 0.01666666666666667 0  3.585217391304347 0 0  3.585217391304347 0.01666666666666667 0  3.601739130434782 0 0  3.601739130434782 0.01666666666666667 0  3.618260869565217 0 0  3.618260869565217 0.01666666666666667 0  3.634782608695652 0 0  3.634782608695652 0.01666666666666667 0  3.651304347826087 0 0  3.651304347826087 0.01666666666666667 0  3.667826086956521 0 0  3.667826086956521 0.01666666666666667 0  3.684347826086956 0 0  3.684347826086956 0.01666666666666667 0  3.700869565217391 0 0  3.700869565217391 0.01666666666666667 0  3.717391304347826 0 0  3.717391304347826 0.01666666666666667 0  3.733913043478261 0 0  3.733913043478261 0.01666666666666667 0  3.750434782608695 0 0  3.750434782608695 0.01666666666666667 0  3.766956521739131 0 0  3.766956521739131 0.01666666666666667 0  3.783478260869565 0 0  3.783478260869565 0.01666666666666667 0  3.8 0 0  3.8 0.01666666666666667 0  3.254782608695652 0.03333333333333333 0  3.271304347826087 0.03333333333333333 0  3.287826086956521 0.03333333333333333 0  3.304347826086957 0.03333333333333333 0  3.320869565217391 0.03333333333333333 0  3.337391304347826 0.03333333333333333 0  3.353913043478261 0.03333333333333333 0  3.370434782608696 0.03333333333333333 0  3.386956521739131 0.03333333333333333 0  3.403478260869565 0.03333333333333333 0  3.419999999999999 0.03333333333333333 0  3.436521739130435 0.03333333333333333 0  3.453043478260869 0.03333333333333333 0  3.469565217391304 0.03333333333333333 0  3.486086956521739 0.03333333333333333 0  3.502608695652174 0.03333333333333333 0  3.519130434782609 0.03333333333333333 0  3.535652173913043 0.03333333333333333 0  3.552173913043478 0.03333333333333333 0  3.568695652173913 0.03333333333333333 0  3.585217391304347 0.03333333333333333 0  3.601739130434782 0.03333333333333333 0  3.618260869565217 0.03333333333333333 0  3.634782608695652 0.03333333333333333 0  3.651304347826087 0.03333333333333333 0  3.667826086956521 0.03333333333333333 0  3.684347826086956 0.03333333333333333 0  3.700869565217391 0.03333333333333333 0  3.717391304347826 0.03333333333333333 0  3.733913043478261 0.03333333333333333 0  3.750434782608695 0.03333333333333333 0  3.766956521739131 0.03333333333333333 0  3.783478260869565 0.03333333333333333 0  3.8 0.03333333333333333 0  3.271304347826087 0.05 0  3.287826086956521 0.05 0  3.304347826086957 0.05 0  3.320869565217391 0.05 0  3.337391304347826 0.05 0  3.353913043478261 0.05 0  3.370434782608696 0.05 0  3.386956521739131 0.05 0  3.403478260869565 0.05 0  3.419999999999999 0.05 0  3.436521739130435 0.05 0  3.453043478260869 0.05 0  3.469565217391304 0.05 0  3.486086956521739 0.05 0  3.502608695652174 0.05 0  3.519130434782609 0.05 0  3.535652173913043 0.05 0  3.552173913043478 0.05 0  3.568695652173913 0.05 0  3.585217391304347 0.05 0  3.601739130434782 0.05 0  3.618260869565217 0.05 0  3.634782608695652 0.05 0  3.651304347826087 0.05 0  3.667826086956521 0.05 0  3.684347826086956 0.05 0  3.700869565217391 0.05 0  3.717391304347826 0.05 0  3.733913043478261 0.05 0  3.750434782608695 0.05 0  3.766956521739131 0.05 0  3.783478260869565 0.05 0  3.8 0.05 0  3.287826086956521 0.06666666666666667 0  3.304347826086957 0.06666666666666667 0  3.320869565217391 0.06666666666666667 0  3.337391304347826 0.06666666666666667 0  3.353913043478261 0.06666666666666667 0  3.370434782608696 0.06666666666666667 0  3.386956521739131 0.06666666666666667 0  3.403478260869565 0.06666666666666667 0  3.419999999999999 0.06666666666666667 0  3.436521739130435 0.06666666666666667 0  3.453043478260869 0.06666666666666667 0  3.469565217391304 0.06666666666666667 0  3.486086956521739 0.06666666666666667 0  3.502608695652174 0.06666666666666667 0  3.519130434782609 0.06666666666666667 0  3.535652173913043 0.06666666666666667 0  3.552173913043478 0.06666666666666667 0  3.568695652173913 0.06666666666666667 0  3.585217391304347 0.06666666666666667 0  3.601739130434782 0.06666666666666667 0  3.618260869565217 0.06666666666666667 0  3.634782608695652 0.06666666666666667 0  3.651304347826087 0.06666666666666667 0  3.667826086956521 0.06666666666666667 0  3.684347826086956 0.06666666666666667 0  3.700869565217391 0.06666666666666667 0  3.717391304347826 0.06666666666666667 0  3.733913043478261 0.06666666666666667 0  3.750434782608695 0.06666666666666667 0  3.766956521739131 0.06666666666666667 0  3.783478260869565 0.06666666666666667 0  3.8 0.06666666666666667 0  3.304347826086957 0.08333333333333333 0  3.320869565217391 0.08333333333333333 0  3.337391304347826 0.08333333333333333 0  3.353913043478261 0.08333333333333333 0  3.370434782608696 0.08333333333333333 0  3.386956521739131 0.08333333333333333 0  3.403478260869565 0.08333333333333333 0  3.419999999999999 0.08333333333333333 0  3.436521739130435 0.08333333333333333 0  3.453043478260869 0.08333333333333333 0  3.469565217391304 0.08333333333333333 0  3.486086956521739 0.08333333333333333 0  3.502608695652174 0.08333333333333333 0  3.519130434782609 0.08333333333333333 0  3.535652173913043 0.08333333333333333 0  3.552173913043478 0.08333333333333333 0  3.568695652173913 0.08333333333333333 0  3.585217391304347 0.08333333333333333 0  3.601739130434782 0.08333333333333333 0  3.618260869565217 0.08333333333333333 0  3.634782608695652 0.08333333333333333 0  3.651304347826087 0.08333333333333333 0  3.667826086956521 0.08333333333333333 0  3.684347826086956 0.08333333333333333 0  3.700869565217391 0.08333333333333333 0  3.717391304347826 0.08333333333333333 0  3.733913043478261 0.08333333333333333 0  3.750434782608695 0.08333333333333333 0  3.766956521739131 0.08333333333333333 0  3.783478260869565 0.08333333333333333 0  3.8 0.08333333333333333 0  3.320869565217391 0.1 0  3.337391304347826 0.1 0  3.353913043478261 0.1 0  3.370434782608696 0.1 0  3.386956521739131 0.1 0  3.403478260869565 0.1 0  3.419999999999999 0.1 0  3.436521739130435 0.1 0  3.453043478260869 0.1 0  3.469565217391304 0.1 0  3.486086956521739 0.1 0  3.502608695652174 0.1 0  3.519130434782609 0.1 0  3.535652173913043 0.1 0  3.552173913043478 0.1 0  3.568695652173913 0.1 0  3.585217391304347 0.1 0  3.601739130434782 0.1 0  3.618260869565217 0.1 0  3.634782608695652 0.1 0  3.651304347826087 0.1 0  3.667826086956521 0.1 0  3.684347826086956 0.1 0  3.700869565217391 0.1 0  3.717391304347826 0.1 0  3.733913043478261 0.1 0  3.750434782608695 0.1 0  3.766956521739131 0.1 0  3.783478260869565 0.1 0  3.8 0.1 0  3.337391304347826 0.1166666666666667 0  3.353913043478261 0.1166666666666667 0  3.370434782608696 0.1166666666666667 0  3.386956521739131 0.1166666666666667 0  3.403478260869565 0.1166666666666667 0  3.419999999999999 0.1166666666666667 0  3.436521739130435 0.1166666666666667 0  3.453043478260869 0.1166666666666667 0  3.469565217391304 0.1166666666666667 0  3.486086956521739 0.1166666666666667 0  3.502608695652174 0.1166666666666667 0  3.519130434782609 0.1166666666666667 0  3.535652173913043 0.1166666666666667 0  3.552173913043478 0.1166666666666667 0  3.568695652173913 0.1166666666666667 0  3.585217391304347 0.1166666666666667 0  3.601739130434782 0.1166666666666667 0  3.618260869565217 0.1166666666666667 0  3.634782608695652 0.1166666666666667 0  3.651304347826087 0.1166666666666667 0  3.667826086956521 0.1166666666666667 0  3.684347826086956 0.1166666666666667 0  3.700869565217391 0.1166666666666667 0  3.717391304347826 0.1166666666666667 0  3.733913043478261 0.1166666666666667 0  3.750434782608695 0.1166666666666667 0  3.766956521739131 0.1166666666666667 0  3.783478260869565 0.1166666666666667 0  3.8 0.1166666666666667 0  3.353913043478261 0.1333333333333333 0  3.370434782608696 0.1333333333333333 0  3.386956521739131 0.1333333333333333 0  3.403478260869565 0.1333333333333333 0  3.419999999999999 0.1333333333333333 0  3.436521739130435 0.1333333333333333 0  3.453043478260869 0.1333333333333333 0  3.469565217391304 0.1333333333333333 0  3.486086956521739 0.1333333333333333 0  3.502608695652174 0.1333333333333333 0  3.519130434782609 0.1333333333333333 0  3.535652173913043 0.1333333333333333 0  3.552173913043478 0.1333333333333333 0  3.568695652173913 0.1333333333333333 0  3.585217391304347 0.1333333333333333 0  3.601739130434782 0.1333333333333333 0  3.618260869565217 0.1333333333333333 0  3.634782608695652 0.1333333333333333 0  3.651304347826087 0.1333333333333333 0  3.667826086956521 0.1333333333333333 0  3.684347826086956 0.1333333333333333 0  3.700869565217391 0.1333333333333333 0  3.717391304347826 0.13333333
[...]
<PointData  Vectors="Displacement"> 
<DataArray  type="Float64"  Name="Displacement"  NumberOfComponents="3" format="ascii">6.7125370005658932e-04 6.7174095952343416e-03 0.0000000000000000e+00  6.8565628669961401e-04 6.7776449446376478e-03 0.0000000000000000e+00  6.2671468207036612e-04 6.7738502157107180e-03 0.0000000000000000e+00  6.1649858594438930e-04 6.7126808499635409e-03 0.0000000000000000e+00  6.9687818221333953e-04 6.8418905851248190e-03 0.0000000000000000e+00  6.3449620362325283e-04 6.8390807231197533e-03 0.0000000000000000e+00  7.0487021314156713e-04 6.9091324272972021e-03 0.0000000000000000e+00  6.3980812767429622e-04 6.9072885395231225e-03 0.0000000000000000e+00  7.0971738329309931e-04 6.9785142989777305e-03 0.0000000000000000e+00  6.4269375347986287e-04 6.9775967916992599e-03 0.0000000000000000e+00  7.1156008912676323e-04 7.0493094028607345e-03 0.0000000000000000e+00  6.4323392266161551e-04 7.0492744202945599e-03 0.0000000000000000e+00  7.1057138707548040e-04 7.1208566091332326e-03 0.0000000000000000e+00  6.4154352296489931e-04 7.1216517442190003e-03 0.0000000000000000e+00  7.0696218731285902e-04 7.1925397533038338e-03 0.0000000000000000e+00  6.3777631899299505e-04 7.1940985331268806e-03 0.0000000000000000e+00  7.0098393134772363e-04 7.2638015839505540e-03 0.0000000000000000e+00  6.3212255635013950e-04 7.2660441528304195e-03 0.0000000000000000e+00  6.9292192213275447e-04 7.3341599366960313e-03 0.0000000000000000e+00  6.2480110503218306e-04 7.3369967901479663e-03 0.0000000000000000e+00  6.8308391977281772e-04 7.4032154541717587e-03 0.0000000000000000e+00  6.1605018811607365e-04 7.4065515484680660e-03 0.0000000000000000e+00  6.7178864333290159e-04 7.4706517001845094e-03 0.0000000000000000e+00  6.0611886170338703e-04 7.4743898580562594e-03 0.0000000000000000e+00  6.5935615871954884e-04 7.5362311737005470e-03 0.0000000000000000e+00  5.9525980857403791e-04 7.5402747052191717e-03 0.0000000000000000e+00  6.4610040838953165e-04 7.5997895824677104e-03 0.0000000000000000e+00  5.8372341548611477e-04 7.6040442725860890e-03 0.0000000000000000e+00  6.3232341204407948e-04 7.6612297190111903e-03 0.0000000000000000e+00  5.7175283525969498e-04 7.6656054273707523e-03 0.0000000000000000e+00  6.1831070387834857e-04 7.7205151699578992e-03 0.0000000000000000e+00  5.5957988118694399e-04 7.7249271259216649e-03 0.0000000000000000e+00  6.0432778084725598e-04 7.7776639215767435e-03 0.0000000000000000e+00  5.4742169380748149e-04 7.7820337362713389e-03 0.0000000000000000e+00  5.9061741345936450e-04 7.8327420183716950e-03 0.0000000000000000e+00  5.3547810448179630e-04 7.8369984463059917e-03 0.0000000000000000e+00  5.7739766245698001e-04 7.8858574412775766e-03 0.0000000000000000e+00  5.2392958850689417e-04 7.8899369390891018e-03 0.0000000000000000e+00  5.6486042142013429e-04 7.9371543209124686e-03 0.0000000000000000e+00  5.1293567904684974e-04 7.9410014603061123e-03 0.0000000000000000e+00  5.5317030599307101e-04 7.9868075084256196e-03 0.0000000000000000e+00  5.0263371794542289e-04 7.9903752948795037e-03 0.0000000000000000e+00  5.4246373819725449e-04 8.0350174449500301e-03 0.0000000000000000e+00  4.9313784372761712e-04 8.0382675797360092e-03 0.0000000000000000e+00  5.3284810826311358e-04 8.0820052263964413e-03 0.0000000000000000e+00  4.8453814331815998e-04 8.0849083376215210e-03 0.0000000000000000e+00  5.2440092218890234e-04 8.1280077339841352e-03 0.0000000000000000e+00  4.7689991632430970e-04 8.1305435944762604e-03 0.0000000000000000e+00  5.1716885925574732e-04 8.1732726714190129e-03 0.0000000000000000e+00  4.7026302110850037e-04 8.1754304157307597e-03 0.0000000000000000e+00  5.1116667477978301e-04 8.2180533032277462e-03 0.0000000000000000e+00  4.6464129463722403e-04 8.2198316513071908e-03 0.0000000000000000e+00  5.0637589802162602e-04 8.2626026122365696e-03 0.0000000000000000e+00  4.6002206937288692e-04 8.2640101024362284e-03 0.0000000000000000e+00  5.0274330810437778e-04 8.3071664698252477e-03 0.0000000000000000e+00  4.5636585865463554e-04 8.3082216992330510e-03 0.0000000000000000e+00  5.0017924929771031e-04 8.3519752144071337e-03 0.0000000000000000e+00  4.5360635670855224e-04 8.3527070846576065e-03 0.0000000000000000e+00  4.9855602491217870e-04 8.3972327226212624e-03 0.0000000000000000e+00  4.5165100687747007e-04 8.3976807105730529e-03 0.0000000000000000e+00  4.9770699805873450e-04 8.4431015794812440e-03 0.0000000000000000e+00  4.5038252107177480e-04 8.4433161363520574e-03 0.0000000000000000e+00  4.9742787090983551e-04 8.4896822619824792e-03 0.0000000000000000e+00  4.4966182271209470e-04 8.4897256738193008e-03 0.0000000000000000e+00  4.9748348053793719e-04 8.5369835029514597e-03 0.0000000000000000e+00  4.4933275200847647e-04 8.5369319459387659e-03 0.0000000000000000e+00  4.9762800597546130e-04 8.5848820211441110e-03 0.0000000000000000e+00  4.4922814930066626e-04 8.5848287238178764e-03 0.0000000000000000e+00  4.9766333955089204e-04 8.6330912338979660e-03 0.0000000000000000e+00  4.4917524014559959e-04 8.6331281350932442e-03 0.0000000000000000e+00  5.7331366162066916e-04 6.7711751389245680e-03 0.0000000000000000e+00  5.7781601189037539e-04 6.8373241856374209e-03 0.0000000000000000e+00  5.8040195561074985e-04 6.9063449444232202e-03 0.0000000000000000e+00  5.8114879397983433e-04 6.9773994825031802e-03 0.0000000000000000e+00  5.8011155822775917e-04 7.0497947482107597e-03 0.0000000000000000e+00  5.7735697111357910e-04 7.1228595338687023e-03 0.0000000000000000e+00  5.7299058911074467e-04 7.1959417245315545e-03 0.0000000000000000e+00  5.6715626219620103e-04 7.2684526584427811e-03 0.0000000000000000e+00  5.6002482362957503e-04 7.3398908660429205e-03 0.0000000000000000e+00  5.5178349140262858e-04 7.4098478152470485e-03 0.0000000000000000e+00  5.4262834410700111e-04 7.4780045313681221e-03 0.0000000000000000e+00  5.3275890826290253e-04 7.5441253886701703e-03 0.0000000000000000e+00  5.2237391320482309e-04 7.6080510965477379e-03 0.0000000000000000e+00  5.1166749046521515e-04 7.6696921590906873e-03 0.0000000000000000e+00  5.0082575183980221e-04 7.7290221923050012e-03 0.0000000000000000e+00  4.9002389402660537e-04 7.7860710320750912e-03 0.0000000000000000e+00  4.7942386441324100e-04 7.8409179161453169e-03 0.0000000000000000e+00  4.6917252537990024e-04 7.8936849769667469e-03 0.0000000000000000e+00  4.5940020794349012e-04 7.9445311952492607e-03 0.0000000000000000e+00  4.5021955491410807e-04 7.9936468135659196e-03 0.0000000000000000e+00  4.4172459210892526e-04 8.0412481065224046e-03 0.0000000000000000e+00  4.3398999616730129e-04 8.0875723780327990e-03 0.0000000000000000e+00  4.2707054504506511e-04 8.1328730455881796e-03 0.0000000000000000e+00  4.2100075027472108e-04 8.1774146495879364e-03 0.0000000000000000e+00  4.1579468258393971e-04 8.2214675857826304e-03 0.0000000000000000e+00  4.1144601491888963e-04 8.2653022925828802e-03 0.0000000000000000e+00  4.0792831659671093e-04 8.3091825221836054e-03 0.0000000000000000e+00  4.0519562879583995e-04 8.3533571766581018e-03 0.0000000000000000e+00  4.0318330655082015e-04 8.3980499964925754e-03 0.0000000000000000e+00  4.0180896107705174e-04 8.4434461685038726e-03 0.0000000000000000e+00  4.0097294724554978e-04 8.4896747357752315e-03 0.0000000000000000e+00  4.0055697273616353e-04 8.5367856744706806e-03 0.0000000000000000e+00  4.0041762871843005e-04 8.5847206819077287e-03 0.0000000000000000e+00  4.0036784223266252e-04 8.6332751541649509e-03 0.0000000000000000e+00  5.2529383732546442e-04 6.8366060646846156e-03 0.0000000000000000e+00  5.2514436836501412e-04 6.9063696191038063e-03 0.0000000000000000e+00  5.2366337484367851e-04 6.9780474462249557e-03 0.0000000000000000e+00  5.2088220071959195e-04 7.0510546320131859e-03 0.0000000000000000e+00  5.1681966035029079e-04 7.1247238828928885e-03 0.0000000000000000e+00  5.1154233197405993e-04 7.1983639293373399e-03 0.0000000000000000e+00  5.0516153257287345e-04 7.2713597335384347e-03 0.0000000000000000e+00  4.9781451249598420e-04 7.3432000615275533e-03 0.0000000000000000e+00  4.8965103076362875e-04 7.4134759646970879e-03 0.0000000000000000e+00  4.8082651383643597e-04 7.4818713291157088e-03 0.0000000000000000e+00  4.7149838225160232e-04 7.5481542707208004e-03 0.0000000000000000e+00  4.6182354936390532e-04 7.6121692903751590e-03 0.0000000000000000e+00  4.5195570876200143e-04 7.6738312463024705e-03 0.0000000000000000e+00  4.4204255184093679e-04 7.7331188076598884e-03 0.0000000000000000e+00  4.3222336672666805e-04 7.7900673528879406e-03 0.0000000000000000e+00  4.2262714139781399e-04 7.8447619080895727e-03 0.0000000000000000e+00  4.1337111217152548e-04 7.8973304629439238e-03 0.0000000000000000e+00  4.0455962373791421e-04 7.9479378620582117e-03 0.0000000000000000e+00  3.9628319673015792e-04 7.9967802241886002e-03 0.0000000000000000e+00  3.8861777129924779e-04 8.0440797216867737e-03 0.0000000000000000e+00  3.8162413333912360e-04 8.0900795730369270e-03 0.0000000000000000e+00  3.7534753810381443e-04 8.1350391163044558e-03 0.0000000000000000e+00  3.6981754360979952e-04 8.1792288200576123e-03 0.0000000000000000e+00  3.6504805754158476e-04 8.2229250610286932e-03 0.0000000000000000e+00  3.6103758235995451e-04 8.2664044535333946e-03 0.0000000000000000e+00  3.5776960570780311e-04 8.3099374509830095e-03 0.0000000000000000e+00  3.5521301073976737e-04 8.3537808595415108e-03 0.0000000000000000e+00  3.5332224207181310e-04 8.3981688303613484e-03 0.0000000000000000e+00  3.5203670167168903e-04 8.4433018836474940e-03 0.0000000000000000e+00  3.5127837655185329e-04 8.4893336703689929e-03 0.0000000000000000e+00  3.5094588940871331e-04 8.5363556676501060e-03 0.0000000000000000e+00  3.5090182048878199e-04 8.5843810055232870e-03 0.0000000000000000e+00  3.5094776535677101e-04 8.6333299510915913e-03 0.0000000000000000e+00  4.7268015815574979e-04 6.9074139971268406e-03 0.0000000000000000e+00  4.6894888412107665e-04 6.9795988346971040e-03 0.0000000000000000e+00  4.6435099907487810e-04 7.0531598638115447e-03 0.0000000000000000e+00  4.5883921063670936e-04 7.1274099282379088e-03 0.0000000000000000e+00  4.5244973978756888e-04 7.2015773706270081e-03 0.0000000000000000e+00  4.4527570075341853e-04 7.2750104017275767e-03 0.0000000000000000e+00  4.3743260562264651e-04 7.3471909988023464e-03 0.0000000000000000e+00  4.2904219691081478e-04 7.4177157120903720e-03 0.0000000000000000e+00  4.2022773001797718e-04 7.4862759034965984e-03 0.0000000000000000e+00  4.1111263388742350e-04 7.5526465616018593e-03 0.0000000000000000e+00  4.0181992282335087e-04 7.6166776632566238e-03 0.0000000000000000e+00  3.9247020534631598e-04 7.6782898154920624e-03 0.0000000000000000e+00  3.8317920521931521e-04 7.7374679714738428e-03 0.0000000000000000e+00  3.7405577356587117e-04 7.7942539345050646e-03 0.0000000000000000e+00  3.6520049618027952e-04 7.8487389563136004e-03 0.0000000000000000e+00  3.5670474779687711e-04 7.9010568585870487e-03 0.0000000000000000e+00  3.4864996193114371e-04 7.9513779478098696e-03 0.0000000000000000e+00  3.4110697893679749e-04 7.9999035555136898e-03 0.0000000000000000e+00  3.3413547834114452e-04 8.0468609105948385e-03 0.0000000000000000e+00  3.2778354620168821e-04 8.0924981845197311e-03 0.0000000000000000e+00  3.2208741699448607e-04 8.1370796039904880e-03 0.0000000000000000e+00  3.1707140718170203e-04 8.1808805243481757e-03 0.0000000000000000e+00  3.1274802624984681e-04 8.2241823468770323e-03 0.0000000000000000e+00  3.0911820278919434e-04 8.2672671476182267e-03 0.0000000000000000e+00  3.0617149039127359e-04 8.3104118627322539e-03 0.0000000000000000e+00  3.0388600947348949e-04 8.3538818585132783e-03 0.0000000000000000e+00  3.0222771747130022e-04 8.3979237376461489e-03 0.0000000000000000e+00  3.0114835246265894e-04 8.4427573654507464e-03 0.0000000000000000e+00  3.0058103079455410e-04 8.4885674555301004e-03 0.0000000000000000e+00  3.0043197408053621e-04 8.5354958126735644e-03 0.0000000000000000e+00  3.0056620075504491e-04 8.5836367702279981e-03 0.0000000000000000e+00  3.0078429404124758e-04 8.6330410855850262e-03 0.0000000000000000e+00  4.1581622470112625e-04 6.9820403455567283e-03 0.0000000000000000e+00  4.0941613766676298e-04 7.0561437095437857e-03 0.0000000000000000e+00  4.0240128439443426e-04 7.1310182654338522e-03 0.0000000000000000e+00  3.9479534508340947e-04 7.2057270881245297e-03 0.0000000000000000e+00  3.8668848985895212e-04 7.2795766142196580e-03 0.0000000000000000e+00  3.7818198097390899e-04 7.3520528263170378e-03 0.0000000000000000e+00  3.6937417291462099e-04 7.4227678885839263e-03 0.0000000000000000e+00  3.6036113907075303e-04 7.4914261790676295e-03 0.0000000000000000e+00  3.5123813118775361e-04 7.5578128060773062e-03 0.0000000000000000e+00  3.4210090585718724e-04 7.6217844466980340e-03 0.0000000000000000e+00  3.3304350078776308e-04 7.6832692126980601e-03 0.0000000000000000e+00  3.2415540671090347e-04 7.7422603039566107e-03 0.0000000000000000e+00  3.1551989134618550e-04 7.7988075388485973e-03 0.0000000000000000e+00  3.0721320823801220e-04 7.8530094210326543e-03 0.0000000000000000e+00  2.9930429623277791e-04 7.9050060277391573e-03 0.0000000000000000e+00  2.9185453434144292e-04 7.9549731084019356e-03 0.0000000000000000e+00  2.8491736348905297e-04 8.0031169324416944e-03 0.0000000000000000e+00  2.7853786397044432e-04 8.0496693599662484e-03 0.0000000000000000e+00  2.7275240686747777e-04 8.0948830031539829e-03 0.0000000000000000e+00  2.6758844543366383e-04 8.1390264324291053e-03 0.0000000000000000e+00  2.6306446761985411e-04 8.1823793734918451e-03 0.0000000000000000e+00  2.5919008062776853e-04 8.2252278491984077e-03 0.0000000000000000e+00  2.5596612787858901e-04 8.2678592356986973e-03 0.0000000000000000e+00  2.5338464505171034e-04 8.3105572155948489e-03 0.0000000000000000e+00  2.5142834382844357e-04 8.3535966365060436e-03 0.0000000000000000e+00  2.5006916658328152e-04 8.3972383594529063e-03 0.0000000000000000e+00  2.4926527821343263e-04 8.4417243765413548e-03 0.0000000000000000e+00  2.4895565739615116e-04 8.4872738928913997e-03 0.0000000000000000e+00  2.4905125607136569e-04 8.5340818472183257e-03 0.0000000000000000e+00  2.4942162418356421e-04 8.5823227171922273e-03 0.0000000000000000e+00  2.4987623523152876e-04 8.6321649218318395e-03 0.0000000000000000e+00  3.5505111158938953e-04 7.0599710850419344e-03 0.0000000000000000e+00  3.4653978291036456e-04 7.1355993182204642e-03 0.0000000000000000e+00  3.3770533084120658e-04 7.2109012369973051e-03 0.0000000000000000e+00  3.2863409057226622e-04 7.2851654324833127e-03 0.0000000000000000e+00  3.1940741218568761e-04 7.3579055093131234e-03 0.0000000000000000e+00  3.1009887097889081e-04 7.4287636037983166e-03 0.0000000000000000e+00  3.0078061553032815e-04 7.4974619457150136e-03 0.0000000000000000e+00  2.9152502155223233e-04 7.5637984119004487e-03 0.0000000000000000e+00  2.8240737908512872e-04 7.6276360253627537e-03 0.0000000000000000e+00  2.7350153242011060e-04 7.6889126271341051e-03 0.0000000000000000e+00  2.6487591022153348e-04 7.7476325525404014e-03 0.0000000000000000e+00  2.5659237613969137e-04 7.8038559338079599e-03 0.0000000000000000e+00  2.4870633949062492e-04 7.8576900462564870e-03 0.0000000000000000e+00  2.4126734090139374e-04 7.9092819299862675e-03 0.0000000000000000e+00  2.3431935389536584e-04 7.9588130035164826e-03 0.0000000000000000e+00  2.2790059482206997e-04 8.0064945197947431e-03 0.0000000000000000e+00  2.2204313818860520e-04 8.0525629373219033e-03 0.0000000000000000e+00  2.1677256469696955e-04 8.0972752394471662e-03 0.0000000000000000e+00  2.1210773252751381e-04 8.1409042677361518e-03 0.0000000000000000e+00  2.0806069872478372e-04 8.1837340741345282e-03 0.0000000000000000e+00  2.0463675597492389e-04 8.2260553262266112e-03 0.0000000000000000e+00  2.0183446264759105e-04 8.2681608492829548e-03 0.0000000000000000e+00  1.9964543738684550e-04 8.3103414270132830e-03 0.0000000000000000e+00  1.9805357572449670e-04 8.3528820236035556e-03 0.0000000000000000e+00  1.9703323669995613e-04 8.3960586698613223e-03 0.0000000000000000e+00  1.9654585300504443e-04 8.4401364410001609e-03 0.0000000000000000e+00  1.9653436024396256e-04 8.4853693214851783e-03 0.0000000000000000e+00  1.9691487726872949e-04 8.5320033889326082e-03 0.0000000000000000e+00  1.9756533323779589e-04 8.5802857606639797e-03 0.0000000000000000e+00  1.9831151588779855e-04 8.6304832984527933e-03 0.0000000000000000e+00  2.9023895808302465e-04 7.1411594638719472e-03 0.0000000000000000e+00  2.8031359861470107e-04 7.2171268071883846e-03 0.0000000000000000e+00  2.7039089585043221e-04 7.2918176416149633e-03 0.0000000000000000e+00  2.6050729282016221e-04 7.3648031937497164e-03 0.0000000000000000e+00  2.5071615419969625e-04 7.4357711817708682e-03 0.0000000000000000e+00  2.4107697716239579e-04 7.5044632449214809e-03 0.0000000000000000e+00  2.3164850658124778e-04 7.5706925128946169e-03 0.0000000000000000e+00  2.2249461883803228e-04 7.6343249583648238e-03 0.0000000000000000e+00  2.1367563051601332e-04 7.6953119810314182e-03 0.0000000000000000e+00  2.0524321246291927e-04 7.7536734783300752e-03 0.0000000000000000e+00  1.9724101402410584e-04 7.8094829266374191e-03 0.0000000000000000e+00  1.8970633313599382e-04 7.8628582454252881e-03 0.0000000000000000e+00  1.8267195562057079e-04 7.9139541548930350e-03 0.0000000000000000e+00  1.7616699032879654e-04 7.9629580073397772e-03 0.0000000000000000e+00  1.7021662536964609e-04 8.0100863222726509e-03 0.0000000000000000e+00  1.6484158686174994e-04 8.0555804837501247e-03 0.0000000000000000e+00  1.6005767019915734e-04 8.0997021982922440e-03 0.0000000000000000e+00  1.5587542636779893e-04 8.1427289479375619e-03 0.0000000000000000e+00  1.5230003265807125e-04 8.1849494761204941e-03 0.0000000000000000e+00  1.4933131880708690e-04 8.2266594235213524e-03 0.0000000000000000e+00  1.4696381572942000e-04 8.2681573258867012e-03 0.0000000000000000e+00  1.4518657388674290e-04 8.3097412364395804e-03 0.0000000000000000e+00  1.4398239029095829e-04 8.3517062620843702e-03 0.0000000000000000e+00  1.4332601139510314e-04 8.3943433420380145e-03 0.0000000000000000e+00  1.4318085904469656e-04 8.4379397179173195e-03 0.0000000000000000e+00  1.4349387726490521e-04 8.4827818053936146e-03 0.0000000000000000e+00  1.4418826888128763e-04 8.5291616066567079e-03 0.0000000000000000e+00  1.4515428997134122e-04 8.5773883937388246e-03 0.0000000000000000e+00  1.4623909164530210e-04 8.6278080677284711e-03 0.0000000000000000e+00  2.2175836577069632e-04 7.2243181632696491e-03 0.0000000000000000e+00  2.1134459708419147e-04 7.2994975682558801e-03 0.0000000000000000e+00  2.0098162908773647e-04 7.3727399631455656e-03 0.0000000000000000e+00  1.9080008683130143e-04 7.4438067153320209e-03 0.0000000000000000e+00  1.8089194634184273e-04 7.5124605366592087e-03 0.0000000000000000e+00  1.7131805695570665e-04 7.5785376154167217e-03 0.0000000000000000e+00  1.6214105965779620e-04 7.6418975728393028e-03 0.0000000000000000e+00  1.5341243145002324e-04 7.7025139633197211e-03 0.0000000000000000e+00  1.4516869593876377e-04 7.7604289779107816e-03 0.0000000000000000e+00  1.3743667906395413e-04 7.8157328807276823e-03 0.0000000000000000e+00  1.3023733052418089e-04 7.8685561408712214e-03 0.0000000000000000e+00  1.2358907142496600e-04 7.9190613869797883e-03 0.0000000000000000e+00  1.1750884537398349e-04 7.9674419229829804e-03 0.0000000000000000e+00  1.1201125345093944e-04 8.0139200098386203e-03 0.0000000000000000e+00  1.0710755552272435e-04 8.0587426441912219e-03 0.0000000000000000e+00  1.0280496897929966e-04 8.1021770284431926e-03 0.0000000000000000e+00  9.9106221301703684e-05 8.1445060887827218e-03 0.0000000000000000e+00  9.6009380065935357e-05 8.1860240046483269e-03 0.0000000000000000e+00  9.3507953714206226e-05 8.2270319520701390e-03 0.0000000000000000e+00  9.1591126418463315e-05 8.2678344299727102e-03 0.0000000000000000e+00  9.0243845842578890e-05 8.3087365860741568e-03 0.0000000000000000e+00  8.9446372816083178e-05 8.3500429406413116e-03 0.0000000000000000e+00  8.9172863770843947e-05 8.3920578611752852e-03 0.0000000000000000e+00  8.9388599617058132e-05 8.4350881612446221e-03 0.0000000000000000e+00  9.0045598089748147e-05 8.4794483347412058e-03 0.0000000000000000e+