<?xml version="1.0"?>
<VTKFile type="UnstructuredGrid"  version="0.1"  >
<UnstructuredGrid>
<Piece  NumberOfPoints="614" NumberOfCells="1122">
<Points>
<DataArray  type="Float64"  NumberOfComponents="3"  format="ascii">2.792173913043478 0.2166666666666667 0  2.792173913043478 0.2333333333333333 0  2.808695652173913 0.2333333333333333 0  2.445217391304348 0.2333333333333333 0  2.461739130434782 0.2333333333333333 0  2.461739130434782 0.25 0  2.445217391304348 0.25 0  2.478260869565217 0.2333333333333333 0  2.478260869565217 0.25 0  2.494782608695652 0.2333333333333333 0  2.494782608695652 0.25 0  2.511304347826087 0.2333333333333333 0  2.511304347826087 0.25 0  2.527826086956522 0.2333333333333333 0  2.527826086956522 0.25 0  2.544347826086956 0.2333333333333333 0  2.544347826086956 0.25 0  2.560869565217391 0.2333333333333333 0  2.560869565217391 0.25 0  2.577391304347826 0.2333333333333333 0  2.577391304347826 0.25 0  2.593913043478261 0.2333333333333333 0  2.593913043478261 0.25 0  2.610434782608696 0.2333333333333333 0  2.610434782608696 0.25 0  2.62695652173913 0.2333333333333333 0  2.62695652173913 0.25 0  2.643478260869565 0.2333333333333333 0  2.643478260869565 0.25 0  2.66 0.2333333333333333 0  2.66 0.25 0  2.676521739130435 0.2333333333333333 0  2.676521739130435 0.25 0  2.693043478260869 0.2333333333333333 0  2.693043478260869 0.25 0  2.709565217391304 0.2333333333333333 0  2.709565217391304 0.25 0  2.726086956521739 0.2333333333333333 0  2.726086956521739 0.25 0  2.742608695652174 0.2333333333333333 0  2.742608695652174 0.25 0  2.759130434782609 0.2333333333333333 0  2.759130434782609 0.25 0  2.775652173913044 0.2333333333333333 0  2.775652173913044 0.25 0  2.792173913043478 0.25 0  2.808695652173913 0.25 0  2.825217391304347 0.25 0  2.28 0.25 0  2.296521739130434 0.25 0  2.296521739130434 0.2666666666666667 0  2.28 0.2666666666666667 0  2.31304347826087 0.25 0  2.31304347826087 0.2666666666666667 0  2.329565217391304 0.25 0  2.329565217391304 0.2666666666666667 0  2.346086956521739 0.25 0  2.346086956521739 0.2666666666666667 0  2.362608695652174 0.25 0  2.362608695652174 0.2666666666666667 0  2.379130434782609 0.25 0  2.379130434782609 0.2666666666666667 0  2.395652173913044 0.25 0  2.395652173913044 0.2666666666666667 0  2.412173913043478 0.25 0  2.412173913043478 0.2666666666666667 0  2.428695652173913 0.25 0  2.428695652173913 0.2666666666666667 0  2.445217391304348 0.2666666666666667 0  2.461739130434782 0.2666666666666667 0  2.478260869565217 0.2666666666666667 0  2.494782608695652 0.2666666666666667 0  2.511304347826087 0.2666666666666667 0  2.527826086956522 0.2666666666666667 0  2.544347826086956 0.2666666666666667 0  2.560869565217391 0.2666666666666667 0  2.577391304347826 0.2666666666666667 0  2.593913043478261 0.2666666666666667 0  2.610434782608696 0.2666666666666667 0  2.62695652173913 0.2666666666666667 0  2.643478260869565 0.2666666666666667 0  2.66 0.2666666666666667 0  2.676521739130435 0.2666666666666667 0  2.693043478260869 0.2666666666666667 0  2.709565217391304 0.2666666666666667 0  2.726086956521739 0.2666666666666667 0  2.742608695652174 0.2666666666666667 0  2.759130434782609 0.2666666666666667 0  2.775652173913044 0.2666666666666667 0  2.792173913043478 0.2666666666666667 0  2.808695652173913 0.2666666666666667 0  2.825217391304347 0.2666666666666667 0  2.841739130434783 0.2666666666666667 0  2.24695652173913 0.2666666666666667 0  2.263478260869565 0.2666666666666667 0  2.263478260869565 0.2833333333333333 0  2.28 0.2833333333333333 0  2.296521739130434 0.2833333333333333 0  2.31304347826087 0.2833333333333333 0  2.329565217391304 0.2833333333333333 0  2.346086956521739 0.2833333333333333 0  2.362608695652174 0.2833333333333333 0  2.379130434782609 0.2833333333333333 0  2.395652173913044 0.2833333333333333 0  2.412173913043478 0.2833333333333333 0  2.428695652173913 0.2833333333333333 0  2.445217391304348 0.2833333333333333 0  2.461739130434782 0.2833333333333333 0  2.478260869565217 0.2833333333333333 0  2.494782608695652 0.2833333333333333 0  2.511304347826087 0.2833333333333333 0  2.527826086956522 0.2833333333333333 0  2.544347826086956 0.2833333333333333 0  2.560869565217391 0.2833333333333333 0  2.577391304347826 0.2833333333333333 0  2.593913043478261 0.2833333333333333 0  2.610434782608696 0.2833333333333333 0  2.62695652173913 0.2833333333333333 0  2.643478260869565 0.2833333333333333 0  2.66 0.2833333333333333 0  2.676521739130435 0.2833333333333333 0  2.693043478260869 0.2833333333333333 0  2.709565217391304 0.2833333333333333 0  2.726086956521739 0.2833333333333333 0  2.742608695652174 0.2833333333333333 0  2.759130434782609 0.2833333333333333 0  2.775652173913044 0.2833333333333333 0  2.792173913043478 0.2833333333333333 0  2.808695652173913 0.2833333333333333 0  2.825217391304347 0.2833333333333333 0  2.841739130434783 0.2833333333333333 0  2.858260869565217 0.2833333333333333 0  2.28 0.3 0  2.296521739130434 0.3 0  2.31304347826087 0.3 0  2.329565217391304 0.3 0  2.346086956521739 0.3 0  2.362608695652174 0.3 0  2.379130434782609 0.3 0  2.395652173913044 0.3 0  2.412173913043478 0.3 0  2.428695652173913 0.3 0  2.445217391304348 0.3 0  2.461739130434782 0.3 0  2.478260869565217 0.3 0  2.494782608695652 0.3 0  2.511304347826087 0.3 0  2.527826086956522 0.3 0  2.544347826086956 0.3 0  2.560869565217391 0.3 0  2.577391304347826 0.3 0  2.593913043478261 0.3 0  2.610434782608696 0.3 0  2.62695652173913 0.3 0  2.643478260869565 0.3 0  2.66 0.3 0  2.676521739130435 0.3 0  2.693043478260869 0.3 0  2.709565217391304 0.3 0  2.726086956521739 0.3 0  2.742608695652174 0.3 0  2.759130434782609 0.3 0  2.775652173913044 0.3 0  2.792173913043478 0.3 0  2.808695652173913 0.3 0  2.825217391304347 0.3 0  2.841739130434783 0.3 0  2.858260869565217 0.3 0  2.874782608695652 0.3 0  2.296521739130434 0.3166666666666667 0  2.31304347826087 0.3166666666666667 0  2.329565217391304 0.3166666666666667 0  2.346086956521739 0.3166666666666667 0  2.362608695652174 0.3166666666666667 0  2.379130434782609 0.3166666666666667 0  2.395652173913044 0.3166666666666667 0  2.412173913043478 0.3166666666666667 0  2.428695652173913 0.3166666666666667 0  2.445217391304348 0.3166666666666667 0  2.461739130434782 0.3166666666666667 0  2.478260869565217 0.3166666666666667 0  2.494782608695652 0.3166666666666667 0  2.511304347826087 0.3166666666666667 0  2.527826086956522 0.3166666666666667 0  2.544347826086956 0.3166666666666667 0  2.560869565217391 0.3166666666666667 0  2.577391304347826 0.3166666666666667 0  2.593913043478261 0.3166666666666667 0  2.610434782608696 0.3166666666666667 0  2.62695652173913 0.3166666666666667 0  2.643478260869565 0.3166666666666667 0  2.66 0.3166666666666667 0  2.676521739130435 0.3166666666666667 0  2.693043478260869 0.3166666666666667 0  2.709565217391304 0.3166666666666667 0  2.726086956521739 0.3166666666666667 0  2.742608695652174 0.3166666666666667 0  2.759130434782609 0.3166666666666667 0  2.775652173913044 0.3166666666666667 0  2.792173913043478 0.3166666666666667 0  2.808695652173913 0.3166666666666667 0  2.825217391304347 0.3166666666666667 0  2.841739130434783 0.3166666666666667 0  2.858260869565217 0.3166666666666667 0  2.874782608695652 0.3166666666666667 0  2.891304347826087 0.3166666666666667 0  2.31304347826087 0.3333333333333333 0  2.329565217391304 0.3333333333333333 0  2.346086956521739 0.3333333333333333 0  2.362608695652174 0.3333333333333333 0  2.379130434782609 0.3333333333333333 0  2.395652173913044 0.3333333333333333 0  2.412173913043478 0.3333333333333333 0  2.428695652173913 0.3333333333333333 0  2.445217391304348 0.3333333333333333 0  2.461739130434782 0.3333333333333333 0  2.478260869565217 0.3333333333333333 0  2.494782608695652 0.3333333333333333 0  2.511304347826087 0.3333333333333333 0  2.527826086956522 0.3333333333333333 0  2.544347826086956 0.3333333333333333 0  2.560869565217391 0.3333333333333333 0  2.577391304347826 0.3333333333333333 0  2.593913043478261 0.3333333333333333 0  2.610434782608696 0.3333333333333333 0  2.62695652173913 0.3333333333333333 0  2.643478260869565 0.3333333333333333 0  2.66 0.3333333333333333 0  2.676521739130435 0.3333333333333333 0  2.693043478260869 0.3333333333333333 0  2.709565217391304 0.3333333333333333 0  2.726086956521739 0.3333333333333333 0  2.742608695652174 0.3333333333333333 0  2.759130434782609 0.3333333333333333 0  2.775652173913044 0.3333333333333333 0  2.792173913043478 0.3333333333333333 0  2.808695652173913 0.3333333333333333 0  2.825217391304347 0.3333333333333333 0  2.841739130434783 0.3333333333333333 0  2.858260869565217 0.3333333333333333 0  2.874782608695652 0.3333333333333333 0  2.891304347826087 0.3333333333333333 0  2.907826086956522 0.3333333333333333 0  2.329565217391304 0.35 0  2.346086956521739 0.35 0  2.362608695652174 0.35 0  2.379130434782609 0.35 0  2.395652173913044 0.35 0  2.412173913043478 0.35 0  2.428695652173913 0.35 0  2.445217391304348 0.35 0  2.461739130434782 0.35 0  2.478260869565217 0.35 0  2.494782608695652 0.35 0  2.511304347826087 0.35 0  2.527826086956522 0.35 0  2.544347826086956 0.35 0  2.560869565217391 0.35 0  2.577391304347826 0.35 0  2.593913043478261 0.35 0  2.610434782608696 0.35 0  2.62695652173913 0.35 0  2.643478260869565 0.35 0  2.66 0.35 0  2.676521739130435 0.35 0  2.693043478260869 0.35 0  2.709565217391304 0.35 0  2.726086956521739 0.35 0  2.742608695652174 0.35 0  2.759130434782609 0.35 0  2.775652173913044 0.35 0  2.792173913043478 0.35 0  2.808695652173913 0.35 0  2.825217391304347 0.35 0  2.841739130434783 0.35 0  2.858260869565217 0.35 0  2.874782608695652 0.35 0  2.891304347826087 0.35 0  2.907826086956522 0.35 0  2.924347826086957 0.35 0  2.346086956521739 0.3666666666666666 0  2.362608695652174 0.3666666666666666 0  2.379130434782609 0.3666666666666666 0  2.395652173913044 0.3666666666666666 0  2.412173913043478 0.3666666666666666 0  2.428695652173913 0.3666666666666666 0  2.445217391304348 0.3666666666666666 0  2.461739130434782 0.3
[...]
<PointData  Vectors="Displacement"> 
<DataArray  type="Float64"  Name="Displacement"  NumberOfComponents="3" format="ascii">7.0208355034208226e-05 5.5586249730796818e-03 0.0000000000000000e+00  2.9642065571060285e-05 5.5495203752270331e-03 0.0000000000000000e+00  2.2733282412491935e-05 5.5873876569375912e-03 0.0000000000000000e+00  8.6310281798832755e-05 4.7010916125187485e-03 0.0000000000000000e+00  1.0951621558559255e-04 4.7225253942006495e-03 0.0000000000000000e+00  6.6445166540560116e-05 4.6992282675129343e-03 0.0000000000000000e+00  4.5632457732176035e-05 4.6728335717456894e-03 0.0000000000000000e+00  1.2842688463126690e-04 4.7427865028828531e-03 0.0000000000000000e+00  8.4124624150672277e-05 4.7238892353562763e-03 0.0000000000000000e+00  1.4399743176069294e-04 4.7619688052422332e-03 0.0000000000000000e+00  9.8824628566223133e-05 4.7473666246364461e-03 0.0000000000000000e+00  1.5655973927536685e-04 4.7807353179571922e-03 0.0000000000000000e+00  1.1064097143240142e-04 4.7703482311361586e-03 0.0000000000000000e+00  1.6644333381586569e-04 4.7997799117875861e-03 0.0000000000000000e+00  1.1972940692221944e-04 4.7934730775150217e-03 0.0000000000000000e+00  1.7404507064766790e-04 4.8198496825276006e-03 0.0000000000000000e+00  1.2632190280158508e-04 4.8173875986005244e-03 0.0000000000000000e+00  1.7984973407721147e-04 4.8417030439049727e-03 0.0000000000000000e+00  1.3073301642031951e-04 4.8427522422131953e-03 0.0000000000000000e+00  1.8441784258551084e-04 4.8659825589606404e-03 0.0000000000000000e+00  1.3335725205182569e-04 4.8702630747083416e-03 0.0000000000000000e+00  1.8870369890153116e-04 4.8952955381916874e-03 0.0000000000000000e+00  1.3477002066872906e-04 4.9011634107413628e-03 0.0000000000000000e+00  1.9516256714262155e-04 4.9287996274102732e-03 0.0000000000000000e+00  1.3585990322624155e-04 4.9351436456661563e-03 0.0000000000000000e+00  1.9551158636485787e-04 4.9696582661235989e-03 0.0000000000000000e+00  1.3639757935009547e-04 4.9707854519774036e-03 0.0000000000000000e+00  1.9597029199110863e-04 5.0319049130241782e-03 0.0000000000000000e+00  1.3769992759601559e-04 5.0346998464896884e-03 0.0000000000000000e+00  1.7171943155872493e-04 5.1138029720404175e-03 0.0000000000000000e+00  1.3859490951128114e-04 5.1190229301879770e-03 0.0000000000000000e+00  1.4644329794152758e-04 5.1873879632463255e-03 0.0000000000000000e+00  1.0761920179126485e-04 5.1931385888244396e-03 0.0000000000000000e+00  1.2201520919088443e-04 5.2547944013495770e-03 0.0000000000000000e+00  8.0064830914880112e-05 5.2608662605088770e-03 0.0000000000000000e+00  9.9639348744943527e-05 5.3154827905193339e-03 0.0000000000000000e+00  5.6034896341651387e-05 5.3199461846578115e-03 0.0000000000000000e+00  8.0015340871465439e-05 5.3703563350701953e-03 0.0000000000000000e+00  3.5806480092621388e-05 5.3723553308288093e-03 0.0000000000000000e+00  6.3370324316013631e-05 5.4203844597229857e-03 0.0000000000000000e+00  1.9266294482360404e-05 5.4195708262529396e-03 0.0000000000000000e+00  4.9617880273625723e-05 5.4664694501140015e-03 0.0000000000000000e+00  6.0432819062807487e-06 5.4628590215707352e-03 0.0000000000000000e+00  3.8489893536324084e-05 5.5093361007487185e-03 0.0000000000000000e+00  -4.3743441731546646e-06 5.5031368993161758e-03 0.0000000000000000e+00  -1.2528232207779500e-05 5.5410070303631032e-03 0.0000000000000000e+00  -1.8872833242706751e-05 5.5768026340755391e-03 0.0000000000000000e+00  -2.3894110807435041e-05 5.6110388062647360e-03 0.0000000000000000e+00  -6.6011867984741308e-05 4.1879872722411851e-03 0.0000000000000000e+00  -4.8363842733166472e-05 4.2285321936466223e-03 0.0000000000000000e+00  -8.6413996240009908e-05 4.2035351241824668e-03 0.0000000000000000e+00  -1.0626376309612513e-04 4.1598445548218788e-03 0.0000000000000000e+00  -3.4564976192951123e-05 4.2753846048308860e-03 0.0000000000000000e+00  -7.2227749022026245e-05 4.2575374561678730e-03 0.0000000000000000e+00  -2.6855720038503654e-05 4.3298863822965805e-03 0.0000000000000000e+00  -7.3783427270672004e-05 4.3234038045282157e-03 0.0000000000000000e+00  -2.9005748197592319e-05 4.3881716194796323e-03 0.0000000000000000e+00  -7.5052373536450861e-05 4.3851189561169897e-03 0.0000000000000000e+00  -3.1788511326569066e-05 4.4467593858536951e-03 0.0000000000000000e+00  -7.6236093670658069e-05 4.4404144463422827e-03 0.0000000000000000e+00  -3.3879149851990346e-05 4.5079803487789406e-03 0.0000000000000000e+00  -6.9071173608687366e-05 4.4918890102037881e-03 0.0000000000000000e+00  -1.9749387314138498e-05 4.5599923306991457e-03 0.0000000000000000e+00  -5.4794984215861267e-05 4.5368033900913089e-03 0.0000000000000000e+00  9.7366750242397848e-08 4.6040302958854466e-03 0.0000000000000000e+00  -3.6014136558086356e-05 4.5778215269449011e-03 0.0000000000000000e+00  2.2804770695134536e-05 4.6416986873062749e-03 0.0000000000000000e+00  -1.5374531568417941e-05 4.6148023746107047e-03 0.0000000000000000e+00  5.2248982316124707e-06 4.6478033569542273e-03 0.0000000000000000e+00  2.4163417008335295e-05 4.6777663824639319e-03 0.0000000000000000e+00  4.0526657688651191e-05 4.7061840897103932e-03 0.0000000000000000e+00  5.4106659329248852e-05 4.7335975653685965e-03 0.0000000000000000e+00  6.4813597036913171e-05 4.7605785583353542e-03 0.0000000000000000e+00  7.2661676915412396e-05 4.7876732306786794e-03 0.0000000000000000e+00  7.7735225343608072e-05 4.8154332953559177e-03 0.0000000000000000e+00  8.0167857900234407e-05 4.8444337223725285e-03 0.0000000000000000e+00  8.0119286028833468e-05 4.8753011242819921e-03 0.0000000000000000e+00  7.7772497015234240e-05 4.9088202839813631e-03 0.0000000000000000e+00  7.3271524801459922e-05 4.9452528056959325e-03 0.0000000000000000e+00  6.6264170028594734e-05 4.9853754385741642e-03 0.0000000000000000e+00  5.7001029889553952e-05 5.0363185753364535e-03 0.0000000000000000e+00  5.7296850172696215e-05 5.1200439673557826e-03 0.0000000000000000e+00  5.7594063045406926e-05 5.2029534646968970e-03 0.0000000000000000e+00  3.0114719978708779e-05 5.2709576015075102e-03 0.0000000000000000e+00  6.0167151751823560e-06 5.3270132979730761e-03 0.0000000000000000e+00  -1.3540378203999920e-05 5.3759032420634054e-03 0.0000000000000000e+00  -2.8815438451332310e-05 5.4195250258499070e-03 0.0000000000000000e+00  -4.0440936023146279e-05 5.4595346391879017e-03 0.0000000000000000e+00  -4.9181245620376525e-05 5.4970040535250080e-03 0.0000000000000000e+00  -5.5796195352861206e-05 5.5325352518736390e-03 0.0000000000000000e+00  -6.0850201196421233e-05 5.5662521040173510e-03 0.0000000000000000e+00  -6.4953557925836390e-05 5.5989159135282785e-03 0.0000000000000000e+00  -6.9321034103281311e-05 5.6319329669273230e-03 0.0000000000000000e+00  -1.4783680797503197e-04 4.1025861270174218e-03 0.0000000000000000e+00  -1.2798988356599146e-04 4.1276130634465081e-03 0.0000000000000000e+00  -1.7216003245739740e-04 4.0966465516505852e-03 0.0000000000000000e+00  -1.4793406136762757e-04 4.1275777427203578e-03 0.0000000000000000e+00  -1.3021238596367207e-04 4.1794947993997215e-03 0.0000000000000000e+00  -1.3156071569222030e-04 4.2532751342738012e-03 0.0000000000000000e+00  -1.3204294184542874e-04 4.3219206842087252e-03 0.0000000000000000e+00  -1.3265240972173256e-04 4.3836455249733073e-03 0.0000000000000000e+00  -1.2551079609306935e-04 4.4303453580879703e-03 0.0000000000000000e+00  -1.1200247759140639e-04 4.4737774408163304e-03 0.0000000000000000e+00  -9.4291311585601622e-05 4.5145930021233301e-03 0.0000000000000000e+00  -7.4614342163243865e-05 4.5534872574736302e-03 0.0000000000000000e+00  -5.4394074773432930e-05 4.5903342593388297e-03 0.0000000000000000e+00  -3.4921229664064133e-05 4.6249838701308416e-03 0.0000000000000000e+00  -1.7257796140545753e-05 4.6578587297431868e-03 0.0000000000000000e+00  -2.0835070211103426e-06 4.6896617774626068e-03 0.0000000000000000e+00  1.0306909213039544e-05 4.7207760094762014e-03 0.0000000000000000e+00  1.9748551584644714e-05 4.7516204278089816e-03 0.0000000000000000e+00  2.6170992910198924e-05 4.7826278220485623e-03 0.0000000000000000e+00  2.9559364241635080e-05 4.8142593840546912e-03 0.0000000000000000e+00  2.9923659333383864e-05 4.8470162375454668e-03 0.0000000000000000e+00  2.7269740549633449e-05 4.8814550222618606e-03 0.0000000000000000e+00  2.1573874279987211e-05 4.9182022367437626e-03 0.0000000000000000e+00  1.2728350519616517e-05 4.9577536038732800e-03 0.0000000000000000e+00  4.3103162582340050e-07 5.0009854018466015e-03 0.0000000000000000e+00  -1.5325492373022704e-05 5.0499966114298323e-03 0.0000000000000000e+00  -2.4925962399156949e-05 5.1206411327098062e-03 0.0000000000000000e+00  -2.4821196879451149e-05 5.2032675753098615e-03 0.0000000000000000e+00  -2.4833597586831040e-05 5.2854710125100571e-03 0.0000000000000000e+00  -5.0046564217507047e-05 5.3359835975411267e-03 0.0000000000000000e+00  -6.7926722724659022e-05 5.3801586844760942e-03 0.0000000000000000e+00  -8.0628185643030734e-05 5.4193416337014197e-03 0.0000000000000000e+00  -8.9437343593871526e-05 5.4555989279596933e-03 0.0000000000000000e+00  -9.5370824653918181e-05 5.4901026198289505e-03 0.0000000000000000e+00  -9.9401729898249201e-05 5.5233751111172279e-03 0.0000000000000000e+00  -1.0209839098186120e-04 5.5550322995073830e-03 0.0000000000000000e+00  -1.0442672358442097e-04 5.5861624133686097e-03 0.0000000000000000e+00  -1.0819107056220729e-04 5.6199688306582968e-03 0.0000000000000000e+00  -1.1726169662293586e-04 5.6564689136801615e-03 0.0000000000000000e+00  -1.9740532315129489e-04 4.0935883611204300e-03 0.0000000000000000e+00  -1.9837701216288234e-04 4.1743303771785319e-03 0.0000000000000000e+00  -1.9875080871752432e-04 4.2524478828860303e-03 0.0000000000000000e+00  -1.9913230222799800e-04 4.3212802509131508e-03 0.0000000000000000e+00  -1.9880089931365182e-04 4.3871621964096082e-03 0.0000000000000000e+00  -1.7930702429685193e-04 4.4156949071341919e-03 0.0000000000000000e+00  -1.5714812851957115e-04 4.4529302016954372e-03 0.0000000000000000e+00  -1.3496500793752013e-04 4.4912488190236568e-03 0.0000000000000000e+00  -1.1339002420474559e-04 4.5294537473178527e-03 0.0000000000000000e+00  -9.2881812557577410e-05 4.5669515771422555e-03 0.0000000000000000e+00  -7.3992370514823445e-05 4.6034714938027101e-03 0.0000000000000000e+00  -5.7295547471340526e-05 4.6391136480981709e-03 0.0000000000000000e+00  -4.3222880332472529e-05 4.6741749350367187e-03 0.0000000000000000e+00  -3.2030545089704239e-05 4.7088808557012741e-03 0.0000000000000000e+00  -2.3887034575629913e-05 4.7435103249980808e-03 0.0000000000000000e+00  -1.8893220953509402e-05 4.7783865659919468e-03 0.0000000000000000e+00  -1.7111061659901071e-05 4.8138857745689736e-03 0.0000000000000000e+00  -1.8591279980420984e-05 4.8504423121753446e-03 0.0000000000000000e+00  -2.3401263209365607e-05 4.8885545200218743e-03 0.0000000000000000e+00  -3.1657150050615235e-05 4.9287834823622733e-03 0.0000000000000000e+00  -4.3579147329868443e-05 4.9716986303267865e-03 0.0000000000000000e+00  -5.9578318897362901e-05 5.0180535712847666e-03 0.0000000000000000e+00  -8.0266269331995678e-05 5.0686339466514720e-03 0.0000000000000000e+00  -1.0716452427885116e-04 5.1209773138828265e-03 0.0000000000000000e+00  -1.0686670156415671e-04 5.2037581715603321e-03 0.0000000000000000e+00  -1.0667395022232183e-04 5.2859304271872191e-03 0.0000000000000000e+00  -1.1731332797881608e-04 5.3451431719828283e-03 0.0000000000000000e+00  -1.2820166388685954e-04 5.3838039268172952e-03 0.0000000000000000e+00  -1.3568703913594481e-04 5.4178713674650769e-03 0.0000000000000000e+00  -1.4025964219985295e-04 5.4500007040095000e-03 0.0000000000000000e+00  -1.4227061770863360e-04 5.4813558201318845e-03 0.0000000000000000e+00  -1.4235530025267739e-04 5.5125311398594810e-03 0.0000000000000000e+00  -1.4097416615141978e-04 5.5417479169316396e-03 0.0000000000000000e+00  -1.3896888399637190e-04 5.5714507550515806e-03 0.0000000000000000e+00  -1.4139034691836301e-04 5.6062227130063199e-03 0.0000000000000000e+00  -1.4848908781573008e-04 5.6523684394367731e-03 0.0000000000000000e+00  -1.5010385477406949e-04 5.6921167734035856e-03 0.0000000000000000e+00  -2.7531986015616244e-04 4.1736545413178063e-03 0.0000000000000000e+00  -2.7567590640400396e-04 4.2518908785055482e-03 0.0000000000000000e+00  -2.7448467548013561e-04 4.3240836849373285e-03 0.0000000000000000e+00  -2.4969425489557460e-04 4.3625005912837616e-03 0.0000000000000000e+00  -2.2113413555880238e-04 4.3928777998670275e-03 0.0000000000000000e+00  -1.9582463517552799e-04 4.4282405604182352e-03 0.0000000000000000e+00  -1.7193752528795291e-04 4.4662213621971354e-03 0.0000000000000000e+00  -1.4970049169052532e-04 4.5050716799224311e-03 0.0000000000000000e+00  -1.2933245323623651e-04 4.5440331650330023e-03 0.0000000000000000e+00  -1.1112120613960617e-04 4.5827788731624824e-03 0.0000000000000000e+00  -9.5392852498369475e-05 4.6212630171327583e-03 0.0000000000000000e+00  -8.2429891716340002e-05 4.6595804015949491e-03 0.0000000000000000e+00  -7.2435055683043741e-05 4.6978367620598132e-03 0.0000000000000000e+00  -6.5553084456249639e-05 4.7361938311618387e-03 0.0000000000000000e+00  -6.1877986218761771e-05 4.7748737986448749e-03 0.0000000000000000e+00  -6.1472248291860349e-05 4.8141711348393410e-03 0.0000000000000000e+00  -6.4385508326430198e-05 4.8544513844333307e-03 0.0000000000000000e+00  -7.0670223559896601e-05 4.8961487525181402e-03 0.0000000000000000e+00  -8.0396409077271915e-05 4.9397610032938201e-03 0.0000000000000000e+00  -9.3669950417935502e-05 4.9858308323691503e-03 0.0000000000000000e+00  -1.1064674408000704e-04 5.0349827616110437e-03 0.0000000000000000e+00  -1.3151304267033887e-04 5.0877354641329199e-03 0.0000000000000000e+00  -1.5665559716245171e-04 5.1436741193631192e-03 0.0000000000000000e+00  -1.8683361225378881e-04 5.2046441009233049e-03 0.0000000000000000e+00  -1.8599117136061362e-04 5.2873341160579309e-03 0.0000000000000000e+00  -1.8482867783208424e-04 5.3539342735462051e-03 0.0000000000000000e+00  -1.8830465994334645e-04 5.3848979480896871e-03 0.0000000000000000e+00  -1.9050728730353659e-04 5.4139837451450427e-03 0.0000000000000000e+00  -1.9111914863357857e-04 5.4421532202379008e-03 0.0000000000000000e+00  -1.8987392714012215e-04 5.4699017324560846e-03 0.0000000000000000e+00  -1.8562696039199826e-04 5.4990840891064327e-03 0.0000000000000000e+00  -1.7844073717877853e-04 5.5262685904686427e-03 0.0000000000000000e+00  -1.7446332951574737e-04 5.5551107832105808e-03 0.0000000000000000e+00  -1.8151584168098146e-04 5.6056914233344841e-03 0.0000000000000000e+00  -1.8293022984765527e-04 5.6508816860943636e-03 0.0000000000000000e+00  -1.8440552569113353e-04 5.6910149452262995e-03 0.0000000000000000e+00  -1.8482160032917444e-04 5.7273836582370152e-03 0.0000000000000000e+00  -3.5440193284957570e-04 4.2518039878653279e-03 0.0000000000000000e+00  -3.2189579363531680e-04 4.2964847212707520e-03 0.0000000000000000e+00  -2.8737823770773400e-04 4.3315289412582374e-03 0.0000000000000000e+00  -2.5629337928231686e-04 4.3647413342973972e-03 0.0000000000000000e+00  -2.2925826584127001e-04 4.4014620671177906e-03 0.0000000000000000e+00  -2.0495499089183042e-04 4.4403944311001116e-03 0.0000000000000000e+00  -1.8292215916603400e-04 4.4806385930850120e-03 0.0000000000000000e+00  -1.6317704863797505e-04 4.5215400711484275e-03 0.0000000000000000e+00  -1.4587435146181350e-04 4.5627628065045911e-03 0.0000000000000000e+00  -1.3121901574475762e-04 4.6041812716684774e-03 0.0000000000000000e+00  -1.1941042786466283e-04 4.6457782728604952e-03 0.0000000000000000e+00  -1.1060631214398827e-04 4.6875598216543348e-03 0.0000000000000000e+00  -1.0491636253108895e-04 4.7295800932723531e-03 0.0000000000000000e+00  -1.0240307794218309e-04 4.7719618834270987e-03 0.0000000000000000e+00  -1.0309745183073422e-04 4.8149177891000875e-03 0.0000000000000000e+00  -1.0700856753016189e-04 4.8587368364306190e-03 0.0000000000000000e+00  -1.1412452818063227e-04 4.9037719224773848e-03 0.0000000000000000e+00  -1.2440845869157212e-04 4.9504301745433455e-03 0.0000000000000000e+00  -1.3779017408065665e-04 4.9991577028316450e-03 0.0000000000000000e+00  -1.5414694821655451e-04 5.0504270876269618e-03 0.0000000000000000e+00  -1.7326837004081138e-04 5.1046243534410424e-03 0.0000000000000000e+00  -1.9487398527466616e-04 5.1618847612574341e-03 0.0000000000000000e+00  -2.1854642530377415e-04 5.2232778600177828e-03 0.0000000000000000e+00  -2.4302352555516724e-04 5.2900600470488727e-03 0.0000000000000000e+00  -2.4063478808375276e-04 5.3565536917959010e-03 0.0000000000000000e+00  -2.4030701346817670e-04 5.3836456445614323e-03 0.0000000000000000e+00  -2.4101815315307170e-04 5.4084747144777763e-03 0.0000000000000000e+00  -2.4114743995950959e-04 5.4324955781957680e-03 0.0000000000000000e+00  -2.3803836661531315e-04 5.4577395647405031e-03 0.0000000000000000e+00  -2.3639384815649900e-04 5.4819819617312445e-03 0.0000000000000000e+00  -2.2061161781670527e-04 5.5097279311750310e-03 0.0000000000000000e+00  -2.2095988283727552e-04 5.5550360926053411e-03 0.0000000000000000e+00  -2.2234000479461982e-04 5.6045803149813479e-03 0.0000000000000000e+00  -2.2360269025302338e-04 5.6498059215175653e-03 0.0000000000000000e+00  -2.2391318913833022e-04 5.6913102893537699e-03 0.0000000000000000e+00  -2.1488669172082701e-04 5.7377747479188234e-03 0.0000000000000000e+00  -2.0974380898748708e-04 5.7879028715044399e-03 0.0000000000000000e+00  -3.4932432215606461e-04 4.2616146381537125e-03 0.0000000000000000e+00  -3.1464966806973925e-04 4.2981107263714586e-03 0.0000000000000000e+00  -2.8413604901100586e-04 4.3347106509754882e-03 0.0000000000000000e+00  -2.5754404196120303e-04 4.3735752377552445e-03 0.0000000000000000e+00  -2.3390983021571359e-04 4.4142962960500758e-03 0.0000000000000000e+00  -2.1281785984684245e-04 4.4564196152164044e-03 0.0000000000000000e+00  -1.9417495233350890e-04 4.4995461324403617e-03 0.0000000000000000e+00  -1.7806400372837890e-04 4.5433957585897088e-03 0.0000000000000000e+00  -1.6463401210071893e-04 4.5878087192972377e-03 0.0000000000000000e+00  -1.5404822708245966e-04 4.6326999774457421e-03 0.0000000000000000e+00  -1.4643531702967109e-04 4.6779773525208040e-03 0.0000000000000000e+00  -1.4186774799880125e-04 4.7235811641024731e-03 0.0000000000000000e+00  -1.4036284367188612e-04 4.7695285410083001e-03 0.0000000000000000e+00  -1.4190571094596240e-04 4.8159522015457680e-03 0.0000000000000000e+00  -1.4645188722143756e-04 4.8630585090036933e-03 0.0000000000000000e+00  -1.5391390809066263e-04 4.9111021886186603e-03 0.0000000000000000e+00  -1.6414305519409271e-04 4.9603736561864599e-03 0.0000000000000000e+00  -1.7690660165073301e-04 5.0111814148962172e-03 0.0000000000000000e+00  -1.9185344184257579e-04 5.0638215526226356e-03 0.0000000000000000e+00  -2.0845926773546079e-04 5.1185025156455823e-03 0.0000000000000000e+00  -2.2594692376912579e-04 5.1752988807938702e-03 0.0000000000000000e+00  -2.4305640022797721e-04 5.2345041945493099e-03 0.0000000000000000e+00  -2.5743206426683061e-04 5.2961106329630315e-03 0.0000000000000000e+00  -2.6567847554649778e-04 5.3577176228268809e-03 0.0000000000000000e+00  -2.6574395502448498e-04 5.3837399759134215e-03 0.0000000000000000e+00  -2.6568691297803709e-04 5.4085149445806694e-03 0.0000000000000000e+00  -2.6556131414702132e-04 5.4323420338831894e-03 0.0000000000000000e+00  -2.6513058258367686e-04 5.4565104867020054e-03 0.0000000000000000e+00  -2.6454439704468448e-04 5.4819244338139787e-03 0.0000000000000000e+00  -2.6436714701373636e-04 5.5098058407925758e-03 0.0000000000000000e+00  -2.6517300889113707e-04 5.5539726129507820e-03 0.0000000000000000e+00  -2.6686896678623231e-04 5.6033732100839060e-03 0.0000000000000000e+00  -2.6818331511657830e-04 5.6500555038915806e-03 0.0000000000000000e+00  -2.5438370486109192e-04 5.6964354407106482e-03 0.0000000000000000e+00  -2.4545422827132945e-04 5.7432432038729319e-03 0.0000000000000000e+00  -2.3880133292598528e-04 5.7955599035982297e-03 0.0000000000000000e+00  -2.3392014705870870e-04 5.8525182590658201e-03 0.0000000000000000e+00  -3.3337284957480630e-04 4.2655250014948555e-03 0.0000000000000000e+0