<?xml version="1.0"?>
<VTKFile type="UnstructuredGrid"  version="0.1"  >
<UnstructuredGrid>
<Piece  NumberOfPoints="640" NumberOfCells="1181">
<Points>
<DataArray  type="Float64"  NumberOfComponents="3"  format="ascii">2.973913043478261 0 0  2.990434782608696 0 0  2.990434782608696 0.01666666666666667 0  2.973913043478261 0.01666666666666667 0  3.006956521739131 0 0  3.006956521739131 0.01666666666666667 0  3.023478260869565 0 0  3.023478260869565 0.01666666666666667 0  3.04 0 0  3.04 0.01666666666666667 0  3.056521739130435 0 0  3.056521739130435 0.01666666666666667 0  3.073043478260869 0 0  3.073043478260869 0.01666666666666667 0  3.089565217391304 0 0  3.089565217391304 0.01666666666666667 0  3.106086956521739 0 0  3.106086956521739 0.01666666666666667 0  3.122608695652174 0 0  3.122608695652174 0.01666666666666667 0  3.139130434782609 0 0  3.139130434782609 0.01666666666666667 0  3.155652173913043 0 0  3.155652173913043 0.01666666666666667 0  3.172173913043478 0 0  3.172173913043478 0.01666666666666667 0  3.188695652173913 0 0  3.188695652173913 0.01666666666666667 0  3.205217391304347 0 0  3.205217391304347 0.01666666666666667 0  3.221739130434782 0 0  3.221739130434782 0.01666666666666667 0  3.238260869565217 0 0  3.238260869565217 0.01666666666666667 0  2.990434782608696 0.03333333333333333 0  2.973913043478261 0.03333333333333333 0  3.006956521739131 0.03333333333333333 0  3.023478260869565 0.03333333333333333 0  3.04 0.03333333333333333 0  3.056521739130435 0.03333333333333333 0  3.073043478260869 0.03333333333333333 0  3.089565217391304 0.03333333333333333 0  3.106086956521739 0.03333333333333333 0  3.122608695652174 0.03333333333333333 0  3.139130434782609 0.03333333333333333 0  3.155652173913043 0.03333333333333333 0  3.172173913043478 0.03333333333333333 0  3.188695652173913 0.03333333333333333 0  3.205217391304347 0.03333333333333333 0  3.221739130434782 0.03333333333333333 0  3.238260869565217 0.03333333333333333 0  3.254782608695652 0.03333333333333333 0  2.990434782608696 0.05 0  3.006956521739131 0.05 0  3.023478260869565 0.05 0  3.04 0.05 0  3.056521739130435 0.05 0  3.073043478260869 0.05 0  3.089565217391304 0.05 0  3.106086956521739 0.05 0  3.122608695652174 0.05 0  3.139130434782609 0.05 0  3.155652173913043 0.05 0  3.172173913043478 0.05 0  3.188695652173913 0.05 0  3.205217391304347 0.05 0  3.221739130434782 0.05 0  3.238260869565217 0.05 0  3.254782608695652 0.05 0  3.271304347826087 0.05 0  3.006956521739131 0.06666666666666667 0  2.990434782608696 0.06666666666666667 0  3.023478260869565 0.06666666666666667 0  3.04 0.06666666666666667 0  3.056521739130435 0.06666666666666667 0  3.073043478260869 0.06666666666666667 0  3.089565217391304 0.06666666666666667 0  3.106086956521739 0.06666666666666667 0  3.122608695652174 0.06666666666666667 0  3.139130434782609 0.06666666666666667 0  3.155652173913043 0.06666666666666667 0  3.172173913043478 0.06666666666666667 0  3.188695652173913 0.06666666666666667 0  3.205217391304347 0.06666666666666667 0  3.221739130434782 0.06666666666666667 0  3.238260869565217 0.06666666666666667 0  3.254782608695652 0.06666666666666667 0  3.271304347826087 0.06666666666666667 0  3.287826086956521 0.06666666666666667 0  3.006956521739131 0.08333333333333333 0  3.023478260869565 0.08333333333333333 0  3.04 0.08333333333333333 0  3.056521739130435 0.08333333333333333 0  3.073043478260869 0.08333333333333333 0  3.089565217391304 0.08333333333333333 0  3.106086956521739 0.08333333333333333 0  3.122608695652174 0.08333333333333333 0  3.139130434782609 0.08333333333333333 0  3.155652173913043 0.08333333333333333 0  3.172173913043478 0.08333333333333333 0  3.188695652173913 0.08333333333333333 0  3.205217391304347 0.08333333333333333 0  3.221739130434782 0.08333333333333333 0  3.238260869565217 0.08333333333333333 0  3.254782608695652 0.08333333333333333 0  3.271304347826087 0.08333333333333333 0  3.287826086956521 0.08333333333333333 0  3.304347826086957 0.08333333333333333 0  3.023478260869565 0.1 0  3.006956521739131 0.1 0  3.04 0.1 0  3.056521739130435 0.1 0  3.073043478260869 0.1 0  3.089565217391304 0.1 0  3.106086956521739 0.1 0  3.122608695652174 0.1 0  3.139130434782609 0.1 0  3.155652173913043 0.1 0  3.172173913043478 0.1 0  3.188695652173913 0.1 0  3.205217391304347 0.1 0  3.221739130434782 0.1 0  3.238260869565217 0.1 0  3.254782608695652 0.1 0  3.271304347826087 0.1 0  3.287826086956521 0.1 0  3.304347826086957 0.1 0  3.320869565217391 0.1 0  3.023478260869565 0.1166666666666667 0  3.04 0.1166666666666667 0  3.056521739130435 0.1166666666666667 0  3.073043478260869 0.1166666666666667 0  3.089565217391304 0.1166666666666667 0  3.106086956521739 0.1166666666666667 0  3.122608695652174 0.1166666666666667 0  3.139130434782609 0.1166666666666667 0  3.155652173913043 0.1166666666666667 0  3.172173913043478 0.1166666666666667 0  3.188695652173913 0.1166666666666667 0  3.205217391304347 0.1166666666666667 0  3.221739130434782 0.1166666666666667 0  3.238260869565217 0.1166666666666667 0  3.254782608695652 0.1166666666666667 0  3.271304347826087 0.1166666666666667 0  3.287826086956521 0.1166666666666667 0  3.304347826086957 0.1166666666666667 0  3.320869565217391 0.1166666666666667 0  3.337391304347826 0.1166666666666667 0  3.04 0.1333333333333333 0  3.023478260869565 0.1333333333333333 0  3.056521739130435 0.1333333333333333 0  3.073043478260869 0.1333333333333333 0  3.089565217391304 0.1333333333333333 0  3.106086956521739 0.1333333333333333 0  3.122608695652174 0.1333333333333333 0  3.139130434782609 0.1333333333333333 0  3.155652173913043 0.1333333333333333 0  3.172173913043478 0.1333333333333333 0  3.188695652173913 0.1333333333333333 0  3.205217391304347 0.1333333333333333 0  3.221739130434782 0.1333333333333333 0  3.238260869565217 0.1333333333333333 0  3.254782608695652 0.1333333333333333 0  3.271304347826087 0.1333333333333333 0  3.287826086956521 0.1333333333333333 0  3.304347826086957 0.1333333333333333 0  3.320869565217391 0.1333333333333333 0  3.337391304347826 0.1333333333333333 0  3.353913043478261 0.1333333333333333 0  3.04 0.15 0  3.056521739130435 0.15 0  3.073043478260869 0.15 0  3.089565217391304 0.15 0  3.106086956521739 0.15 0  3.122608695652174 0.15 0  3.139130434782609 0.15 0  3.155652173913043 0.15 0  3.172173913043478 0.15 0  3.188695652173913 0.15 0  3.205217391304347 0.15 0  3.221739130434782 0.15 0  3.238260869565217 0.15 0  3.254782608695652 0.15 0  3.271304347826087 0.15 0  3.287826086956521 0.15 0  3.304347826086957 0.15 0  3.320869565217391 0.15 0  3.337391304347826 0.15 0  3.353913043478261 0.15 0  3.370434782608696 0.15 0  3.056521739130435 0.1666666666666667 0  3.073043478260869 0.1666666666666667 0  3.089565217391304 0.1666666666666667 0  3.106086956521739 0.1666666666666667 0  3.122608695652174 0.1666666666666667 0  3.139130434782609 0.1666666666666667 0  3.155652173913043 0.1666666666666667 0  3.172173913043478 0.1666666666666667 0  3.188695652173913 0.1666666666666667 0  3.205217391304347 0.1666666666666667 0  3.221739130434782 0.1666666666666667 0  3.238260869565217 0.1666666666666667 0  3.254782608695652 0.1666666666666667 0  3.271304347826087 0.1666666666666667 0  3.287826086956521 0.1666666666666667 0  3.304347826086957 0.1666666666666667 0  3.320869565217391 0.1666666666666667 0  3.337391304347826 0.1666666666666667 0  3.353913043478261 0.1666666666666667 0  3.370434782608696 0.1666666666666667 0  3.386956521739131 0.1666666666666667 0  3.073043478260869 0.1833333333333333 0  3.089565217391304 0.1833333333333333 0  3.106086956521739 0.1833333333333333 0  3.122608695652174 0.1833333333333333 0  3.139130434782609 0.1833333333333333 0  3.155652173913043 0.1833333333333333 0  3.172173913043478 0.1833333333333333 0  3.188695652173913 0.1833333333333333 0  3.205217391304347 0.1833333333333333 0  3.221739130434782 0.1833333333333333 0  3.238260869565217 0.1833333333333333 0  3.254782608695652 0.1833333333333333 0  3.271304347826087 0.1833333333333333 0  3.287826086956521 0.1833333333333333 0  3.304347826086957 0.1833333333333333 0  3.320869565217391 0.1833333333333333 0  3.337391304347826 0.1833333333333333 0  3.353913043478261 0.1833333333333333 0  3.370434782608696 0.1833333333333333 0  3.386956521739131 0.1833333333333333 0  3.403478260869565 0.1833333333333333 0  3.089565217391304 0.2 0  3.106086956521739 0.2 0  3.122608695652174 0.2 0  3.139130434782609 0.2 0  3.155652173913043 0.2 0  3.172173913043478 0.2 0  3.188695652173913 0.2 0  3.205217391304347 0.2 0  3.221739130434782 0.2 0  3.238260869565217 0.2 0  3.254782608695652 0.2 0  3.271304347826087 0.2 0  3.287826086956521 0.2 0  3.304347826086957 0.2 0  3.320869565217391 0.2 0  3.337391304347826 0.2 0  3.353913043478261 0.2 0  3.370434782608696 0.2 0  3.386956521739131 0.2 0  3.403478260869565 0.2 0  3.419999999999999 0.2 0  3.106086956521739 0.2166666666666667 0  3.122608695652174 0.2166666666666667 0  3.139130434782609 0.2166666666666667 0  3.155652173913043 0.2166666666666667 0  3.172173913043478 0.2166666666666667 0  3.188695652173913 0.2166666666666667 0  3.205217391304347 0.2166666666666667 0  3.221739130434782 0.2166666666666667 0  3.238260869565217 0.2166666666666667 0  3.254782608695652 0.2166666666666667 0  3.271304347826087 0.2166666666666667 0  3.287826086956521 0.2166666666666667 0  3.304347826086957 0.2166666666666667 0  3.320869565217391 0.2166666666666667 0  3.337391304347826 0.2166666666666667 0  3.353913043478261 0.2166666666666667 0  3.370434782608696 0.2166666666666667 0  3.386956521739131 0.2166666666666667 0  3.403478260869565 0.2166666666666667 0  3.419999999999999 0.2166666666666667 0  3.436521739130435 0.2166666666666667 0  3.122608695652174 0.2333333333333333 0  3.139130434782609 0.2333333333333333 0  3.155652173913043 0.2333333333333333 0  3.172173913043478 0.2333333333333333 0  3.188695652173913 0.2333333333333333 0  3.205217391304347 0.2333333333333333 0  3.221739130434782 0.2333333333333333 0  3.238260869565217 0.2333333333333333 0  3.254782
[...]
<CellData  Scalars="rho_bar"> 
<DataArray  type="Float64"  Name="rho_bar"  format="ascii">7.2234138780074086e-01   6.9583561934936544e-01   7.2034917938985588e-01   6.9556028729383157e-01   7.2151592609440518e-01   6.9862079138047850e-01   7.2632767255913544e-01   7.0567653930912466e-01   7.3167749140042426e-01   7.1483564788476295e-01   7.3096327495950664e-01   7.2019989472368273e-01   7.1656228339961614e-01   7.1418992043088170e-01   6.8057101856406110e-01   6.8932312433485488e-01   6.1387466354919606e-01   6.3770865260568277e-01   5.0754966336886398e-01   5.5058019346871745e-01   3.6412991411395557e-01   4.2403225188749682e-01   2.1514780297613995e-01   2.7504869051354652e-01   1.0570748899003195e-01   1.4633789938220809e-01   4.7265806596599853e-02   6.7520135162157394e-02   2.1241449629191445e-02   2.9989590982291904e-02   1.0140277231347266e-02   1.3857113031305773e-02   5.8377788485106474e-01   4.8964530209521590e-01   5.9759645003743511e-01   5.1051456555097352e-01   6.1734943780962659e-01   5.3932765119299075e-01   6.4138148029701303e-01   5.7439864415855679e-01   6.6457996508846118e-01   6.1063506576336690e-01   6.7926434442318451e-01   6.3974891174000925e-01   6.7840025862229536e-01   6.5381750702541164e-01   6.5651401315138647e-01   6.4777372010097223e-01   6.0840982067684024e-01   6.1834708114707226e-01   5.2826308204550043e-01   5.6196428532629572e-01   4.1332692648694680e-01   4.7415088176900178e-01   2.7629649029800291e-01   3.5520915256534724e-01   1.5236425078598820e-01   2.2382241529434158e-01   7.1743668966289142e-02   1.1652655487082261e-01   3.1755770704726217e-02   5.3142957807484743e-02   1.4442648661342259e-02   2.3461603106940870e-02   1.0844011258795269e-02   3.0726401558900945e-01   3.4698046782104969e-01   2.4727133506045265e-01   4.0010984326691640e-01   3.0058913951789273e-01   4.6259175241888945e-01   3.6925470900843743e-01   5.2383566004513782e-01   4.4427517285204177e-01   5.7123030120176188e-01   5.1024224250734485e-01   5.9719235781588875e-01   5.5483383192252167e-01   6.0059987618665522e-01   5.7507224000824553e-01   5.8329996347981516e-01   5.7446979003625354e-01   5.4606631908035397e-01   5.5730706368566485e-01   4.8533780296367363e-01   5.2343174278923799e-01   3.9460971493505675e-01   4.6536239382199907e-01   2.7632850082253579e-01   3.7275748254257024e-01   1.5792588355550885e-01   2.5079304642847827e-01   7.4603617410061676e-02   1.3536722651554822e-01   3.2084485702064874e-02   6.0959185018085595e-02   1.4061708162096148e-02   2.5696119431983071e-02   1.1311303025853358e-02   1.4517271573705767e-01   9.6178393620604541e-02   2.0308790422980641e-01   1.4166320541175548e-01   2.8340841930345068e-01   2.1230529285806424e-01   3.7331339866561836e-01   3.0319303123485136e-01   4.4981942582856754e-01   3.9172344641042173e-01   4.9871304953942258e-01   4.5487863746442980e-01   5.2182201513245008e-01   4.8821741280330933e-01   5.2937402686192747e-01   5.0251901570571378e-01   5.3055417374921632e-01   5.1149597028563665e-01   5.2590560722571034e-01   5.2171914320283153e-01   5.0399869099399097e-01   5.2648922874103055e-01   4.4548618208263624e-01   5.0686090572707720e-01   3.3905583184984156e-01   4.4066827006497455e-01   2.0663162572017477e-01   3.2170068702184479e-01   9.8922919333073789e-02   1.8405979061375349e-01   4.0749509108200493e-02   8.3065705794168110e-02   1.6750379140000524e-02   3.3331132579939492e-02   1.3760418126564426e-02   6.7100456659548405e-02   1.1319071910101577e-01   8.2972248769181856e-02   1.8911705374020227e-01   1.4715876379948556e-01   2.8495948371216423e-01   2.3948746157854919e-01   3.6806435979669072e-01   3.3063463082085853e-01   4.1529639684719249e-01   3.8633591952555779e-01   4.3143620124562126e-01   4.0247166013186386e-01   4.3647824604800073e-01   3.9953748238469095e-01   4.4968878817723512e-01   4.0221076855000615e-01   4.7892365057544750e-01   4.2629299156112382e-01   5.1439048570347423e-01   4.7102971170370872e-01   5.3141141746396814e-01   5.1645856695788828e-01   5.0342129753743792e-01   5.3284966003619405e-01   4.1419451533282275e-01   4.9570696870856712e-01   2.7452282428008290e-01   3.9330890718944789e-01   1.3866030326269665e-01   2.4576386364775399e-01   5.6631067883389175e-02   1.1666257406606773e-01   2.2046313219199653e-02   4.6247803222951897e-02   1.8078379599152528e-02   9.2462562308450444e-02   7.5134625570177832e-02   1.7247719225696501e-01   1.4784550407148975e-01   2.7161611941778696e-01   2.4911283814820254e-01   3.4297704271989671e-01   3.3191814136916287e-01   3.5955375800789119e-01   3.5419866538363082e-01   3.3695497910665212e-01   3.2329413058303524e-01   3.0809680326561512e-01   2.7656066961804704e-01   2.9893670490343388e-01   2.4630532657492565e-01   3.2284343321520376e-01   2.4828649464188779e-01   3.8080199698409212e-01   2.8870304952320669e-01   4.5533973897152569e-01   3.6396617662049663e-01   5.1254525588477484e-01   4.5003644803514153e-01   5.2187579741593615e-01   5.0927194296288658e-01   4.6497467272993881e-01   5.1270880659770734e-01   3.4002340262372188e-01   4.4417631754825943e-01   1.8896497870063012e-01   3.0848849150120844e-01   8.0415275022160768e-02   1.6056413725238400e-01   3.0329672894388982e-02   6.5382631745011272e-02   2.4529233516315259e-02   1.1470230830990849e-01   2.1674835589080899e-01   2.0392014864446842e-01   3.1975004302962706e-01   3.1777791094261354e-01   3.6041356083645443e-01   3.7372363383807100e-01   3.2162242220506793e-01   3.3862214449485328e-01   2.4464709349527897e-01   2.4772048793818841e-01   1.7957669293536593e-01   1.6412410354551646e-01   1.4565905750315955e-01   1.1613313232519033e-01   1.4325698696991210e-01   9.9766425314546270e-02   1.7371925197294455e-01   1.0965986188349454e-01   2.4248910459443898e-01   1.5006287837669557e-01   3.4434271973473918e-01   2.3040354700457649e-01   4.4659151621547477e-01   3.4416497933773865e-01   5.0471217801263835e-01   4.5115519941363597e-01   4.9084244183430226e-01   5.0382055257478420e-01   3.9630743765414966e-01   4.7713648671155034e-01   2.4603931296953421e-01   3.6738349722132152e-01   1.1241163702101105e-01   2.1219369638049326e-01   4.1956257583376552e-02   9.0740496964463235e-02   3.3267297114304248e-02   3.1194810887441654e-01   3.0886308048045763e-01   3.9661859694427720e-01   4.0737125438916494e-01   3.8067811539144997e-01   4.0583322907126179e-01   2.7604708559534580e-01   3.0239524561277686e-01   1.6026784130452659e-01   1.7018461592331011e-01   8.9024433172897113e-02   8.4856707344137125e-02   5.7380995437837277e-02   4.7468444056651488e-02   4.7873804196486104e-02   3.4277746225636369e-02   5.3184453150595015e-02   3.3247609363389760e-02   7.6444593270888622e-02   4.2800917369464939e-02   1.3086368851740932e-01   6.9932759262308158e-02   2.3204227761912471e-01   1.3213224686688629e-01   3.6560180307127238e-01   2.4628634200395313e-01   4.7206193440398664e-01   3.8635340479925556e-01   5.0249803581885144e-01   4.8443603748434400e-01   4.4242091935241540e-01   4.9797023775724536e-01   3.0343487383103473e-01   4.1754645667631773e-01   1.5029048762989636e-01   2.6511975740003568e-01   5.7115706163832575e-02   1.2106944480489340e-01   4.4830116887408331e-02   4.1580739906694791e-01   4.4025438391605698e-01   4.5229673355875327e-01   3.5091742480488725e-01   3.7339355764273052e-01   2.0169320475063293e-01   2.2159499283992429e-01   9.0133195149987688e-02   9.6727962435218584e-02   3.9956508495091199e-02   3.9159543261022701e-02   2.1948521197183383e-02   1.9133876419655981e-02   1.6239775475147766e-02   1.2563258504077636e-02   1.6181992745467600e-02   1.1112739681956840e-02   2.1185994823497797e-02   1.2909375939961783e-02   3.5370375193843076e-02   1.9209502079340499e-02   7.1462371848504846e-02   3.5784524284447790e-02   1.5448809887301199e-01   7.8968745191457135e-02   2.9474719850714415e-01   1.7730481931772532e-01   4.3569022207890251e-01   3.2848169272125688e-01   5.0421319378743934e-01   4.5974065511003837e-01   4.7576689732413113e-01   5.0732859363894400e-01   3.5442350269559941e-01   4.5527222187312510e-01   1.9213305313178056e-01   3.1538450320073336e-01   7.7268352188729197e-02   1.5751869934104329e-01   6.1102239273297498e-02   3.9850369289069820e-01   2.5241053499767546e-01   2.6366404961131384e-01   1.1362569613766052e-01   1.2129992012670752e-01   4.2319724318077720e-02   4.4275213146144188e-02   1.7150421329328470e-02   1.6833415215574139e-02   9.0440311600599576e-03   8.1640763920965281e-03   6.4260778391127546e-03   5.3017426374076379e-03   6.0001000225505122e-03   4.5077370805654748e-03   7.1411947411343171e-03   4.8628844954210449e-03   1.0619664490221250e-02   6.5030517484696657e-03   1.9565056301870675e-02   1.0675040634474785e-02   4.3766862467971596e-02   2.1500865997491948e-02   1.0781985958836154e-01   5.1825009661475872e-02   2.3815051494092745e-01   1.3119851296418961e-01   3.9645805430703251e-01   2.7690085671477138e-01   4.9529283385968831e-01   4.2807159560253905e-01   4.9627774786923284e-01   5.0484473813466268e-01   3.9894611853424372e-01   4.8191582287936069e-01   2.3973620962326023e-01   3.6418705915761607e-01   1.0504926965147106e-01   2.0249359150592675e-01   8.4061115697188493e-02   1.3094997763344735e-01   4.8758045959226073e-02   4.9801783880018581e-02   1.7455832250558127e-02   1.7612075063951689e-02   7.4428743261286115e-03   7.2304147959764975e-03   4.1301766673379455e-03   3.7984212516486921e-03   2.9732785265820369e-03   2.5612891010815581e-03   2.6998740487893520e-03   2.1632552346543396e-03   3.0114992706497729e-03   2.2328539319132821e-03   4.0507422733472047e-03   2.7606717576977406e-03   6.5319219158642668e-03   4.0433851400913882e-03   1.2707382243072185e-02   7.0288588997863069e-03   2.9784675090596704e-02   1.4669915926824944e-02   7.8320542321262607e-02   3.6518833791484955e-02   1.9059545999871400e-01   9.8094726984231925e-02   3.5173572908131917e-01   2.2778117949226068e-01   4.7542329770896286e-01   3.8770489367154354e-01   5.0670767393993710e-01   4.9163476744881413e-01   4.3882742718940781e-01   4.9990559601658430e-01   2.9257193570153012e-01   4.1048281670874581e-01   1.4127120241355512e-01   2.5399651886273544e-01   1.1434107676029738e-01   1.7888744667804147e-02   7.0996659568196268e-03   6.9816774697240153e-03   3.4499947810505741e-03   3.3245718713802797e-03   2.0909180423127360e-03   1.9440994821599824e-03   1.5589560489343336e-03   1.3812726855372682e-03   1.4052644439567804e-03   1.1762104703938749e-03   1.5053608582776292e-03   1.1842186742804946e-03   1.8860557167567149e-03   1.3886525155283747e-03   2.7377437868540701e-03   1.8726124771528626e-03   4.6142824059886454e-03   2.8919376706801748e-03   9.1510768191229372e-03   5.1552728679352027e-03   2.1551060971003465e-02   1.0787160002838664e-02   5.7550345743405978e-02   2.6632298333745964e-02   1.4849833253296027e-01   7.2565694168106418e-02   3.0169517634100729e-01   1.8081367612506194e-01   4.4577471673463986e-01   3.4026692650951390e-01   5.0816625590831255e-01   4.6893155049044177e-01   4.7164262892564274e-01   5.0882741089037642e-01   3.4537531359280732e-01   4.4986477291542931e-01   1.8498218534799579e-01   3.0762761459800814e-01   1.5269360166063517e-01   3.1512821452070504e-03   1.7605837647999435e-03   1.6920739154139975e-03   1.1616611023929123e-03   1.0888191820756430e-03   8.9904755539032177e-04   8.1199259653586724e-04   8.1191249790772441e-04   7.0028433736249722e-04   8.4838944444976666e-04   6.9539297409777041e-04   1.0127590053231922e-03   7.8702751664432502e-04   1.3647713973161241e-03   1.0021159638344262e-03   2.0667055882164385e-03   1.4226219937326732e-03   3.5397116388286342e-03   2.2519441002861193e-03   6.9701651123676954e-03   4.0187090935681494e-03   1.6023933923113326e-02   8.2406416140642005e-03   4.2074313220428088e-02   1.9683829786674781e-02   1.1230961567652160e-01   5.2946537562396576e-02   2.5004128415780824e-01   1.3897519748324486e-01   4.0741809492450198e-01   2.8917269681463914e-01   4.9950912646437062e-01   4.3670192976253502e-01   4.9464393712082938e-01   5.0724854335759018e-01   3.9431832544721668e-01   4.7995259673456064e-01   2.3545749015983714e-01   3.6038731616929909e-01   1.9915876932957549e-01   9.8901295283904274e-04   6.9805977074891229e-04   6.5902121835592522e-04   5.5785786547159525e-04   5.1115224825491973e-04   5.0638502260757416e-04   4.4650993133201047e-04   5.2094890215025860e-04   4.3999854387356032e-04   6.0150271198017541e-04   4.8598699315166680e-04   7.6957480581411246e-04   5.9432768469254329e-04   1.0811258251273289e-03   7.9537707715488946e-04   1.6663114459712542e-03   1.1584173129264162e-03   2.8433510128533048e-03   1.8423440965065253e-03   5.4683358727834084e-03   3.2406846813181015e-03   1.2094623342870625e-02   6.4351385987718697e-03   3.0749956405664618e-02   1.4725209002025544e-02   8.3308140028803476e-02   3.8541462494177801e-02   2.0044097718684953e-01   1.0425077307664972e-01   3.6114747168662042e-01   2.3725933665499468e-01   4.8026482873206888e-01   3.9539476641738347e-01   5.0762739932683065e-01   4.9533548072439842e-01   4.3709356477593203e-01   5.0029383016670370e-01   2.8912373849712641e-01   4.0805205654378346e-01   2.4959519226249408e-01   4.4806346983638151e-04   3.6753251299826003e-04   3.4113576164866531e-04   3.3565785302561472e-04   3.0155065791513880e-04   3.4181289596700007e-04   2.9589360434444399e-04   3.8531936218800747e-04   3.2108567149527050e-04   4.7487517150396385e-04   3.8111735281534345e-04   6.3258200352382763e-04   4.8866015040078723e-04   9.0576503232498806e-04   6.7096076468416241e-04   1.3973667072017769e-03   9.8471435005182914e-04   2.3481264423565063e-03   1.5538731351762763e-03   4.3800033444583312e-03   2.6734326392995516e-03   9.2879554783283687e-03   5.1237207558709552e-03   2.2695956963421460e-02   1.1213313333998626e-02   6.1116858514567281e-02   2.8263902619948232e-02   1.5561462115634087e-01   7.6864484455503174e-02   3.1004234620805360e-01   1.8835066907108142e-01   4.5165861618660669e-01   3.4819934512227008e-01   5.1058319505997052e-01   4.7410355071662463e-01   4.7029825502325068e-01   5.1025462117631593e-01   3.4002026038433025e-01   4.4672983774177172e-01   3.0061510995781537e-01   2.5621860810197216e-04   2.3556114558491098e-04   2.1581704533004946e-04   2.3820427900747321e-04   2.1133193823402174e-04   2.6354099502396057e-04   2.2611399465542704e-04   3.1544215573195086e-04   2.6192380054247910e-04   4.0367962461873992e-04   3.2461213135947121e-04   5.4795841681305995e-04   4.2625478423704167e-04   7.8744830537149605e-04   5.9020214320181148e-04   1.2038555542163460e-03   8.6274469993335848e-04   1.9816216654251454e-03   1.3416057330248273e-03   3.5806438669768463e-03   2.2516600178875568e-03   7.2823716984159251e-03   4.1668380989107572e-03   1.7014976514893775e-02   8.7257658298664723e-03   4.4773122734810780e-02   2.1039087846275589e-02   1.1829958122937351e-01   5.6473926535777159e-02   2.5886535943776839e-01   1.4626118635501303e-01   4.1526785307286168e-01   2.9882759728785085e-01   5.0360148584118702e-01   4.4456536780093153e-01   4.9351504261133622e-01   5.1060401321081006e-01   3.8797767847306419e-01   4.7759608957088273e-01   3.5402544096757721e-01   1.7665032109473303e-04   1.7772965453591256e-04   1.6248269866474507e-04   1.9339885193248027e-04   1.7165377114876967e-04   2.2553084736465326e-04   1.9431643022308542e-04   2.7888358696649852e-04   2.3342018856560212e-04   3.6265047456161950e-04   2.9489155543096222e-04   4.9389730832150047e-04   3.8957826194698278e-04   7.0517078541279933e-04   5.3741504688228393e-04   1.0622882183819208e-03   7.7666552594933200e-04   1.7093324068611472e-03   1.1858213356228380e-03   2.9934648924647188e-03   1.9400004776631446e-03   5.8466537385721993e-03   3.4706924024147175e-03   1.3045132062662146e-02   6.9651223210388342e-03   3.3233746193644824e-02   1.6039747509303318e-02   8.9301002292150725e-02   4.1968223775228533e-02   2.1113875240329202e-01   1.1221787820285638e-01   3.7312500642027269e-01   2.5029910670968847e-01   4.8807785602053266e-01   4.0828884581781316e-01   5.0932300198477420e-01   5.0273232002888846e-01   4.3433821191968514e-01   5.0178119954911482e-01   4.0689212805817099e-01   1.4527406084798299e-04   1.5546882274694720e-04   1.4421875380891838e-04   1.7648118726118782e-04   1.5930748237836127e-04   2.1083481536874547e-04   1.8512180011457722e-04   2.6326331110963991e-04   2.2484526527154845e-04   3.4210938919276379e-04   2.8407160789491247e-04   4.6220821928238769e-04   3.7249328456500600e-04   6.5105038844871874e-04   5.0736731113503451e-04   9.6278357387745330e-04   7.2098499330800207e-04   1.5125844988548480e-03   1.0778889911936063e-03   2.5690040615891849e-03   1.7179139670329331e-03   4.8277915491401636e-03   2.9742929663958769e-03   1.0299840355061802e-02   5.7318303870031494e-03   2.5236426065308421e-02   1.2609061711216864e-02   6.7560877325685054e-02   3.1817493310384901e-02   1.6893748651364959e-01   8.5692442876847602e-02   3.2713107802026392e-01   2.0468693653063630e-01   4.6408916405987488e-01   3.6571475813489124e-01   5.1642786174253552e-01   4.8525733841973401e-01   4.7303382782992054e-01   5.1575934975870763e-01   4.5135052467178099e-01   1.4140782999279769e-04   1.5584938748398249e-04   1.4918566740568505e-04   1.7922567457634891e-04   1.6714112306072854e-04   2.1420186165077074e-04   1.9436613260235278e-04   2.6529424063381535e-04   2.3403198005113237e-04   3.4010597640948164e-04   2.9138889807951978e-04   4.5178088102294914e-04   3.7524345337025571e-04   6.2410936024964291e-04   5.0090610121930948e-04   9.0283433179977617e-04   6.9638886452690464e-04   1.3826586055414429e-03   1.0163334201604799e-03   2.2776760762823096e-03   1.5758735531834725e-03   4.1236952615140848e-03   2.6406923424218322e-03   8.4159957020323601e-03   4.8909668077295083e-03   1.9709870172562611e-02   1.0266782216367485e-02   5.1553037749516500e-02   2.4739190085278206e-02   1.3274461423857956e-01   6.5446393784903578e-02   2.7813792356401129e-01   1.6298863222165924e-01   4.2967763174931417e-01   3.1700620525309142e-01   5.1144205552405386e-01   4.5618751187947337e-01   4.9985419028571376e-01   5.1735808213187595e-01   4.8582181303205169e-01   1.6014913181146875e-04   1.7694923808655929e-04   1.7673028895599926e-04   2.0173354053670329e-04   1.9652337335607852e-04   2.3719300415761459e-04   2.2488472891189667e-04   2.8766803431350005e-04   2.6496530202735005e-04   3.6025694921088376e-04   3.2180576443087563e-04   4.6696168424935249e-04   4.0366384169853543e-04   6.2905149355168546e-04   5.2460358427613432e-04   8.8649937907163922e-04   7.0981939440908253e-04   1.3199253706605491e-03   1.0073068407227971e-03   2.1060452150354460e-03   1.5154244967329005e-03   3.6711750816621857e-03   2.4536843117408417e-03   7.1566451141890745e-03   4.3619069616153321e-03   1.5910712433687548e-02   8.7110064138875547e-03   3.9868506211464649e-02   1.9849549102544817e-02   1.0267330430466608e-01   5.0375888849704648e-02   2.2865217334317814e-01   1.2702003199334169e-01   3.8562057821224505e-01   2.6574858070510948e-01   4.9455679626248517e-01   4.1703798515587598e-01   5.1664561880421556e-01   5.0788387158678860e-01   5.1200284578615907e-01   2.0627977049123949e-04   2.2502546664213122e-04   2.3540676033333599e-04   2.5143533216928968e-04   2.5718945160479442e-04   2.8826840144297315e-04   2.8745743725620094e-04   3.3983979418939576e-04   3.2945101827999674e-04   4.1305005529488741e-04   3.8822584539488449e-04   5.1933871814973970e-04   4.7189816226977650e-04   6.7857194099886736e-04   5.9402542004618932e-04   9.2724189380397699e-04   7.7838906425683335e-04   1.3369762504225461e-03   1.0691946804447054e-03   2.0596582482916093e-03   1.5543857353916522e-03   3.4470642279839799e-03   2.4231906179103362e-03   6.3958684642281393e-03   4.1204891612525024e-03   1.3402587477059861e-02   7.7952824523563309e-03   3.1671776372420059e-02   1.6666301723909881e-02   7.9481197696370312e-02   3.9882204932718025e-02   1.8374034101901257e-01   9.89336419