<?xml version="1.0"?>
<VTKFile type="UnstructuredGrid"  version="0.1"  >
<UnstructuredGrid>
<Piece  NumberOfPoints="607" NumberOfCells="1112">
<Points>
<DataArray  type="Float64"  NumberOfComponents="3"  format="ascii">0.4130434782608696 0 0  0.4295652173913043 0 0  0.4295652173913043 0.01666666666666667 0  0.4460869565217391 0 0  0.4460869565217391 0.01666666666666667 0  0.4626086956521739 0 0  0.4626086956521739 0.01666666666666667 0  0.4791304347826086 0 0  0.4791304347826086 0.01666666666666667 0  0.4956521739130435 0 0  0.4956521739130435 0.01666666666666667 0  0.5121739130434783 0 0  0.5121739130434783 0.01666666666666667 0  0.528695652173913 0 0  0.528695652173913 0.01666666666666667 0  0.5452173913043478 0 0  0.5452173913043478 0.01666666666666667 0  0.5617391304347825 0 0  0.5617391304347825 0.01666666666666667 0  0.5782608695652174 0 0  0.5782608695652174 0.01666666666666667 0  0.5947826086956521 0 0  0.5947826086956521 0.01666666666666667 0  0.6113043478260869 0 0  0.6113043478260869 0.01666666666666667 0  0.6278260869565218 0 0  0.6278260869565218 0.01666666666666667 0  0.6443478260869565 0 0  0.6443478260869565 0.01666666666666667 0  0.6608695652173913 0 0  0.6608695652173913 0.01666666666666667 0  0.677391304347826 0 0  0.677391304347826 0.01666666666666667 0  0.6939130434782609 0 0  0.6939130434782609 0.01666666666666667 0  0.7104347826086956 0 0  0.7104347826086956 0.01666666666666667 0  0.4460869565217391 0.03333333333333333 0  0.4626086956521739 0.03333333333333333 0  0.4791304347826086 0.03333333333333333 0  0.4956521739130435 0.03333333333333333 0  0.5121739130434783 0.03333333333333333 0  0.528695652173913 0.03333333333333333 0  0.5452173913043478 0.03333333333333333 0  0.5617391304347825 0.03333333333333333 0  0.5782608695652174 0.03333333333333333 0  0.5947826086956521 0.03333333333333333 0  0.6113043478260869 0.03333333333333333 0  0.6278260869565218 0.03333333333333333 0  0.6443478260869565 0.03333333333333333 0  0.6608695652173913 0.03333333333333333 0  0.677391304347826 0.03333333333333333 0  0.6939130434782609 0.03333333333333333 0  0.7104347826086956 0.03333333333333333 0  0.4626086956521739 0.05 0  0.4791304347826086 0.05 0  0.4956521739130435 0.05 0  0.5121739130434783 0.05 0  0.528695652173913 0.05 0  0.5452173913043478 0.05 0  0.5617391304347825 0.05 0  0.5782608695652174 0.05 0  0.5947826086956521 0.05 0  0.6113043478260869 0.05 0  0.6278260869565218 0.05 0  0.6443478260869565 0.05 0  0.6608695652173913 0.05 0  0.677391304347826 0.05 0  0.6939130434782609 0.05 0  0.7104347826086956 0.05 0  0.7269565217391304 0.05 0  0.4791304347826086 0.06666666666666667 0  0.4956521739130435 0.06666666666666667 0  0.5121739130434783 0.06666666666666667 0  0.528695652173913 0.06666666666666667 0  0.5452173913043478 0.06666666666666667 0  0.5617391304347825 0.06666666666666667 0  0.5782608695652174 0.06666666666666667 0  0.5947826086956521 0.06666666666666667 0  0.6113043478260869 0.06666666666666667 0  0.6278260869565218 0.06666666666666667 0  0.6443478260869565 0.06666666666666667 0  0.6608695652173913 0.06666666666666667 0  0.677391304347826 0.06666666666666667 0  0.6939130434782609 0.06666666666666667 0  0.7104347826086956 0.06666666666666667 0  0.7269565217391304 0.06666666666666667 0  0.7434782608695653 0.06666666666666667 0  0.4956521739130435 0.08333333333333333 0  0.5121739130434783 0.08333333333333333 0  0.528695652173913 0.08333333333333333 0  0.5452173913043478 0.08333333333333333 0  0.5617391304347825 0.08333333333333333 0  0.5782608695652174 0.08333333333333333 0  0.5947826086956521 0.08333333333333333 0  0.6113043478260869 0.08333333333333333 0  0.6278260869565218 0.08333333333333333 0  0.6443478260869565 0.08333333333333333 0  0.6608695652173913 0.08333333333333333 0  0.677391304347826 0.08333333333333333 0  0.6939130434782609 0.08333333333333333 0  0.7104347826086956 0.08333333333333333 0  0.7269565217391304 0.08333333333333333 0  0.7434782608695653 0.08333333333333333 0  0.7599999999999999 0.08333333333333333 0  0.5121739130434783 0.1 0  0.528695652173913 0.1 0  0.5452173913043478 0.1 0  0.5617391304347825 0.1 0  0.5782608695652174 0.1 0  0.5947826086956521 0.1 0  0.6113043478260869 0.1 0  0.6278260869565218 0.1 0  0.6443478260869565 0.1 0  0.6608695652173913 0.1 0  0.677391304347826 0.1 0  0.6939130434782609 0.1 0  0.7104347826086956 0.1 0  0.7269565217391304 0.1 0  0.7434782608695653 0.1 0  0.7599999999999999 0.1 0  0.7765217391304348 0.1 0  0.528695652173913 0.1166666666666667 0  0.5452173913043478 0.1166666666666667 0  0.5617391304347825 0.1166666666666667 0  0.5782608695652174 0.1166666666666667 0  0.5947826086956521 0.1166666666666667 0  0.6113043478260869 0.1166666666666667 0  0.6278260869565218 0.1166666666666667 0  0.6443478260869565 0.1166666666666667 0  0.6608695652173913 0.1166666666666667 0  0.677391304347826 0.1166666666666667 0  0.6939130434782609 0.1166666666666667 0  0.7104347826086956 0.1166666666666667 0  0.7269565217391304 0.1166666666666667 0  0.7434782608695653 0.1166666666666667 0  0.7599999999999999 0.1166666666666667 0  0.7765217391304348 0.1166666666666667 0  0.7930434782608695 0.1166666666666667 0  0.5452173913043478 0.1333333333333333 0  0.5617391304347825 0.1333333333333333 0  0.5782608695652174 0.1333333333333333 0  0.5947826086956521 0.1333333333333333 0  0.6113043478260869 0.1333333333333333 0  0.6278260869565218 0.1333333333333333 0  0.6443478260869565 0.1333333333333333 0  0.6608695652173913 0.1333333333333333 0  0.677391304347826 0.1333333333333333 0  0.6939130434782609 0.1333333333333333 0  0.7104347826086956 0.1333333333333333 0  0.7269565217391304 0.1333333333333333 0  0.7434782608695653 0.1333333333333333 0  0.7599999999999999 0.1333333333333333 0  0.7765217391304348 0.1333333333333333 0  0.7930434782608695 0.1333333333333333 0  0.8095652173913043 0.1333333333333333 0  0.5617391304347825 0.15 0  0.5782608695652174 0.15 0  0.5947826086956521 0.15 0  0.6113043478260869 0.15 0  0.6278260869565218 0.15 0  0.6443478260869565 0.15 0  0.6608695652173913 0.15 0  0.677391304347826 0.15 0  0.6939130434782609 0.15 0  0.7104347826086956 0.15 0  0.7269565217391304 0.15 0  0.7434782608695653 0.15 0  0.7599999999999999 0.15 0  0.7765217391304348 0.15 0  0.7930434782608695 0.15 0  0.8095652173913043 0.15 0  0.8260869565217391 0.15 0  0.5782608695652174 0.1666666666666667 0  0.5947826086956521 0.1666666666666667 0  0.6113043478260869 0.1666666666666667 0  0.6278260869565218 0.1666666666666667 0  0.6443478260869565 0.1666666666666667 0  0.6608695652173913 0.1666666666666667 0  0.677391304347826 0.1666666666666667 0  0.6939130434782609 0.1666666666666667 0  0.7104347826086956 0.1666666666666667 0  0.7269565217391304 0.1666666666666667 0  0.7434782608695653 0.1666666666666667 0  0.7599999999999999 0.1666666666666667 0  0.7765217391304348 0.1666666666666667 0  0.7930434782608695 0.1666666666666667 0  0.8095652173913043 0.1666666666666667 0  0.8260869565217391 0.1666666666666667 0  0.8426086956521739 0.1666666666666667 0  0.5947826086956521 0.1833333333333333 0  0.5782608695652174 0.1833333333333333 0  0.6113043478260869 0.1833333333333333 0  0.6278260869565218 0.1833333333333333 0  0.6443478260869565 0.1833333333333333 0  0.6608695652173913 0.1833333333333333 0  0.677391304347826 0.1833333333333333 0  0.6939130434782609 0.1833333333333333 0  0.7104347826086956 0.1833333333333333 0  0.7269565217391304 0.1833333333333333 0  0.7434782608695653 0.1833333333333333 0  0.7599999999999999 0.1833333333333333 0  0.7765217391304348 0.1833333333333333 0  0.7930434782608695 0.1833333333333333 0  0.8095652173913043 0.1833333333333333 0  0.8260869565217391 0.1833333333333333 0  0.8426086956521739 0.1833333333333333 0  0.8591304347826086 0.1833333333333333 0  0.5947826086956521 0.2 0  0.5782608695652174 0.2 0  0.6113043478260869 0.2 0  0.6278260869565218 0.2 0  0.6443478260869565 0.2 0  0.6608695652173913 0.2 0  0.677391304347826 0.2 0  0.6939130434782609 0.2 0  0.7104347826086956 0.2 0  0.7269565217391304 0.2 0  0.7434782608695653 0.2 0  0.7599999999999999 0.2 0  0.7765217391304348 0.2 0  0.7930434782608695 0.2 0  0.8095652173913043 0.2 0  0.8260869565217391 0.2 0  0.8426086956521739 0.2 0  0.8591304347826086 0.2 0  0.8756521739130434 0.2 0  0.5947826086956521 0.2166666666666667 0  0.5782608695652174 0.2166666666666667 0  0.6113043478260869 0.2166666666666667 0  0.6278260869565218 0.2166666666666667 0  0.6443478260869565 0.2166666666666667 0  0.6608695652173913 0.2166666666666667 0  0.677391304347826 0.2166666666666667 0  0.6939130434782609 0.2166666666666667 0  0.7104347826086956 0.2166666666666667 0  0.7269565217391304 0.2166666666666667 0  0.7434782608695653 0.2166666666666667 0  0.7599999999999999 0.2166666666666667 0  0.7765217391304348 0.2166666666666667 0  0.7930434782608695 0.2166666666666667 0  0.8095652173913043 0.2166666666666667 0  0.8260869565217391 0.2166666666666667 0  0.8426086956521739 0.2166666666666667 0  0.8591304347826086 0.2166666666666667 0  0.8756521739130434 0.2166666666666667 0  0.8921739130434783 0.2166666666666667 0  0.5947826086956521 0.2333333333333333 0  0.5782608695652174 0.2333333333333333 0  0.6113043478260869 0.2333333333333333 0  0.6278260869565218 0.2333333333333333 0  0.6443478260869565 0.2333333333333333 0  0.6608695652173913 0.2333333333333333 0  0.677391304347826 0.2333333333333333 0  0.6939130434782609 0.2333333333333333 0  0.7104347826086956 0.2333333333333333 0  0.7269565217391304 0.2333333333333333 0  0.7434782608695653 0.2333333333333333 0  0.7599999999999999 0.2333333333333333 0  0.7765217391304348 0.2333333333333333 0  0.7930434782608695 0.2333333333333333 0  0.8095652173913043 0.2333333333333333 0  0.8260869565217391 0.2333333333333333 0  0.8426086956521739 0.2333333333333333 0  0.8591304347826086 0.2333333333333333 0  0.8756521739130434 0.2333333333333333 0  0.8921739130434783 0.2333333333333333 0  0.908695652173913 0.2333333333333333 0  0.5947826086956521 0.25 0  0.6113043478260869 0.25 0  0.6278260869565218 0.25 0  0.6443
[...]
<CellData  Scalars="rho_bar"> 
<DataArray  type="Float64"  Name="rho_bar"  format="ascii">9.9897081017511224e-01   9.9848743506430493e-01   9.9862664098050902e-01   9.9676998309378728e-01   9.9737202412714099e-01   9.9147395317412423e-01   9.9314267292451697e-01   9.7938532779788690e-01   9.8154278250609794e-01   9.6261157824179999e-01   9.6110242470006957e-01   9.4871528163422414e-01   9.4037298857755069e-01   9.4169039673055210e-01   9.2787377191706966e-01   9.4070012441897299e-01   9.2428956895884218e-01   9.4310873103434312e-01   9.2640482959404769e-01   9.4659144783246174e-01   9.3077500135186841e-01   9.4981627735233820e-01   9.3520298643166100e-01   9.5221612066578831e-01   9.3869332251883753e-01   9.5364409844308051e-01   9.4093082052975230e-01   9.5418525482098226e-01   9.4194786513159623e-01   9.5407992327421376e-01   9.4200059340140763e-01   9.5363226087563702e-01   9.4147936869651405e-01   9.5309610652033383e-01   9.4075850718525544e-01   9.9788348562897877e-01   9.9512295221457814e-01   9.9562871151664756e-01   9.8396279228322081e-01   9.8588816563860737e-01   9.4959840194603085e-01   9.4816233907918424e-01   8.9069011784647334e-01   8.6031172909631370e-01   8.3780469837870841e-01   7.5825479848708377e-01   8.1043219082450568e-01   6.9343922939243963e-01   8.0507034457731563e-01   6.7005344416064405e-01   8.1184353123043396e-01   6.7260164306815062e-01   8.2243440508650145e-01   6.8630159170453275e-01   8.3225844887127942e-01   7.0158567912119651e-01   8.3944131596309135e-01   7.1391448932748813e-01   8.4338705062065022e-01   7.2153039592039347e-01   8.4427974316436827e-01   7.2411236050469086e-01   8.4301312679950502e-01   7.2260434319219480e-01   8.4084255130698826e-01   7.1895329256843354e-01   8.3865592385885090e-01   7.1499707037474225e-01   9.9019663783597867e-01   9.5834555835586488e-01   9.6583456413974911e-01   8.2684240319031466e-01   8.3950743898332780e-01   5.9625099320462682e-01   5.5134945683689640e-01   4.1801275217429412e-01   3.1050670691024856e-01   3.3103242986414372e-01   2.0050873078443793e-01   2.9999931976626409e-01   1.5857951109191321e-01   2.9676919404409235e-01   1.4540143233649233e-01   3.0524105221912373e-01   1.4456859392339325e-01   3.1627784779976570e-01   1.4816650247158963e-01   3.2528004877801747e-01   1.5220291325525642e-01   3.3005218102662681e-01   1.5470606563997732e-01   3.2995719180580557e-01   1.5474466186091418e-01   3.2607249373219982e-01   1.5241228408357210e-01   3.2072619156080745e-01   1.4882798033552236e-01   3.1580110421851215e-01   1.4534292176056063e-01   1.4259029577298357e-01   9.0894740423687559e-01   6.0928497613819022e-01   6.9430148518385648e-01   2.4850091848620248e-01   2.7843982537463657e-01   9.5571656410059824e-02   8.5732501975699885e-02   4.8938095219892112e-02   3.4961502559217067e-02   3.3222699667855092e-02   1.9864775339013190e-02   2.7315159158824306e-02   1.4349776529927706e-02   2.5067941480302336e-02   1.2054360351265137e-02   2.4223016386752633e-02   1.0998731494355381e-02   2.3809178242301790e-02   1.0427316362324409e-02   2.3377115933127701e-02   1.0019774911128607e-02   2.2733470984834667e-02   9.6289361501052662e-03   2.1889749136630818e-02   9.2056484247850338e-03   2.1012326305967815e-02   8.7768638624083038e-03   2.0266014316285910e-02   8.4031662537812565e-03   1.9708231976392484e-02   8.1147951155734546e-03   7.9087092435001106e-03   4.8077212443846817e-01   1.2449052218200501e-01   1.9530709205301960e-01   3.1061998461724541e-02   4.0595891252396925e-02   1.1325705324481718e-02   1.1813090617478851e-02   5.8045855645346492e-03   5.0406285032062225e-03   3.7770959500470452e-03   2.8552088127878762e-03   2.8685411478876501e-03   1.9589758225937409e-03   2.3933365863108565e-03   1.5201285744757883e-03   2.1081248141593492e-03   1.2725581553398007e-03   1.9130935113751651e-03   1.1149819088975314e-03   1.7638208938813924e-03   1.0036934143910566e-03   1.6417303966590037e-03   9.1874955032548306e-04   1.5415415995803439e-03   8.5163811426902398e-04   1.4623802808505001e-03   7.9913390817576435e-04   1.4024450946303552e-03   7.5916085980083669e-04   1.3588052121264519e-03   7.2944777890879189e-04   7.0793989130294116e-04   1.2336673723028552e-01   2.3061241342375954e-02   4.3809704328369767e-02   6.2889241313349165e-03   9.4408981627042803e-03   2.5017611483711213e-03   3.0623868279271941e-03   1.3131357168428234e-03   1.3740459874875914e-03   8.3444164294555346e-04   7.7604625054840436e-04   6.0293143252226824e-04   5.1348259796985094e-04   4.7445328774994681e-04   3.7839878703669060e-04   3.9515508842099520e-04   3.0010780602299762e-04   3.4201999972741375e-04   2.5041963064229190e-04   3.0426630667097250e-04   2.1667540927111116e-04   2.7651993818171344e-04   1.9268672176435959e-04   2.5585674993038569e-04   1.7519120727676761e-04   2.4043325376919654e-04   1.6227443273317179e-04   2.2894462693186720e-04   1.5268040964636648e-04   2.2041148299169604e-04   1.4553170211446855e-04   1.4017672858282430e-04   3.8438592964593697e-02   7.7792673563043509e-03   1.6753923865885818e-02   2.3522841534376932e-03   4.0132753441095223e-03   9.8080179097056672e-04   1.3876762546173509e-03   5.1511539168082006e-04   6.3176714251111563e-04   3.1827105400278154e-04   3.4997231652603020e-04   2.2054093980183786e-04   2.2289784398207697e-04   1.6587325767061914e-04   1.5696780025747971e-04   1.3244160834175437e-04   1.1899765247821807e-04   1.1059813925280685e-04   9.5352061921904864e-05   9.5631078501419225e-05   7.9747839833956767e-05   8.5033088975338094e-05   6.9007754129472138e-05   7.7357758766030053e-05   6.1388639873003286e-05   7.1709420594805959e-05   5.5862408580894197e-05   6.7499617492388153e-05   5.1785429965699464e-05   6.4318909385304584e-05   4.8732542873409753e-05   4.6408887041056270e-05   2.0459675770776800e-02   4.5303751998641683e-03   1.0956145205843083e-02   1.4365701238310581e-03   2.7847039054169406e-03   6.0105874727706295e-04   9.7477832486467198e-04   3.0768499130049977e-04   4.3433638071700052e-04   1.8244108768799124e-04   2.3098719219883740e-04   1.2061201736232222e-04   1.4006270064606218e-04   8.6563666410631977e-05   9.3769346295761872e-05   6.6190981935321236e-05   6.7746140868852266e-05   5.3205643055772385e-05   5.1961181232354461e-05   4.4521188438489818e-05   4.1808832578705953e-05   3.8496163760184197e-05   3.4977396364903709e-05   3.4196167388949905e-05   3.0216492432894906e-05   3.1057620458523783e-05   2.6805703517442017e-05   2.8722996050099758e-05   2.4306928018695406e-05   2.6956093763557910e-05   2.2441161739138380e-05   2.1024607952382298e-05   1.7961521691148698e-02   4.1376504001218390e-03   1.1377093903358499e-02   1.2975984486436917e-03   2.8912708872364467e-03   5.2129772986314832e-04   9.7004905436983530e-04   2.5286926440637361e-04   4.0691545646698535e-04   1.4158383376110449e-04   2.0291317914517654e-04   8.8497979475039693e-05   1.1561908187982085e-04   6.0253316199109140e-05   7.3042187771803853e-05   4.3886942048710035e-05   5.0024425923736189e-05   3.3748079830083322e-05   3.6531022223293511e-05   2.7128921187883008e-05   2.8100165110414793e-05   2.2625211509641356e-05   2.2560541619839199e-05   1.9458517529431662e-05   1.8772369958379506e-05   1.7172339866809078e-05   1.6097994268025356e-05   1.5486007143795145e-05   1.4160961211759000e-05   1.4220429271908145e-05   1.2728941326692324e-05   1.1653344203179570e-05   2.4307546718858968e-02   5.5078401565042436e-03   1.7439713913159308e-02   1.6028788922020664e-03   4.1785379582610135e-03   5.9097382067072231e-04   1.2682203371397118e-03   2.6438585517503811e-04   4.8237680500775893e-04   1.3768826008692890e-04   2.2077827965198671e-04   8.0691765373059395e-05   1.1683002671931561e-04   5.1844989783189898e-05   6.9190374393104118e-05   3.5816577525540836e-05   4.4732386041834185e-05   2.6226749842633375e-05   3.0993370307877088e-05   2.0141860767378052e-05   2.2703979836773976e-05   1.6095815644617240e-05   1.7409734710699403e-05   1.3302992043487997e-05   1.3871309180299181e-05   1.1317071694320143e-05   1.1419330017849764e-05   9.8716790650755033e-06   9.6711472830718887e-06   8.8010777697257171e-06   8.3972545802519762e-06   7.4541014768476523e-06   4.5232462929196728e-02   1.4667870359727639e-01   9.8161063432138686e-03   3.4896816279098075e-02   2.5187111589850845e-03   7.7169474555601461e-03   8.2203275536598135e-04   2.0402816160830064e-03   3.3169079450109625e-04   6.8486082663008852e-04   1.5851377762517919e-04   2.8259302291813309e-04   8.6403226221125944e-05   1.3728883401633034e-04   5.2150371926064857e-05   7.5689789887266163e-05   3.4081769387925923e-05   4.6018275630669295e-05   2.3719076753372309e-05   3.0194046642468834e-05   1.7365058490456633e-05   2.1039341663923529e-05   1.3255368178977014e-05   1.5387153700063751e-05   1.0482171929574199e-05   1.1711868853450343e-05   8.5477741682179840e-06   9.2225080570144234e-06   7.1640587111560645e-06   7.4825463672777515e-06   6.1560477503667939e-06   6.2376563133645289e-06   5.3322828457691966e-06   3.0901487695982005e-01   5.3852323769116450e-01   9.6081350384387698e-02   2.6524203714393740e-01   2.1032047946731948e-02   7.6783346745380177e-02   4.7542134219776674e-03   1.6668665591397000e-02   1.3454326286132324e-03   3.8694959229110364e-03   4.8028878090779849e-04   1.1264417268826402e-03   2.0754480757616695e-04   4.1145309804460487e-04   1.0419361439520666e-04   1.8093420631142538e-04   5.8747354280943705e-05   9.2010354302071116e-05   3.6225711993907740e-05   5.2341552700053902e-05   2.3941666095237174e-05   3.2450537301575068e-05   1.6707417670824641e-05   2.1497168418643907e-05   1.2179172370018820e-05   1.4997839267115645e-05   9.2058197531047195e-06   1.0907223557080196e-05   7.1804983243744720e-06   8.2122532747331111e-06   5.7629309076485519e-06   6.3745037681792422e-06   4.7515518531894560e-06   5.0895659701307950e-06   4.1755796723217152e-06   6.7552050746123227e-01   7.5236130722556471e-01   4.6301776650536963e-01   6.5484034020513648e-01   1.9495175248683214e-01   4.2126056218480418e-01   4.9058544707350882e-02   1.6223197704491746e-01   1.0373246981079628e-02   3.9265115750208274e-02   2.5303007698916071e-03   8.4074889120134121e-03   7.8286144195779386e-04   2.1032542958159110e-03   3.0052650747865861e-04   6.6595318803562727e-04   1.3726836189735680e-04   2.6064536415067982e-04   7.1748241369927156e-05   1.2086813465125329e-04   4.1564784532152700e-05   6.3863737785500386e-05   2.6034547229584589e-05   3.7250002429062340e-05   1.7308885865288014e-05   2.3409277922914458e-05   1.2055044572053102e-05   1.5570609035403315e-05   8.7178508593136221e-06   1.0826321005838253e-05   6.5108411000820174e-06   7.8054686903677044e-06   5.0075396579935579e-06   5.8078590361502543e-06   3.9621313136687318e-06   4.4502631963736985e-06   3.5100124664677841e-06   7.6058170436538985e-01   6.9883046037488161e-01   7.4018071330152613e-01   7.6664885960636953e-01   6.0269276882103962e-01   7.3066445037088446e-01   3.4227124019726091e-01   5.7233355397666841e-01   1.1283843967662985e-01   3.0059214587725991e-01   2.4860399432127530e-02   9.2048183542942127e-02   5.3415825957184174e-03   1.9913264493224867e-02   1.4084623678123219e-03   4.3532615126096949e-03   4.7183026375971162e-04   1.1764791288779906e-03   1.9335225272845266e-04   4.0309601412625900e-04   9.2717791546925038e-05   1.6813917704174247e-04   5.0089386481602643e-05   8.1645497400959052e-05   2.9589580375705317e-05   4.4454491023873279e-05   1.8694255190250652e-05   2.6366414519698427e-05   1.2435112961777331e-05   1.6679228125622380e-05   8.6185264176972641e-06   1.1090328550032011e-05   6.1843845318066976e-06   7.6775462792873589e-06   4.5795740535264072e-06   5.5026956541787438e-06   3.4961804993991678e-06   4.0725145395559466e-06   3.1109651905418708e-06   5.8458609426197816e-01   7.3857927428761871e-01   6.2169978462079578e-01   7.7003431787703058e-01   7.5148246419927389e-01   7.0125212357789668e-01   7.6790776566517205e-01   5.0362580020872638e-01   6.8267585512575235e-01   2.2853918288919703e-01   4.6368352268051155e-01   5.9921787530802531e-02   1.9184865148268715e-01   1.2183279006146581e-02   4.7446382115697336e-02   2.7512335448455641e-03   9.6594980111149413e-03   7.9194008239117503e-04   2.2373744859531235e-03   2.8635351363022748e-04   6.6016189147527829e-04   1.2417359865086262e-04   2.4335881761306804e-04   6.1840177243390122e-05   1.0695544652417901e-04   3.4175401488327350e-05   5.3724116415730723e-05   2.0430827520862868e-05   2.9847989603341497e-05   1.2975236400388716e-05   1.7905839339797344e-05   8.6464848661564564e-06   1.1402699454638313e-05   5.9986974032236369e-06   7.6197309272672026e-06   4.3143463791452011e-06   5.3048765410329633e-06   3.2120556138300749e-06   3.8338515275082383e-06   2.8738313813149427e-06   4.5315462777010496e-01   6.7894898780580382e-01   4.9751406330355608e-01   7.6793522847366569e-01   6.9979182924266281e-01   7.5491385142191703e-01   7.7146972854739015e-01   6.3270574732706608e-01   7.4440587178505879e-01   3.8014499619120806e-01   6.0139275869511644e-01   1.3166650671233410e-01   3.3258122381230382e-01   2.8547614428539477e-02   1.0496411107807876e-01   5.7360153215747934e-03   2.2068749230360108e-02   1.4009932765028260e-03   4.5022368217507531e-03   4.3753125023142001e-04   1.1252314020376779e-03   1.6813973732489727e-04   3.5797073927442774e-04   7.6008522474743775e-05   1.3945504238465210e-04   3.8945405079623315e-05   6.3731342142761243e-05   2.1976775520804050e-05   3.2974409275843217e-05   1.3366048824490505e-05   1.8782429400538256e-05   8.6265691807400901e-06   1.1530830067087153e-05   5.8480697619920652e-06   7.5155083776605016e-06   4.1400191723273086e-06   5.1507390181028090e-06   3.0540014588619351e-06   3.6933866072114566e-06   2.7673431868768954e-06   2.9675436315428505e-01   5.7049167215822483e-01   3.3977419980101503e-01   7.3091928282790386e-01   6.0100659792986300e-01   7.7028309018832775e-01   7.4042536102341594e-01   7.1140799395380883e-01   7.6546889324163725e-01   5.2517887463509172e-01   6.8988617383729545e-01   2.4652111640367128e-01   4.8014040642024541e-01   6.4540609027891938e-02   2.0262227255562687e-01   1.2356803439126172e-02   4.9003755583071525e-02   2.5471867664960094e-03   9.2425990355243029e-03   6.6705043231973023e-04   1.9287901223496104e-03   2.2143968529011681e-04   5.1274007945324772e-04   8.9596837715478556e-05   1.7315311388359982e-04   4.2456152388898261e-05   7.1470771814058660e-05   2.2747882208051939e-05   3.4599385314159809e-05   1.3396301757945610e-05   1.8935423416273825e-05   8.4931507599122647e-06   1.1381116278467518e-05   5.7188309226352912e-06   7.3623271657345791e-06   4.0592113236162213e-06   5.0624692269298620e-06   3.0287486865644557e-06   3.6771505535730604e-06   2.8165843301716927e-06   1.6039860117813395e-01   4.1581297357568370e-01   1.9087901052814857e-01   6.4887744750595688e-01   4.5292715145427198e-01   7.5098595769093313e-01   6.6645089066327368e-01   7.4751174382176377e-01   7.5266548502305775e-01   6.3442878889050403e-01   7.3583744452471100e-01   3.8630850399822081e-01   6.0102670401664149e-01   1.3127102948686864e-01   3.3183771563687420e-01   2.5864105042351225e-02   9.8574006443317444e-02   4.4842494129942543e-03   1.7987124847219357e-02   9.5058200204560734e-04   3.0758191656820410e-03   2.6755188629882609e-04   6.6318752272863715e-04   9.7132446998820571e-05   1.9326942691399088e-04   4.3227238729967480e-05   7.3248121010045613e-05   2.2448276939441698e-05   3.4023078406086978e-05   1.3081706250349295e-05   1.8366516068185378e-05   8.3260646750804915e-06   1.1081718318613996e-05   5.6919883375878962e-06   7.2867764334186577e-06   4.1427955304574470e-06   5.1458407959061201e-06   3.1991581590643920e-06   3.8745444862194575e-06   3.1026714763658943e-06   7.3610644226185087e-02   2.5051633809381102e-01   8.9227572273308589e-02   5.1453595309464439e-01   2.8453013251058484e-01   6.9664175297062769e-01   5.4529205695609506e-01   7.5485769852447093e-01   7.1141468890769355e-01   7.0657894522649356e-01   7.5550664939609735e-01   5.1947688248082180e-01   6.8673405487002881e-01   2.2567592629406286e-01   4.6231048455469037e-01   4.7137326259885350e-02   1.6522228070988898e-01   6.7712470330743872e-03   2.8952478083891172e-02   1.1451036869294562e-03   3.9780408237618647e-03   2.7867857687628570e-04   7.0442925085079067e-04   9.4351359099299956e-05   1.8564464834198356e-04   4.1060628690157947e-05   6.8187650713618218e-05   2.1413964387517208e-05   3.1832241626597897e-05   1.2729084091618324e-05   1.7591601971605102e-05   8.3539425248540721e-06   1.0985299216678345e-05   5.9417298344825096e-06   7.5379382342289740e-06   4.5347095612276954e-06   5.5946812159253201e-06   3.6963229918849798e-06   4.4538083089534005e-06   3.7874607176162849e-06   3.1330537855234979e-02   1.2661500356961117e-01   3.8713370401424564e-02   3.5685636549595307e-01   1.5373631656247050e-01   6.1685787363020728e-01   4.0900718322891738e-01   7.4949311146712461e-01   6.5863935454676914e-01   7.5460879433751094e-01   7.6653801432558721e-01   6.2067975943159059e-01   7.4441615718067999e-01   3.1306138862794042e-01   5.5646509227249352e-01   6.4584825530552864e-02   2.1331069084621393e-01   7.4885779215428131e-03   3.2740060743036446e-02   1.0671663272944711e-03   3.6386419532009012e-03   2.4510169983085609e-04   5.8695803097912535e-04   8.3606725678229637e-05   1.5618708139663844e-04   3.7686328306384430e-05   6.0196744310879922e-05   2.0582582092437857e-05   2.9792854117801996e-05   1.2886184572255537e-05   1.7498044535785325e-05   8.9471957491767294e-06   1.1630446861959046e-05   6.7584645984765952e-06   8.5091902482303548e-06   5.4929298412705352e-06   6.7424013407871208e-06   4.7736472279706631e-06   5.7309501303446348e-06   5.1979757519419394e-06   1.4601434709742100e-02   6.3277597166447139e-02   1.9262825208535988e-02   2.3841090947164215e-01   8.7087819059675123e-02   5.4744928546997795e-01   3.1581411705982210e-01   7.5081826950940045e-01   6.2898040572416158e-01   7.8946198149340696e-01   7.8410489115275839e-01   6.7595285919536652e-01   7.8019987226611776e-01   3.4085994874045383e-01   5.8747910738159670e-01   5.8112587875473902e-02   1.9867449258152056e-01   5.5311647665078224e-03   2.3189603636975826e-02   7.7992626408388357e-04   2.3371809120183540e-03   1.9399365977865643e-04   4.1767084181950959e-04   7.2760316552833725e-05   1.2707693751221963e-04   3.5842324185444900e-05   5.5056281450052455e-05   2.1228195898052555e-05   3.0075418588078288e-05   1.4339303063492150e-05   1.9260140913829869e-05   1.0707202848267842e-05   1.3853512428775743e-05   8.6730706308785718e-06   1.0908878420863202e-05   7.5341904849257363e-06   9.2577347024590218e-06   6.9739625125181911e-06   8.3887040337694172e-06   8.0810540250161444e-06   9.0996313102207245e-03   4.0856206057335004e-02   1.3617975553091301e-02   1.8973573079704412e-01   6.7147820458792848e-02   5.3400723290051522e-01   2.9783169020573785e-01   7.7457659206517460e-01   6.5403093172797955e-01   8.1453856441512607e-01   8.1440771479198837e-01   6.7550211561708484e-01   7.9286011035910298e-01   2.7484083757920225e-01   5.3232982934681805e-01   3.2380773757263670e-02   1.2240624757348829e-01   3.0313736225123984e-03   1.0882643933568406e-02   5.2522064909134368e-04   1.3198800401162951e-03   1.5901147390225750e-04   3.0959136437590934e-04   6.9448599771265872e-05   1.1541374593138308e-04   3.8524683907988299e-05   5.7954037558713898e-05   2.5158368549295573e-05   3.5461965352349759e-05   1.8488680236659681e-05   2.4920750434757455e-05   1.4876085406909931e-05   1.9406705969164672e-05   1.2884791551554759e-05   1.6381790332580127e-05   1.1895787502810153e-05   1.4791639197239263e-05   1.1658422859994003e-05   1.4190136218024871e-05   1.4450809624406373e-05   8.7214462040235696e-03   4.1301905633013440e-02   1.5593017640643771e-02   2.1410282066810032e-01   8.3231882744290817e-02   6.0562679589378521e-01   3.7816606451749701e-01   8.2152297682351372e-01   7.41840085