<?xml version="1.0"?>
<VTKFile type="UnstructuredGrid"  version="0.1"  >
<UnstructuredGrid>
<Piece  NumberOfPoints="640" NumberOfCells="1175">
<Points>
<DataArray  type="Float64"  NumberOfComponents="3"  format="ascii">2.577391304347826 0 0  2.593913043478261 0 0  2.593913043478261 0.01666666666666667 0  2.577391304347826 0.01666666666666667 0  2.610434782608696 0 0  2.610434782608696 0.01666666666666667 0  2.62695652173913 0 0  2.62695652173913 0.01666666666666667 0  2.643478260869565 0 0  2.643478260869565 0.01666666666666667 0  2.66 0 0  2.66 0.01666666666666667 0  2.676521739130435 0 0  2.676521739130435 0.01666666666666667 0  2.693043478260869 0 0  2.693043478260869 0.01666666666666667 0  2.709565217391304 0 0  2.709565217391304 0.01666666666666667 0  2.726086956521739 0 0  2.726086956521739 0.01666666666666667 0  2.742608695652174 0 0  2.742608695652174 0.01666666666666667 0  2.759130434782609 0 0  2.759130434782609 0.01666666666666667 0  2.775652173913044 0 0  2.775652173913044 0.01666666666666667 0  2.792173913043478 0 0  2.792173913043478 0.01666666666666667 0  2.808695652173913 0 0  2.808695652173913 0.01666666666666667 0  2.825217391304347 0 0  2.825217391304347 0.01666666666666667 0  2.841739130434783 0 0  2.841739130434783 0.01666666666666667 0  2.858260869565217 0 0  2.858260869565217 0.01666666666666667 0  2.874782608695652 0 0  2.874782608695652 0.01666666666666667 0  2.891304347826087 0 0  2.891304347826087 0.01666666666666667 0  2.907826086956522 0 0  2.907826086956522 0.01666666666666667 0  2.924347826086957 0 0  2.924347826086957 0.01666666666666667 0  2.940869565217391 0 0  2.940869565217391 0.01666666666666667 0  2.957391304347826 0 0  2.957391304347826 0.01666666666666667 0  2.973913043478261 0 0  2.973913043478261 0.01666666666666667 0  2.593913043478261 0.03333333333333333 0  2.610434782608696 0.03333333333333333 0  2.62695652173913 0.03333333333333333 0  2.643478260869565 0.03333333333333333 0  2.66 0.03333333333333333 0  2.676521739130435 0.03333333333333333 0  2.693043478260869 0.03333333333333333 0  2.709565217391304 0.03333333333333333 0  2.726086956521739 0.03333333333333333 0  2.742608695652174 0.03333333333333333 0  2.759130434782609 0.03333333333333333 0  2.775652173913044 0.03333333333333333 0  2.792173913043478 0.03333333333333333 0  2.808695652173913 0.03333333333333333 0  2.825217391304347 0.03333333333333333 0  2.841739130434783 0.03333333333333333 0  2.858260869565217 0.03333333333333333 0  2.874782608695652 0.03333333333333333 0  2.891304347826087 0.03333333333333333 0  2.907826086956522 0.03333333333333333 0  2.924347826086957 0.03333333333333333 0  2.940869565217391 0.03333333333333333 0  2.957391304347826 0.03333333333333333 0  2.973913043478261 0.03333333333333333 0  2.610434782608696 0.05 0  2.62695652173913 0.05 0  2.643478260869565 0.05 0  2.66 0.05 0  2.676521739130435 0.05 0  2.693043478260869 0.05 0  2.709565217391304 0.05 0  2.726086956521739 0.05 0  2.742608695652174 0.05 0  2.759130434782609 0.05 0  2.775652173913044 0.05 0  2.792173913043478 0.05 0  2.808695652173913 0.05 0  2.825217391304347 0.05 0  2.841739130434783 0.05 0  2.858260869565217 0.05 0  2.874782608695652 0.05 0  2.891304347826087 0.05 0  2.907826086956522 0.05 0  2.924347826086957 0.05 0  2.940869565217391 0.05 0  2.957391304347826 0.05 0  2.973913043478261 0.05 0  2.990434782608696 0.05 0  2.62695652173913 0.06666666666666667 0  2.643478260869565 0.06666666666666667 0  2.66 0.06666666666666667 0  2.676521739130435 0.06666666666666667 0  2.693043478260869 0.06666666666666667 0  2.709565217391304 0.06666666666666667 0  2.726086956521739 0.06666666666666667 0  2.742608695652174 0.06666666666666667 0  2.759130434782609 0.06666666666666667 0  2.775652173913044 0.06666666666666667 0  2.792173913043478 0.06666666666666667 0  2.808695652173913 0.06666666666666667 0  2.825217391304347 0.06666666666666667 0  2.841739130434783 0.06666666666666667 0  2.858260869565217 0.06666666666666667 0  2.874782608695652 0.06666666666666667 0  2.891304347826087 0.06666666666666667 0  2.907826086956522 0.06666666666666667 0  2.924347826086957 0.06666666666666667 0  2.940869565217391 0.06666666666666667 0  2.957391304347826 0.06666666666666667 0  2.973913043478261 0.06666666666666667 0  2.990434782608696 0.06666666666666667 0  2.643478260869565 0.08333333333333333 0  2.66 0.08333333333333333 0  2.676521739130435 0.08333333333333333 0  2.693043478260869 0.08333333333333333 0  2.709565217391304 0.08333333333333333 0  2.726086956521739 0.08333333333333333 0  2.742608695652174 0.08333333333333333 0  2.759130434782609 0.08333333333333333 0  2.775652173913044 0.08333333333333333 0  2.792173913043478 0.08333333333333333 0  2.808695652173913 0.08333333333333333 0  2.825217391304347 0.08333333333333333 0  2.841739130434783 0.08333333333333333 0  2.858260869565217 0.08333333333333333 0  2.874782608695652 0.08333333333333333 0  2.891304347826087 0.08333333333333333 0  2.907826086956522 0.08333333333333333 0  2.924347826086957 0.08333333333333333 0  2.940869565217391 0.08333333333333333 0  2.957391304347826 0.08333333333333333 0  2.973913043478261 0.08333333333333333 0  2.990434782608696 0.08333333333333333 0  3.006956521739131 0.08333333333333333 0  2.66 0.1 0  2.676521739130435 0.1 0  2.693043478260869 0.1 0  2.709565217391304 0.1 0  2.726086956521739 0.1 0  2.742608695652174 0.1 0  2.759130434782609 0.1 0  2.775652173913044 0.1 0  2.792173913043478 0.1 0  2.808695652173913 0.1 0  2.825217391304347 0.1 0  2.841739130434783 0.1 0  2.858260869565217 0.1 0  2.874782608695652 0.1 0  2.891304347826087 0.1 0  2.907826086956522 0.1 0  2.924347826086957 0.1 0  2.940869565217391 0.1 0  2.957391304347826 0.1 0  2.973913043478261 0.1 0  2.990434782608696 0.1 0  3.006956521739131 0.1 0  2.676521739130435 0.1166666666666667 0  2.693043478260869 0.1166666666666667 0  2.709565217391304 0.1166666666666667 0  2.726086956521739 0.1166666666666667 0  2.742608695652174 0.1166666666666667 0  2.759130434782609 0.1166666666666667 0  2.775652173913044 0.1166666666666667 0  2.792173913043478 0.1166666666666667 0  2.808695652173913 0.1166666666666667 0  2.825217391304347 0.1166666666666667 0  2.841739130434783 0.1166666666666667 0  2.858260869565217 0.1166666666666667 0  2.874782608695652 0.1166666666666667 0  2.891304347826087 0.1166666666666667 0  2.907826086956522 0.1166666666666667 0  2.924347826086957 0.1166666666666667 0  2.940869565217391 0.1166666666666667 0  2.957391304347826 0.1166666666666667 0  2.973913043478261 0.1166666666666667 0  2.990434782608696 0.1166666666666667 0  3.006956521739131 0.1166666666666667 0  3.023478260869565 0.1166666666666667 0  2.693043478260869 0.1333333333333333 0  2.709565217391304 0.1333333333333333 0  2.726086956521739 0.1333333333333333 0  2.742608695652174 0.1333333333333333 0  2.759130434782609 0.1333333333333333 0  2.775652173913044 0.1333333333333333 0  2.792173913043478 0.1333333333333333 0  2.808695652173913 0.1333333333333333 0  2.825217391304347 0.1333333333333333 0  2.841739130434783 0.1333333333333333 0  2.858260869565217 0.1333333333333333 0  2.874782608695652 0.1333333333333333 0  2.891304347826087 0.1333333333333333 0  2.907826086956522 0.1333333333333333 0  2.924347826086957 0.1333333333333333 0  2.940869565217391 0.1333333333333333 0  2.957391304347826 0.1333333333333333 0  2.973913043478261 0.1333333333333333 0  2.990434782608696 0.1333333333333333 0  3.006956521739131 0.1333333333333333 0  3.023478260869565 0.1333333333333333 0  2.726086956521739 0.15 0  2.742608695652174 0.15 0  2.759130434782609 0.15 0  2.775652173913044 0.15 0  2.792173913043478 0.15 0  2.808695652173913 0.15 0  2.825217391304347 0.15 0  2.841739130434783 0.15 0  2.858260869565217 0.15 0  2.874782608695652 0.15 0  2.891304347826087 0.15 0  2.907826086956522 0.15 0  2.924347826086957 0.15 0  2.940869565217391 0.15 0  2.957391304347826 0.15 0  2.973913043478261 0.15 0  2.990434782608696 0.15 0  3.006956521739131 0.15 0  3.023478260869565 0.15 0  3.04 0.15 0  2.742608695652174 0.1666666666666667 0  2.759130434782609 0.1666666666666667 0  2.775652173913044 0.1666666666666667 0  2.792173913043478 0.1666666666666667 0  2.808695652173913 0.1666666666666667 0  2.825217391304347 0.1666666666666667 0  2.841739130434783 0.1666666666666667 0  2.858260869565217 0.1666666666666667 0  2.874782608695652 0.1666666666666667 0  2.891304347826087 0.1666666666666667 0  2.907826086956522 0.1666666666666667 0  2.924347826086957 0.1666666666666667 0  2.940869565217391 0.1666666666666667 0  2.957391304347826 0.1666666666666667 0  2.973913043478261 0.1666666666666667 0  2.990434782608696 0.1666666666666667 0  3.006956521739131 0.1666666666666667 0  3.023478260869565 0.1666666666666667 0  3.04 0.1666666666666667 0  3.056521739130435 0.1666666666666667 0  2.759130434782609 0.1833333333333333 0  2.775652173913044 0.1833333333333333 0  2.792173913043478 0.1833333333333333 0  2.808695652173913 0.1833333333333333 0  2.825217391304347 0.1833333333333333 0  2.841739130434783 0.1833333333333333 0  2.858260869565217 0.1833333333333333 0  2.874782608695652 0.1833333333333333 0  2.891304347826087 0.1833333333333333 0  2.907826086956522 0.1833333333333333 0  2.924347826086957 0.1833333333333333 0  2.940869565217391 0.1833333333333333 0  2.957391304347826 0.1833333333333333 0  2.973913043478261 0.1833333333333333 0  2.990434782608696 0.1833333333333333 0  3.006956521739131 0.1833333333333333 0  3.023478260869565 0.1833333333333333 0  3.04 0.1833333333333333 0  3.056521739130435 0.1833333333333333 0  3.073043478260869 0.1833333333333333 0  2.775652173913044 0.2 0  2.792173913043478 0.2 0  2.808695652173913 0.2 0  2.825217391304347 0.2 0  2.841739130434783 0.2 0  2.858260869565217 0.2 0  2.874782608695652 0.2 0  2.891304347826087 0.2 0  2.907826086956522 0.2 0  2.924347826086957 0.2 0  2.940869565217391 0.2 0  2.957391304347826 0.2 0  2.973913043478261 0.2 0  2.990434782608696 0.2 0  3.006956521739131 0.2 0  3.023478260869565 0.2 0  3.04 0.2 0  3.056521739130435 0.
[...]
<CellData  Scalars="sigma_m"> 
<DataArray  type="Float64"  Name="sigma_m"  format="ascii">5.1998329697620096e+06   3.3936900829997119e+06   5.0309612296039378e+06   3.4261053613997684e+06   4.8959731536133140e+06   3.4110683796711713e+06   4.7751125465696147e+06   3.4143438378751306e+06   4.6307330713465801e+06   3.4736936166396043e+06   4.4311092904839562e+06   3.5891043301873156e+06   4.2207246205021068e+06   3.7091474846646627e+06   4.0348242389395237e+06   3.8113687142283306e+06   3.8641069757543346e+06   3.8953038874519039e+06   3.6946306363605075e+06   3.9521681713643852e+06   3.5636147413318660e+06   3.9558836012153244e+06   3.5348825168954385e+06   3.8669521390703977e+06   3.5275643327560020e+06   3.7245249983372646e+06   3.4812015514086066e+06   3.6453308701251098e+06   3.3968463227546066e+06   3.6300354205460157e+06   3.2879093416306791e+06   3.6517891614330630e+06   3.1612033065576768e+06   3.7008474100692337e+06   3.0173830563076357e+06   3.7697044055776419e+06   2.8740665318433205e+06   3.8354398682088344e+06   2.7563098592225979e+06   3.8678806758119348e+06   2.6616091257719649e+06   3.8639963141254364e+06   2.5712081264995439e+06   3.8420994776483714e+06   2.4885432907886817e+06   3.7926410745828124e+06   2.4521103098648698e+06   3.6731757696697125e+06   3.1827401753399372e+06   3.2389304682655265e+06   1.6978690825133447e+06   3.2491273906577057e+06   1.7240839613427939e+06   3.2751237904990581e+06   1.7383043536687498e+06   3.3573561075089434e+06   1.8243715329962291e+06   3.4990108000631193e+06   2.0214968492592047e+06   3.6489081696055559e+06   2.4359628723482592e+06   3.7785606898746565e+06   2.6470582588748340e+06   3.8797859363713851e+06   2.8044776131664333e+06   3.9527883132593567e+06   3.0535810518813892e+06   3.9790988095100033e+06   3.4704725827056086e+06   3.9044099683751776e+06   3.7590217917413106e+06   3.7434996603862671e+06   3.2594690105140433e+06   3.6566166348069082e+06   3.1805361184148700e+06   3.6420335122156558e+06   3.3617162618806097e+06   3.6696220795885134e+06   3.5429410294996961e+06   3.7270523005095003e+06   3.7595997148858202e+06   3.8061475321104503e+06   4.0420795209567430e+06   3.8817788583233282e+06   4.4295970900827376e+06   3.9222188669038811e+06   4.6824586251469320e+06   3.9243265916451155e+06   4.7114005272410363e+06   3.9098564344236315e+06   4.7753096952884132e+06   3.8705404759231587e+06   4.9284822166107921e+06   3.7559682263691626e+06   4.9024256158462251e+06   3.7246059360092066e-04   1.1409107560252498e-03   0.0000000000000000e+00   2.8877830335870443e-03   0.0000000000000000e+00   2.3398111180125249e-03   0.0000000000000000e+00   5.9080454010414219e-04   0.0000000000000000e+00   8.8222138503823045e-05   0.0000000000000000e+00   2.0228270040009732e-05   0.0000000000000000e+00   9.1067184183467737e-06   0.0000000000000000e+00   8.2851370638944930e-06   0.0000000000000000e+00   1.8160358137313773e-05   0.0000000000000000e+00   1.1007187089348645e-04   0.0000000000000000e+00   1.0961480619902186e-03   0.0000000000000000e+00   7.8173543961756360e-03   0.0000000000000000e+00   2.5073090279899016e-02   0.0000000000000000e+00   3.2110657974154459e-02   0.0000000000000000e+00   1.7168278713135962e-02   0.0000000000000000e+00   5.7169357325069408e-03   0.0000000000000000e+00   2.5866076186763791e-03   0.0000000000000000e+00   2.7303979003005727e-03   0.0000000000000000e+00   6.2831298682596119e-03   0.0000000000000000e+00   2.3411839494945876e-02   0.0000000000000000e+00   1.1583782728833784e-01   1.0535165998197016e-09   7.1318596353400887e-01   1.1457212518007677e-08   1.5546192086453103e-07   0.0000000000000000e+00   0.0000000000000000e+00   0.0000000000000000e+00   0.0000000000000000e+00   0.0000000000000000e+00   0.0000000000000000e+00   0.0000000000000000e+00   0.0000000000000000e+00   0.0000000000000000e+00   0.0000000000000000e+00   0.0000000000000000e+00   0.0000000000000000e+00   0.0000000000000000e+00   0.0000000000000000e+00   0.0000000000000000e+00   0.0000000000000000e+00   0.0000000000000000e+00   0.0000000000000000e+00   0.0000000000000000e+00   0.0000000000000000e+00   0.0000000000000000e+00   0.0000000000000000e+00   0.0000000000000000e+00   0.0000000000000000e+00   0.0000000000000000e+00   0.0000000000000000e+00   0.0000000000000000e+00   0.0000000000000000e+00   0.0000000000000000e+00   0.0000000000000000e+00   0.0000000000000000e+00   0.0000000000000000e+00   0.0000000000000000e+00   0.0000000000000000e+00   0.0000000000000000e+00   0.0000000000000000e+00   0.0000000000000000e+00   0.0000000000000000e+00   0.0000000000000000e+00   0.0000000000000000e+00   0.0000000000000000e+00   0.0000000000000000e+00   0.0000000000000000e+00   0.0000000000000000e+00   0.0000000000000000e+00   0.0000000000000000e+00   0.0000000000000000e+00   0.0000000000000000e+00   0.0000000000000000e+00   0.0000000000000000e+00   0.0000000000000000e+00   0.0000000000000000e+00   0.0000000000000000e+00   0.0000000000000000e+00   0.0000000000000000e+00   0.0000000000000000e+00   0.0000000000000000e+00   0.0000000000000000e+00   0.0000000000000000e+00   0.0000000000000000e+00   0.0000000000000000e+00   0.0000000000000000e+00   0.0000000000000000e+00   0.0000000000000000e+00   0.0000000000000000e+00   0.0000000000000000e+00   0.0000000000000000e+00   0.0000000000000000e+00   0.0000000000000000e+00   0.0000000000000000e+00   0.0000000000000000e+00   0.0000000000000000e+00   0.0000000000000000e+00   0.0000000000000000e+00   0.0000000000000000e+00   0.0000000000000000e+00   0.0000000000000000e+00   0.0000000000000000e+00   0.0000000000000000e+00   0.0000000000000000e+00   0.0000000000000000e+00   0.0000000000000000e+00   0.0000000000000000e+00   0.0000000000000000e+00   0.0000000000000000e+00   0.0000000000000000e+00   0.0000000000000000e+00   0.0000000000000000e+00   0.0000000000000000e+00   0.0000000000000000e+00   0.0000000000000000e+00   0.0000000000000000e+00   0.0000000000000000e+00   0.0000000000000000e+00   0.0000000000000000e+00   0.0000000000000000e+00   0.0000000000000000e+00   0.0000000000000000e+00   0.0000000000000000e+00   0.0000000000000000e+00   0.0000000000000000e+00   0.0000000000000000e+00   0.0000000000000000e+00   0.0000000000000000e+00   0.0000000000000000e+00   0.0000000000000000e+00   0.0000000000000000e+00   0.0000000000000000e+00   0.0000000000000000e+00   0.0000000000000000e+00   0.0000000000000000e+00   0.0000000000000000e+00   0.0000000000000000e+00   0.0000000000000000e+00   0.0000000000000000e+00   0.0000000000000000e+00   0.0000000000000000e+00   0.0000000000000000e+00   0.0000000000000000e+00   0.0000000000000000e+00   0.0000000000000000e+00   0.0000000000000000e+00   0.0000000000000000e+00   0.0000000000000000e+00   0.0000000000000000e+00   0.0000000000000000e+00   0.0000000000000000e+00   0.0000000000000000e+00   0.0000000000000000e+00   0.0000000000000000e+00   0.0000000000000000e+00   0.0000000000000000e+00   0.0000000000000000e+00   0.0000000000000000e+00   0.0000000000000000e+00   0.0000000000000000e+00   0.0000000000000000e+00   0.0000000000000000e+00   0.0000000000000000e+00   0.0000000000000000e+00   0.0000000000000000e+00   0.0000000000000000e+00   0.0000000000000000e+00   0.0000000000000000e+00   0.0000000000000000e+00   0.0000000000000000e+00   0.0000000000000000e+00   0.0000000000000000e+00   0.0000000000000000e+00   0.0000000000000000e+00   0.0000000000000000e+00   0.0000000000000000e+00   0.0000000000000000e+00   0.0000000000000000e+00   0.0000000000000000e+00   0.0000000000000000e+00   0.0000000000000000e+00   0.0000000000000000e+00   0.0000000000000000e+00   0.0000000000000000e+00   0.0000000000000000e+00   0.0000000000000000e+00   0.0000000000000000e+00   0.0000000000000000e+00   0.0000000000000000e+00   0.0000000000000000e+00   0.0000000000000000e+00   0.0000000000000000e+00   0.0000000000000000e+00   0.0000000000000000e+00   0.0000000000000000e+00   0.0000000000000000e+00   0.0000000000000000e+00   5.0465474647942788e-10   0.0000000000000000e+00   0.0000000000000000e+00   0.0000000000000000e+00   0.0000000000000000e+00   0.0000000000000000e+00   0.0000000000000000e+00   0.0000000000000000e+00   0.0000000000000000e+00   0.0000000000000000e+00   0.0000000000000000e+00   0.0000000000000000e+00   0.0000000000000000e+00   0.0000000000000000e+00   0.0000000000000000e+00   0.0000000000000000e+00   0.0000000000000000e+00   0.0000000000000000e+00   0.0000000000000000e+00   0.0000000000000000e+00   0.0000000000000000e+00   0.0000000000000000e+00   0.0000000000000000e+00   0.0000000000000000e+00   0.0000000000000000e+00   0.0000000000000000e+00   0.0000000000000000e+00   0.0000000000000000e+00   0.0000000000000000e+00   0.0000000000000000e+00   0.0000000000000000e+00   0.0000000000000000e+00   0.0000000000000000e+00   0.0000000000000000e+00   0.0000000000000000e+00   0.0000000000000000e+00   0.0000000000000000e+00   0.0000000000000000e+00   2.5456627040960258e-10   4.9719025053629117e-10   1.9174128974123679e+06   1.8817050047768769e+06   0.0000000000000000e+00   0.0000000000000000e+00   0.0000000000000000e+00   0.0000000000000000e+00   0.0000000000000000e+00   0.0000000000000000e+00   0.0000000000000000e+00   0.0000000000000000e+00   0.0000000000000000e+00   0.0000000000000000e+00   0.0000000000000000e+00   0.0000000000000000e+00   0.0000000000000000e+00   0.0000000000000000e+00   0.0000000000000000e+00   0.0000000000000000e+00   0.0000000000000000e+00   0.0000000000000000e+00   0.0000000000000000e+00   0.0000000000000000e+00   0.0000000000000000e+00   0.0000000000000000e+00   0.0000000000000000e+00   0.0000000000000000e+00   0.0000000000000000e+00   0.0000000000000000e+00   0.0000000000000000e+00   0.0000000000000000e+00   0.0000000000000000e+00   0.0000000000000000e+00   0.0000000000000000e+00   2.7672023335034320e-09   1.2858280733983490e-08   1.7445879925388608e+06   1.6941080420888951e+06   2.1098717815514277e+06   2.0093722858897175e+06   1.5683614930986450e+06   0.0000000000000000e+00   0.0000000000000000e+00   0.0000000000000000e+00   0.0000000000000000e+00   0.0000000000000000e+00   0.0000000000000000e+00   0.0000000000000000e+00   0.0000000000000000e+00   0.0000000000000000e+00   0.0000000000000000e+00   0.0000000000000000e+00   0.0000000000000000e+00   0.0000000000000000e+00   0.0000000000000000e+00   0.0000000000000000e+00   0.0000000000000000e+00   0.0000000000000000e+00   0.0000000000000000e+00   0.0000000000000000e+00   0.0000000000000000e+00   0.0000000000000000e+00   0.0000000000000000e+00   0.0000000000000000e+00   0.0000000000000000e+00   0.0000000000000000e+00   0.0000000000000000e+00   0.0000000000000000e+00   1.0427463358948573e-06   1.0740015016336892e-05   1.6525480103332701e+06   1.5011554035724502e+06   1.9010025269051560e+06   1.8244592543106591e+06   1.5290876372194742e+06   1.4702173138233658e+06   1.0284552911201754e+06   1.0516823086135767e+06   5.1625403972496308e+05   0.0000000000000000e+00   0.0000000000000000e+00   0.0000000000000000e+00   0.0000000000000000e+00   0.0000000000000000e+00   0.0000000000000000e+00   0.0000000000000000e+00   0.0000000000000000e+00   0.0000000000000000e+00   0.0000000000000000e+00   0.0000000000000000e+00   0.0000000000000000e+00   0.0000000000000000e+00   0.0000000000000000e+00   0.0000000000000000e+00   0.0000000000000000e+00   0.0000000000000000e+00   0.0000000000000000e+00   0.0000000000000000e+00   0.0000000000000000e+00   0.0000000000000000e+00   0.0000000000000000e+00   0.0000000000000000e+00   4.6691823114104816e-03   3.3822144920025624e-02   1.6271932330659060e+06   1.1950308251360001e+06   1.7570444021932266e+06   1.5784363781269293e+06   1.4323999239107014e+06   1.3726140976709374e+06   1.0193672149028067e+06   1.0767807705296457e+06   5.0682315153973672e+05   6.1119314087131910e+05   1.1681825748830421e+05   2.0412586335554594e+05   3.1255959008382011e+05   0.0000000000000000e+00   0.0000000000000000e+00   0.0000000000000000e+00   0.0000000000000000e+00   0.0000000000000000e+00   0.0000000000000000e+00   0.0000000000000000e+00   0.0000000000000000e+00   0.0000000000000000e+00   0.0000000000000000e+00   0.0000000000000000e+00   0.0000000000000000e+00   0.0000000000000000e+00   0.0000000000000000e+00   0.0000000000000000e+00   0.0000000000000000e+00   0.0000000000000000e+00   0.0000000000000000e+00   0.0000000000000000e+00   4.9229332482380661e-01   1.0691747732656403e+00   1.3300486492965836e+06   1.1060002811882452e+06   1.5099765285229532e+06   1.3765422441588289e+06   1.3775425540955716e+06   1.2935065537816682e+06   1.0438135657547942e+06   1.1231622094097524e+06   6.3340220141549152e+05   7.6988267137604346e+05   9.1969720720236146e+04   2.5865793163720149e+05   1.5340289105350623e+04   1.2317103479771176e+03   0.0000000000000000e+00   0.0000000000000000e+00   0.0000000000000000e+00   0.0000000000000000e+00   0.0000000000000000e+00   0.0000000000000000e+00   0.0000000000000000e+00   0.0000000000000000e+00   0.0000000000000000e+00   0.0000000000000000e+00   0.0000000000000000e+00   0.0000000000000000e+00   0.0000000000000000e+00   0.0000000000000000e+00   0.0000000000000000e+00   0.0000000000000000e+00   0.0000000000000000e+00   0.0000000000000000e+00   2.7195397968665711e+00   6.2496827120213503e+00   1.0740630860647357e+06   9.0469230522992206e+05   1.3156282648022347e+06   1.1853462175073461e+06   1.2909762822972250e+06   1.2165338965914398e+06   1.1128790408021759e+06   1.1658126011568976e+06   8.2329121794310620e+05   9.4927096112878516e+05   2.5909138133014803e+05   5.1152269024516764e+05   9.2254717522796834e-02   2.1416491258746868e-03   0.0000000000000000e+00   0.0000000000000000e+00   0.0000000000000000e+00   0.0000000000000000e+00   0.0000000000000000e+00   0.0000000000000000e+00   0.0000000000000000e+00   0.0000000000000000e+00   0.0000000000000000e+00   0.0000000000000000e+00   0.0000000000000000e+00   0.0000000000000000e+00   0.0000000000000000e+00   0.0000000000000000e+00   0.0000000000000000e+00   0.0000000000000000e+00   0.0000000000000000e+00   0.0000000000000000e+00   1.0368100754909378e+02   3.8798765385684135e+02   8.1138752229072188e+05   6.8216461000511458e+05   1.1363510577849206e+06   1.0322072184279541e+06   1.2280658811687629e+06   1.1635526256994754e+06   1.1654958372617783e+06   1.2111677172749084e+06   1.0182769165340351e+06   1.1177879373729022e+06   5.5326779753298860e+05   6.3184521742190211e+05   3.5812857536614901e-07   3.2747240859387908e-08   0.0000000000000000e+00   0.0000000000000000e+00   0.0000000000000000e+00   0.0000000000000000e+00   0.0000000000000000e+00   0.0000000000000000e+00   0.0000000000000000e+00   0.0000000000000000e+00   0.0000000000000000e+00   0.0000000000000000e+00   0.0000000000000000e+00   0.0000000000000000e+00   0.0000000000000000e+00   0.0000000000000000e+00   0.0000000000000000e+00   0.0000000000000000e+00   0.0000000000000000e+00   0.0000000000000000e+00   4.8954267234028957e+03   8.5606026093556375e+03   5.7265222815381759e+05   4.4957245524522924e+05   9.7659354892510432e+05   8.9231989175662736e+05   1.1816129977376601e+06   1.1686540211073891e+06   1.2233079711441291e+06   1.2782605114580954e+06   1.1877960667441359e+06   1.2768483382845325e+06   7.6600000177549303e+05   8.2738599321686837e+05   1.7790206257045651e-09   5.4652184336221727e-10   0.0000000000000000e+00   0.0000000000000000e+00   0.0000000000000000e+00   0.0000000000000000e+00   0.0000000000000000e+00   0.0000000000000000e+00   0.0000000000000000e+00   0.0000000000000000e+00   0.0000000000000000e+00   0.0000000000000000e+00   0.0000000000000000e+00   0.0000000000000000e+00   0.0000000000000000e+00   0.0000000000000000e+00   0.0000000000000000e+00   0.0000000000000000e+00   0.0000000000000000e+00   0.0000000000000000e+00   6.4274544194201044e+03   4.2379687715234022e+03   3.7612077722928039e+05   2.7026441214335687e+05   8.3024152297068352e+05   7.3115676163053932e+05   1.1468390853509072e+06   1.1584903533740728e+06   1.2948062477377811e+06   1.4437608118180945e+06   1.3488837281211759e+06   1.4381455982398917e+06   9.5323335016023915e+05   1.0045328574278401e+06   2.5694863669390299e-10   1.5275391297063319e-10   0.0000000000000000e+00   0.0000000000000000e+00   0.0000000000000000e+00   0.0000000000000000e+00   0.0000000000000000e+00   0.0000000000000000e+00   0.0000000000000000e+00   0.0000000000000000e+00   0.0000000000000000e+00   0.0000000000000000e+00   0.0000000000000000e+00   0.0000000000000000e+00   0.0000000000000000e+00   0.0000000000000000e+00   0.0000000000000000e+00   0.0000000000000000e+00   0.0000000000000000e+00   0.0000000000000000e+00   0.0000000000000000e+00   1.6014017439370173e+02   2.6545420847617573e+05   1.7932626646013727e+05   7.2610136139360175e+05   6.4726438823919464e+05   1.1478774972512026e+06   1.0695251665193420e+06   1.4640570077424753e+06   1.5738031405626980e+06   1.6547312682336976e+06   1.8145664111899887e+06   1.1322378226117366e+06   1.2348175691930400e+06   0.0000000000000000e+00   0.0000000000000000e+00   0.0000000000000000e+00   0.0000000000000000e+00   0.0000000000000000e+00   0.0000000000000000e+00   0.0000000000000000e+00   0.0000000000000000e+00   0.0000000000000000e+00   0.0000000000000000e+00   0.0000000000000000e+00   0.0000000000000000e+00   0.0000000000000000e+00   0.0000000000000000e+00   0.0000000000000000e+00   0.0000000000000000e+00   0.0000000000000000e+00   0.0000000000000000e+00   0.0000000000000000e+00   0.0000000000000000e+00   0.0000000000000000e+00   0.0000000000000000e+00   0.0000000000000000e+00   0.0000000000000000e+00   0.0000000000000000e+00   6.8715803795663582e+05   1.1587961093331699e+06   1.0411197550063628e+06   1.6115060812194685e+06   1.4691164646749359e+06   2.0093897844671702e+06   2.0666024548268602e+06   1.3626781625342108e+06   1.4405107182879583e+06   0.0000000000000000e+00   0.0000000000000000e+00   0.0000000000000000e+00   0.0000000000000000e+00   0.0000000000000000e+00   0.0000000000000000e+00   0.0000000000000000e+00   0.0000000000000000e+00   0.0000000000000000e+00   0.0000000000000000e+00   0.0000000000000000e+00   0.0000000000000000e+00   0.0000000000000000e+00   0.0000000000000000e+00   0.0000000000000000e+00   0.0000000000000000e+00   0.0000000000000000e+00   0.0000000000000000e+00   0.0000000000000000e+00   0.0000000000000000e+00   0.0000000000000000e+00   0.0000000000000000e+00   0.0000000000000000e+00   0.0000000000000000e+00   0.0000000000000000e+00   0.0000000000000000e+00   0.0000000000000000e+00   0.0000000000000000e+00   0.0000000000000000e+00   1.5117747212354422e+06   1.8749885438923968e+06   1.8693157286015395e+06   1.5668020372455097e+06   1.4889848990460804e+06   0.0000000000000000e+00   0.0000000000000000e+00   0.0000000000000000e+00   0.0000000000000000e+00   0.0000000000000000e+00   0.0000000000000000e+00   0.0000000000000000e+00   0.0000000000000000e+00   0.0000000000000000e+00   0.0000000000000000e+00   0.0000000000000000e+00   0.0000000000000000e+00   0.0000000000000000e+00   0.0000000000000000e+00   0.0000000000000000e+00   0.0000000000000000e+00   0.0000000000000000e+00   0.0000000000000000e+00   0.0000000000000000e+00   0.0000000000000000e+00   0.0000000000000000e+00   0.0000000000000000e+00   0.0000000000000000e+00   0.0000000000000000e+00   0.0000000000000000e+00   0.0000000000000000e+00   0.0000000000000000e+00   0.0000000000000000e+00   0.0000000000000000e+00   0.0000000000000000e+00   0.0000000000000000e+00   0.0000000000000000e+00   0.0000000000000000e+00   1.5869130178651686e+06   0.0000000000000000e+00   0.0000000000000000e+00   0.0000000000000000e+00   0.0000000000000000e+00   0.0000000000000000e+00   0.0000000000000000e+00   0.0000000000000000e+00   0.0000000000000000e+00   0.0000000000000000e+00   0.0000000000000000e+00   0.0000000000000000e+00   0.0000000000000000e+00   0.0000000000000000e+00   0.0000000000000000e+00   0.0000000000000000e+00   0.0000000000000000e+00   0.0000000000000000e+00   0.0000000000000000e+00   0.0000000000000000e+00   0.0000000000000000e+00   0.0000000000000000e+00   0.00000000