<?xml version="1.0"?>
<VTKFile type="UnstructuredGrid"  version="0.1"  >
<UnstructuredGrid>
<Piece  NumberOfPoints="614" NumberOfCells="1122">
<Points>
<DataArray  type="Float64"  NumberOfComponents="3"  format="ascii">2.792173913043478 0.2166666666666667 0  2.792173913043478 0.2333333333333333 0  2.808695652173913 0.2333333333333333 0  2.445217391304348 0.2333333333333333 0  2.461739130434782 0.2333333333333333 0  2.461739130434782 0.25 0  2.445217391304348 0.25 0  2.478260869565217 0.2333333333333333 0  2.478260869565217 0.25 0  2.494782608695652 0.2333333333333333 0  2.494782608695652 0.25 0  2.511304347826087 0.2333333333333333 0  2.511304347826087 0.25 0  2.527826086956522 0.2333333333333333 0  2.527826086956522 0.25 0  2.544347826086956 0.2333333333333333 0  2.544347826086956 0.25 0  2.560869565217391 0.2333333333333333 0  2.560869565217391 0.25 0  2.577391304347826 0.2333333333333333 0  2.577391304347826 0.25 0  2.593913043478261 0.2333333333333333 0  2.593913043478261 0.25 0  2.610434782608696 0.2333333333333333 0  2.610434782608696 0.25 0  2.62695652173913 0.2333333333333333 0  2.62695652173913 0.25 0  2.643478260869565 0.2333333333333333 0  2.643478260869565 0.25 0  2.66 0.2333333333333333 0  2.66 0.25 0  2.676521739130435 0.2333333333333333 0  2.676521739130435 0.25 0  2.693043478260869 0.2333333333333333 0  2.693043478260869 0.25 0  2.709565217391304 0.2333333333333333 0  2.709565217391304 0.25 0  2.726086956521739 0.2333333333333333 0  2.726086956521739 0.25 0  2.742608695652174 0.2333333333333333 0  2.742608695652174 0.25 0  2.759130434782609 0.2333333333333333 0  2.759130434782609 0.25 0  2.775652173913044 0.2333333333333333 0  2.775652173913044 0.25 0  2.792173913043478 0.25 0  2.808695652173913 0.25 0  2.825217391304347 0.25 0  2.28 0.25 0  2.296521739130434 0.25 0  2.296521739130434 0.2666666666666667 0  2.28 0.2666666666666667 0  2.31304347826087 0.25 0  2.31304347826087 0.2666666666666667 0  2.329565217391304 0.25 0  2.329565217391304 0.2666666666666667 0  2.346086956521739 0.25 0  2.346086956521739 0.2666666666666667 0  2.362608695652174 0.25 0  2.362608695652174 0.2666666666666667 0  2.379130434782609 0.25 0  2.379130434782609 0.2666666666666667 0  2.395652173913044 0.25 0  2.395652173913044 0.2666666666666667 0  2.412173913043478 0.25 0  2.412173913043478 0.2666666666666667 0  2.428695652173913 0.25 0  2.428695652173913 0.2666666666666667 0  2.445217391304348 0.2666666666666667 0  2.461739130434782 0.2666666666666667 0  2.478260869565217 0.2666666666666667 0  2.494782608695652 0.2666666666666667 0  2.511304347826087 0.2666666666666667 0  2.527826086956522 0.2666666666666667 0  2.544347826086956 0.2666666666666667 0  2.560869565217391 0.2666666666666667 0  2.577391304347826 0.2666666666666667 0  2.593913043478261 0.2666666666666667 0  2.610434782608696 0.2666666666666667 0  2.62695652173913 0.2666666666666667 0  2.643478260869565 0.2666666666666667 0  2.66 0.2666666666666667 0  2.676521739130435 0.2666666666666667 0  2.693043478260869 0.2666666666666667 0  2.709565217391304 0.2666666666666667 0  2.726086956521739 0.2666666666666667 0  2.742608695652174 0.2666666666666667 0  2.759130434782609 0.2666666666666667 0  2.775652173913044 0.2666666666666667 0  2.792173913043478 0.2666666666666667 0  2.808695652173913 0.2666666666666667 0  2.825217391304347 0.2666666666666667 0  2.841739130434783 0.2666666666666667 0  2.24695652173913 0.2666666666666667 0  2.263478260869565 0.2666666666666667 0  2.263478260869565 0.2833333333333333 0  2.28 0.2833333333333333 0  2.296521739130434 0.2833333333333333 0  2.31304347826087 0.2833333333333333 0  2.329565217391304 0.2833333333333333 0  2.346086956521739 0.2833333333333333 0  2.362608695652174 0.2833333333333333 0  2.379130434782609 0.2833333333333333 0  2.395652173913044 0.2833333333333333 0  2.412173913043478 0.2833333333333333 0  2.428695652173913 0.2833333333333333 0  2.445217391304348 0.2833333333333333 0  2.461739130434782 0.2833333333333333 0  2.478260869565217 0.2833333333333333 0  2.494782608695652 0.2833333333333333 0  2.511304347826087 0.2833333333333333 0  2.527826086956522 0.2833333333333333 0  2.544347826086956 0.2833333333333333 0  2.560869565217391 0.2833333333333333 0  2.577391304347826 0.2833333333333333 0  2.593913043478261 0.2833333333333333 0  2.610434782608696 0.2833333333333333 0  2.62695652173913 0.2833333333333333 0  2.643478260869565 0.2833333333333333 0  2.66 0.2833333333333333 0  2.676521739130435 0.2833333333333333 0  2.693043478260869 0.2833333333333333 0  2.709565217391304 0.2833333333333333 0  2.726086956521739 0.2833333333333333 0  2.742608695652174 0.2833333333333333 0  2.759130434782609 0.2833333333333333 0  2.775652173913044 0.2833333333333333 0  2.792173913043478 0.2833333333333333 0  2.808695652173913 0.2833333333333333 0  2.825217391304347 0.2833333333333333 0  2.841739130434783 0.2833333333333333 0  2.858260869565217 0.2833333333333333 0  2.28 0.3 0  2.296521739130434 0.3 0  2.31304347826087 0.3 0  2.329565217391304 0.3 0  2.346086956521739 0.3 0  2.362608695652174 0.3 0  2.379130434782609 0.3 0  2.395652173913044 0.3 0  2.412173913043478 0.3 0  2.428695652173913 0.3 0  2.445217391304348 0.3 0  2.461739130434782 0.3 0  2.478260869565217 0.3 0  2.494782608695652 0.3 0  2.511304347826087 0.3 0  2.527826086956522 0.3 0  2.544347826086956 0.3 0  2.560869565217391 0.3 0  2.577391304347826 0.3 0  2.593913043478261 0.3 0  2.610434782608696 0.3 0  2.62695652173913 0.3 0  2.643478260869565 0.3 0  2.66 0.3 0  2.676521739130435 0.3 0  2.693043478260869 0.3 0  2.709565217391304 0.3 0  2.726086956521739 0.3 0  2.742608695652174 0.3 0  2.759130434782609 0.3 0  2.775652173913044 0.3 0  2.792173913043478 0.3 0  2.808695652173913 0.3 0  2.825217391304347 0.3 0  2.841739130434783 0.3 0  2.858260869565217 0.3 0  2.874782608695652 0.3 0  2.296521739130434 0.3166666666666667 0  2.31304347826087 0.3166666666666667 0  2.329565217391304 0.3166666666666667 0  2.346086956521739 0.3166666666666667 0  2.362608695652174 0.3166666666666667 0  2.379130434782609 0.3166666666666667 0  2.395652173913044 0.3166666666666667 0  2.412173913043478 0.3166666666666667 0  2.428695652173913 0.3166666666666667 0  2.445217391304348 0.3166666666666667 0  2.461739130434782 0.3166666666666667 0  2.478260869565217 0.3166666666666667 0  2.494782608695652 0.3166666666666667 0  2.511304347826087 0.3166666666666667 0  2.527826086956522 0.3166666666666667 0  2.544347826086956 0.3166666666666667 0  2.560869565217391 0.3166666666666667 0  2.577391304347826 0.3166666666666667 0  2.593913043478261 0.3166666666666667 0  2.610434782608696 0.3166666666666667 0  2.62695652173913 0.3166666666666667 0  2.643478260869565 0.3166666666666667 0  2.66 0.3166666666666667 0  2.676521739130435 0.3166666666666667 0  2.693043478260869 0.3166666666666667 0  2.709565217391304 0.3166666666666667 0  2.726086956521739 0.3166666666666667 0  2.742608695652174 0.3166666666666667 0  2.759130434782609 0.3166666666666667 0  2.775652173913044 0.3166666666666667 0  2.792173913043478 0.3166666666666667 0  2.808695652173913 0.3166666666666667 0  2.825217391304347 0.3166666666666667 0  2.841739130434783 0.3166666666666667 0  2.858260869565217 0.3166666666666667 0  2.874782608695652 0.3166666666666667 0  2.891304347826087 0.3166666666666667 0  2.31304347826087 0.3333333333333333 0  2.329565217391304 0.3333333333333333 0  2.346086956521739 0.3333333333333333 0  2.362608695652174 0.3333333333333333 0  2.379130434782609 0.3333333333333333 0  2.395652173913044 0.3333333333333333 0  2.412173913043478 0.3333333333333333 0  2.428695652173913 0.3333333333333333 0  2.445217391304348 0.3333333333333333 0  2.461739130434782 0.3333333333333333 0  2.478260869565217 0.3333333333333333 0  2.494782608695652 0.3333333333333333 0  2.511304347826087 0.3333333333333333 0  2.527826086956522 0.3333333333333333 0  2.544347826086956 0.3333333333333333 0  2.560869565217391 0.3333333333333333 0  2.577391304347826 0.3333333333333333 0  2.593913043478261 0.3333333333333333 0  2.610434782608696 0.3333333333333333 0  2.62695652173913 0.3333333333333333 0  2.643478260869565 0.3333333333333333 0  2.66 0.3333333333333333 0  2.676521739130435 0.3333333333333333 0  2.693043478260869 0.3333333333333333 0  2.709565217391304 0.3333333333333333 0  2.726086956521739 0.3333333333333333 0  2.742608695652174 0.3333333333333333 0  2.759130434782609 0.3333333333333333 0  2.775652173913044 0.3333333333333333 0  2.792173913043478 0.3333333333333333 0  2.808695652173913 0.3333333333333333 0  2.825217391304347 0.3333333333333333 0  2.841739130434783 0.3333333333333333 0  2.858260869565217 0.3333333333333333 0  2.874782608695652 0.3333333333333333 0  2.891304347826087 0.3333333333333333 0  2.907826086956522 0.3333333333333333 0  2.329565217391304 0.35 0  2.346086956521739 0.35 0  2.362608695652174 0.35 0  2.379130434782609 0.35 0  2.395652173913044 0.35 0  2.412173913043478 0.35 0  2.428695652173913 0.35 0  2.445217391304348 0.35 0  2.461739130434782 0.35 0  2.478260869565217 0.35 0  2.494782608695652 0.35 0  2.511304347826087 0.35 0  2.527826086956522 0.35 0  2.544347826086956 0.35 0  2.560869565217391 0.35 0  2.577391304347826 0.35 0  2.593913043478261 0.35 0  2.610434782608696 0.35 0  2.62695652173913 0.35 0  2.643478260869565 0.35 0  2.66 0.35 0  2.676521739130435 0.35 0  2.693043478260869 0.35 0  2.709565217391304 0.35 0  2.726086956521739 0.35 0  2.742608695652174 0.35 0  2.759130434782609 0.35 0  2.775652173913044 0.35 0  2.792173913043478 0.35 0  2.808695652173913 0.35 0  2.825217391304347 0.35 0  2.841739130434783 0.35 0  2.858260869565217 0.35 0  2.874782608695652 0.35 0  2.891304347826087 0.35 0  2.907826086956522 0.35 0  2.924347826086957 0.35 0  2.346086956521739 0.3666666666666666 0  2.362608695652174 0.3666666666666666 0  2.379130434782609 0.3666666666666666 0  2.395652173913044 0.3666666666666666 0  2.412173913043478 0.3666666666666666 0  2.428695652173913 0.3666666666666666 0  2.445217391304348 0.3666666666666666 0  2.461739130434782 0.3
[...]
<CellData  Scalars="sigma_m"> 
<DataArray  type="Float64"  Name="sigma_m"  format="ascii">0.0000000000000000e+00   0.0000000000000000e+00   0.0000000000000000e+00   0.0000000000000000e+00   0.0000000000000000e+00   0.0000000000000000e+00   0.0000000000000000e+00   0.0000000000000000e+00   0.0000000000000000e+00   0.0000000000000000e+00   0.0000000000000000e+00   0.0000000000000000e+00   0.0000000000000000e+00   0.0000000000000000e+00   0.0000000000000000e+00   0.0000000000000000e+00   0.0000000000000000e+00   4.5265774366312758e-03   0.0000000000000000e+00   8.4588994671500137e+05   1.7425936802125489e+05   1.0135345816462480e+06   9.6224759617615095e+05   9.6328426062877604e+05   9.5447674272188626e+05   7.0476896672173869e+05   7.5086140289998322e+05   1.6537813647382185e+05   3.7481774793021102e+05   0.0000000000000000e+00   2.6873232949178122e-02   0.0000000000000000e+00   0.0000000000000000e+00   0.0000000000000000e+00   0.0000000000000000e+00   0.0000000000000000e+00   0.0000000000000000e+00   0.0000000000000000e+00   0.0000000000000000e+00   0.0000000000000000e+00   0.0000000000000000e+00   0.0000000000000000e+00   0.0000000000000000e+00   0.0000000000000000e+00   0.0000000000000000e+00   0.0000000000000000e+00   0.0000000000000000e+00   0.0000000000000000e+00   9.5613890059749736e+05   1.1111002215226740e+06   4.6842156771634554e+05   4.9462426879352023e+05   8.2707418482161127e+05   4.4735428436991508e+05   1.2936737582331696e+06   1.2318961318438884e+06   1.6013496171722508e+06   1.8173801971222437e+06   1.1979558275344849e+06   1.3700585697828189e+06   0.0000000000000000e+00   0.0000000000000000e+00   0.0000000000000000e+00   0.0000000000000000e+00   0.0000000000000000e+00   0.0000000000000000e+00   0.0000000000000000e+00   0.0000000000000000e+00   0.0000000000000000e+00   0.0000000000000000e+00   0.0000000000000000e+00   0.0000000000000000e+00   0.0000000000000000e+00   0.0000000000000000e+00   0.0000000000000000e+00   0.0000000000000000e+00   0.0000000000000000e+00   0.0000000000000000e+00   0.0000000000000000e+00   0.0000000000000000e+00   0.0000000000000000e+00   0.0000000000000000e+00   0.0000000000000000e+00   0.0000000000000000e+00   2.3757169568607797e+01   0.0000000000000000e+00   1.2292482591258804e+06   9.9501532854396186e+05   1.1777251247315519e+06   1.1187102146245399e+06   8.8947069181089557e+05   8.9540759618320561e+05   5.2184910129054589e+05   5.5952443612152932e+05   3.1818475234383021e+02   1.8606471314412236e+05   0.0000000000000000e+00   3.1207544611424400e-05   0.0000000000000000e+00   0.0000000000000000e+00   0.0000000000000000e+00   0.0000000000000000e+00   0.0000000000000000e+00   0.0000000000000000e+00   0.0000000000000000e+00   0.0000000000000000e+00   0.0000000000000000e+00   0.0000000000000000e+00   0.0000000000000000e+00   0.0000000000000000e+00   0.0000000000000000e+00   0.0000000000000000e+00   0.0000000000000000e+00   0.0000000000000000e+00   0.0000000000000000e+00   0.0000000000000000e+00   8.7561568529461476e+05   1.4588101436051512e+06   7.9483157598068949e+05   1.0707409244998400e+06   6.9045951424332429e+05   1.6437610951008875e+05   1.4029279587474186e+06   1.1827678105936649e+06   2.0399669844238758e+06   2.0093507875012467e+06   2.5404254931272729e+06   1.5711438110349188e+06   1.1628113314277140e-08   6.9570578444877691e-08   0.0000000000000000e+00   0.0000000000000000e+00   0.0000000000000000e+00   0.0000000000000000e+00   0.0000000000000000e+00   0.0000000000000000e+00   0.0000000000000000e+00   0.0000000000000000e+00   0.0000000000000000e+00   0.0000000000000000e+00   0.0000000000000000e+00   0.0000000000000000e+00   0.0000000000000000e+00   0.0000000000000000e+00   0.0000000000000000e+00   0.0000000000000000e+00   0.0000000000000000e+00   0.0000000000000000e+00   0.0000000000000000e+00   0.0000000000000000e+00   0.0000000000000000e+00   0.0000000000000000e+00   0.0000000000000000e+00   0.0000000000000000e+00   0.0000000000000000e+00   0.0000000000000000e+00   8.1092569032626844e+05   0.0000000000000000e+00   1.6107719214839994e+06   1.4195246040456640e+06   1.1650769530456928e+06   1.1672519411532849e+06   7.6398196830216667e+05   7.9268471477566077e+05   3.0788398376037710e+05   3.9124357737914484e+05   1.6814771553622235e-01   3.0152659100712487e+05   0.0000000000000000e+00   7.0466399244509909e-11   0.0000000000000000e+00   0.0000000000000000e+00   0.0000000000000000e+00   0.0000000000000000e+00   0.0000000000000000e+00   0.0000000000000000e+00   0.0000000000000000e+00   0.0000000000000000e+00   0.0000000000000000e+00   0.0000000000000000e+00   0.0000000000000000e+00   0.0000000000000000e+00   0.0000000000000000e+00   0.0000000000000000e+00   9.5693054270526432e+01   1.8487215425622195e+05   1.7176255992384001e+06   1.9034173559893153e+06   5.5054329917957901e+05   4.4185204267201503e+05   1.4027579892406515e+06   9.8310331263290474e+05   2.2071661523609096e+06   2.1693265472603566e+06   3.0492905328866895e+06   2.1224108274824456e+06   1.4487227817793809e-04   3.0351492233638764e-03   0.0000000000000000e+00   0.0000000000000000e+00   0.0000000000000000e+00   0.0000000000000000e+00   0.0000000000000000e+00   0.0000000000000000e+00   0.0000000000000000e+00   0.0000000000000000e+00   0.0000000000000000e+00   0.0000000000000000e+00   0.0000000000000000e+00   0.0000000000000000e+00   0.0000000000000000e+00   0.0000000000000000e+00   0.0000000000000000e+00   0.0000000000000000e+00   0.0000000000000000e+00   0.0000000000000000e+00   0.0000000000000000e+00   0.0000000000000000e+00   0.0000000000000000e+00   0.0000000000000000e+00   0.0000000000000000e+00   0.0000000000000000e+00   0.0000000000000000e+00   0.0000000000000000e+00   0.0000000000000000e+00   0.0000000000000000e+00   0.0000000000000000e+00   0.0000000000000000e+00   1.4881035835221191e+06   2.3110632476792310e-04   1.4761873135364761e+06   1.4457424632836219e+06   1.1045009558205099e+06   1.0875842855148353e+06   6.6589375210559915e+05   6.8405308821010881e+05   8.6979483034395103e+04   2.7984249461417238e+05   1.8039390417396846e-07   5.5667459817400167e+05   0.0000000000000000e+00   0.0000000000000000e+00   0.0000000000000000e+00   0.0000000000000000e+00   0.0000000000000000e+00   0.0000000000000000e+00   0.0000000000000000e+00   0.0000000000000000e+00   0.0000000000000000e+00   0.0000000000000000e+00   0.0000000000000000e+00   0.0000000000000000e+00   3.3952573150418402e+02   2.5135355200226236e+03   2.2101130659377188e+05   6.8645749152578835e+04   6.0828736870508408e+05   7.8147812283240678e+05   1.4042989019518443e+06   8.7528594765921833e+05   2.4996979528031405e+06   2.2621905897555039e+06   2.9655844990485348e+06   3.3272170020734882e+06   6.5666235442989617e+01   1.1077451329973835e+03   0.0000000000000000e+00   0.0000000000000000e+00   0.0000000000000000e+00   0.0000000000000000e+00   0.0000000000000000e+00   0.0000000000000000e+00   0.0000000000000000e+00   0.0000000000000000e+00   0.0000000000000000e+00   0.0000000000000000e+00   0.0000000000000000e+00   0.0000000000000000e+00   0.0000000000000000e+00   0.0000000000000000e+00   0.0000000000000000e+00   0.0000000000000000e+00   0.0000000000000000e+00   0.0000000000000000e+00   0.0000000000000000e+00   0.0000000000000000e+00   0.0000000000000000e+00   0.0000000000000000e+00   0.0000000000000000e+00   0.0000000000000000e+00   0.0000000000000000e+00   0.0000000000000000e+00   0.0000000000000000e+00   0.0000000000000000e+00   0.0000000000000000e+00   0.0000000000000000e+00   0.0000000000000000e+00   0.0000000000000000e+00   8.5238043700205274e-08   0.0000000000000000e+00   1.8704302569914744e+06   1.7866411501170802e+02   1.5210249410417695e+06   1.5156655377439007e+06   1.1064568121073428e+06   1.0797875887561371e+06   5.2972734457507066e+05   5.9107632154752954e+05   3.2425444129028160e+05   5.2194244248590613e+05   1.2933111252103815e-10   4.1255005587699177e+05   0.0000000000000000e+00   0.0000000000000000e+00   0.0000000000000000e+00   0.0000000000000000e+00   0.0000000000000000e+00   0.0000000000000000e+00   6.0838828276567523e-09   1.5859003252536571e-06   1.0587284248584823e+06   7.3719953314212896e+05   5.6429383264141076e+05   6.9347066058309982e+05   6.2408907963296794e+05   5.1837455045748269e+05   1.1223096750829252e+06   1.1466263873178773e+06   1.4799429507185610e+06   2.6010665993977915e+06   3.4869113667037482e+06   3.5840765678170566e+06   1.3124962158259407e+06   6.3992700868184969e+05   0.0000000000000000e+00   0.0000000000000000e+00   0.0000000000000000e+00   0.0000000000000000e+00   0.0000000000000000e+00   0.0000000000000000e+00   0.0000000000000000e+00   0.0000000000000000e+00   0.0000000000000000e+00   0.0000000000000000e+00   0.0000000000000000e+00   0.0000000000000000e+00   0.0000000000000000e+00   0.0000000000000000e+00   0.0000000000000000e+00   0.0000000000000000e+00   0.0000000000000000e+00   0.0000000000000000e+00   0.0000000000000000e+00   0.0000000000000000e+00   0.0000000000000000e+00   0.0000000000000000e+00   0.0000000000000000e+00   0.0000000000000000e+00   0.0000000000000000e+00   0.0000000000000000e+00   0.0000000000000000e+00   0.0000000000000000e+00   0.0000000000000000e+00   0.0000000000000000e+00   0.0000000000000000e+00   0.0000000000000000e+00   0.0000000000000000e+00   0.0000000000000000e+00   0.0000000000000000e+00   0.0000000000000000e+00   1.6539815233744856e-02   0.0000000000000000e+00   1.7296166072958168e+06   1.6225820309646658e+05   1.6172595986045147e+06   1.4925737798303873e+06   1.1512502951297720e+06   1.0471284132502557e+06   5.1590415495948301e+05   5.0033390469399001e+05   7.6181271267134172e+05   9.4191910167122749e+05   3.5313801721669265e+01   1.3913118719907040e+06   5.5421937173782843e-03   7.9936146535974418e+04   6.6907728746577814e+03   8.9298977562806301e+05   3.3213555664745918e+06   1.5686957820469621e+06   7.7168462240832800e+05   8.2153935849421192e+05   7.1022447612916317e+05   5.3166182015443547e+05   1.2114776600342791e+06   1.5527723253866672e+06   1.5675327794784934e+06   1.9423010056231692e+06   1.8840501359410926e+06   1.9236288311326979e+06   1.6072650434997659e+06   2.6217498014383307e+06   0.0000000000000000e+00   0.0000000000000000e+00   0.0000000000000000e+00   0.0000000000000000e+00   0.0000000000000000e+00   0.0000000000000000e+00   0.0000000000000000e+00   0.0000000000000000e+00   0.0000000000000000e+00   0.0000000000000000e+00   0.0000000000000000e+00   0.0000000000000000e+00   0.0000000000000000e+00   0.0000000000000000e+00   0.0000000000000000e+00   0.0000000000000000e+00   0.0000000000000000e+00   0.0000000000000000e+00   0.0000000000000000e+00   0.0000000000000000e+00   0.0000000000000000e+00   0.0000000000000000e+00   0.0000000000000000e+00   0.0000000000000000e+00   0.0000000000000000e+00   0.0000000000000000e+00   0.0000000000000000e+00   0.0000000000000000e+00   0.0000000000000000e+00   0.0000000000000000e+00   0.0000000000000000e+00   0.0000000000000000e+00   0.0000000000000000e+00   0.0000000000000000e+00   0.0000000000000000e+00   0.0000000000000000e+00   0.0000000000000000e+00   0.0000000000000000e+00   0.0000000000000000e+00   0.0000000000000000e+00   1.6467520429556894e+00   0.0000000000000000e+00   2.2755718504311787e+06   3.8242745185170596e+05   1.8056097886397466e+06   1.6888617806884761e+06   1.0251281920334973e+06   9.9404192927547137e+05   1.3120765564493657e+05   7.3794562017580448e+05   8.8616588534686761e+05   1.1105074951153218e+06   1.5233417353356427e+06   8.9570722436659154e+05   2.0183951246628743e+06   4.3724452184428688e+05   1.4847070957580106e+06   6.5843095370402536e+05   1.0104784826012107e+06   1.4514676301011022e+06   1.4122355978682225e+06   2.0710885119775683e+06   2.0420122881322887e+06   2.9433219530407642e+06   2.3414015378044010e+06   2.7471968433192754e+06   1.7265190515401934e+06   1.8197518134178112e+06   0.0000000000000000e+00   0.0000000000000000e+00   0.0000000000000000e+00   0.0000000000000000e+00   0.0000000000000000e+00   0.0000000000000000e+00   0.0000000000000000e+00   0.0000000000000000e+00   0.0000000000000000e+00   0.0000000000000000e+00   0.0000000000000000e+00   0.0000000000000000e+00   0.0000000000000000e+00   0.0000000000000000e+00   0.0000000000000000e+00   0.0000000000000000e+00   0.0000000000000000e+00   0.0000000000000000e+00   0.0000000000000000e+00   0.0000000000000000e+00   0.0000000000000000e+00   0.0000000000000000e+00   0.0000000000000000e+00   0.0000000000000000e+00   0.0000000000000000e+00   0.0000000000000000e+00   0.0000000000000000e+00   0.0000000000000000e+00   0.0000000000000000e+00   0.0000000000000000e+00   0.0000000000000000e+00   0.0000000000000000e+00   0.0000000000000000e+00   0.0000000000000000e+00   0.0000000000000000e+00   0.0000000000000000e+00   0.0000000000000000e+00   0.0000000000000000e+00   0.0000000000000000e+00   0.0000000000000000e+00   0.0000000000000000e+00   0.0000000000000000e+00   0.0000000000000000e+00   0.0000000000000000e+00   5.0900672114753513e+00   0.0000000000000000e+00   2.6934942345744823e+06   1.8999201988647047e+06   1.7131241718185146e+06   1.7207159711206811e+06   4.2636894948942092e+05   1.1141540359905339e+06   8.8359969765782298e+05   1.0435684590291015e+06   1.0731705367798817e+06   8.8169719507428200e+05   6.3789914611045725e+05   5.1616636740899406e+05   7.5118144843612344e+05   1.7515067423806030e+06   1.9290659178060903e+06   2.7291133907412640e+06   2.8421950643577408e+06   3.1963906626663450e+06   3.0612510217188019e+06   4.2106074034517361e+06   5.0746075126817776e+05   3.9209247933804378e+05   0.0000000000000000e+00   0.0000000000000000e+00   0.0000000000000000e+00   0.0000000000000000e+00   0.0000000000000000e+00   0.0000000000000000e+00   0.0000000000000000e+00   0.0000000000000000e+00   0.0000000000000000e+00   0.0000000000000000e+00   0.0000000000000000e+00   0.0000000000000000e+00   0.0000000000000000e+00   0.0000000000000000e+00   0.0000000000000000e+00   0.0000000000000000e+00   0.0000000000000000e+00   0.0000000000000000e+00   0.0000000000000000e+00   0.0000000000000000e+00   0.0000000000000000e+00   0.0000000000000000e+00   0.0000000000000000e+00   0.0000000000000000e+00   0.0000000000000000e+00   0.0000000000000000e+00   0.0000000000000000e+00   0.0000000000000000e+00   0.0000000000000000e+00   0.0000000000000000e+00   0.0000000000000000e+00   0.0000000000000000e+00   0.0000000000000000e+00   0.0000000000000000e+00   0.0000000000000000e+00   0.0000000000000000e+00   0.0000000000000000e+00   0.0000000000000000e+00   0.0000000000000000e+00   0.0000000000000000e+00   0.0000000000000000e+00   0.0000000000000000e+00   0.0000000000000000e+00   0.0000000000000000e+00   0.0000000000000000e+00   0.0000000000000000e+00   0.0000000000000000e+00   0.0000000000000000e+00   7.6942831110452139e+05   3.2239877061179827e-09   3.0257971733565321e+06   3.2829964800671763e+06   9.7322774076277053e+05   1.8886912191058795e+06   2.0144013345358614e+05   8.9118297785856749e+05   6.3252949043252447e+05   4.3183177949134505e+05   1.2271967813902218e+06   1.3669360429006917e+06   2.4159138722117115e+06   3.3462173589035748e+06   3.3041267612476107e+06   4.3130590029115863e+06   2.4250970040456885e+06   4.1712504371470953e+06   3.8543225140756754e-01   9.6444514065852961e-04   0.0000000000000000e+00   0.0000000000000000e+00   0.0000000000000000e+00   0.0000000000000000e+00   0.0000000000000000e+00   0.0000000000000000e+00   0.0000000000000000e+00   0.0000000000000000e+00   0.0000000000000000e+00   0.0000000000000000e+00   0.0000000000000000e+00   0.0000000000000000e+00   0.0000000000000000e+00   0.0000000000000000e+00   0.0000000000000000e+00   0.0000000000000000e+00   0.0000000000000000e+00   0.0000000000000000e+00   0.0000000000000000e+00   0.0000000000000000e+00   0.0000000000000000e+00   0.0000000000000000e+00   0.0000000000000000e+00   0.0000000000000000e+00   0.0000000000000000e+00   0.0000000000000000e+00   0.0000000000000000e+00   0.0000000000000000e+00   0.0000000000000000e+00   0.0000000000000000e+00   0.0000000000000000e+00   0.0000000000000000e+00   0.0000000000000000e+00   0.0000000000000000e+00   0.0000000000000000e+00   0.0000000000000000e+00   0.0000000000000000e+00   0.0000000000000000e+00   0.0000000000000000e+00   0.0000000000000000e+00   0.0000000000000000e+00   0.0000000000000000e+00   0.0000000000000000e+00   0.0000000000000000e+00   0.0000000000000000e+00   0.0000000000000000e+00   0.0000000000000000e+00   0.0000000000000000e+00   0.0000000000000000e+00   0.0000000000000000e+00   2.2957336044347847e-09   0.0000000000000000e+00   4.2277998665625704e+06   1.1175050324353692e+06   1.7628453860837808e+06   3.2236798366318094e+06   9.5614287145357521e+05   1.1058393984503683e+06   1.8141393593158089e+06   6.4859996698889323e+05   3.3321398785732482e+06   2.7142399003400886e+06   4.9149253879761342e+06   4.9081347267982271e+06   4.7843171177873359e+05   1.4208440119458278e+05   5.0370806820949177e-10   0.0000000000000000e+00   0.0000000000000000e+00   0.0000000000000000e+00   0.0000000000000000e+00   0.0000000000000000e+00   0.0000000000000000e+00   0.0000000000000000e+00   0.0000000000000000e+00   0.0000000000000000e+00   0.0000000000000000e+00   0.0000000000000000e+00   0.0000000000000000e+00   0.0000000000000000e+00   0.0000000000000000e+00   0.0000000000000000e+00   0.0000000000000000e+00   0.0000000000000000e+00   0.0000000000000000e+00   0.0000000000000000e+00   0.0000000000000000e+00   0.0000000000000000e+00   0.0000000000000000e+00   0.0000000000000000e+00   0.0000000000000000e+00   0.0000000000000000e+00   0.0000000000000000e+00   0.0000000000000000e+00   0.0000000000000000e+00   0.0000000000000000e+00   0.0000000000000000e+00   0.0000000000000000e+00   0.0000000000000000e+00   0.0000000000000000e+00   0.0000000000000000e+00   0.0000000000000000e+00   0.0000000000000000e+00   0.0000000000000000e+00   0.0000000000000000e+00   0.0000000000000000e+00   0.0000000000000000e+00   0.0000000000000000e+00   0.0000000000000000e+00   0.0000000000000000e+00   0.0000000000000000e+00   0.0000000000000000e+00   0.0000000000000000e+00   0.0000000000000000e+00   0.0000000000000000e+00   0.0000000000000000e+00   0.0000000000000000e+00   0.0000000000000000e+00   0.0000000000000000e+00   0.0000000000000000e+00   0.0000000000000000e+00   0.0000000000000000e+00   1.7928065193746318e+06   6.0118485288319412e-01   2.1547583290064787e+06   3.1639549785940084e+06   2.1546055489701745e+06   1.7053054048576679e+06   3.2409515332792546e+06   1.3780168539419565e+06   5.1147088464913080e+06   3.9207924943524352e+06   1.0681921091584058e+04   9.3231865661889169e+04   0.0000000000000000e+00   0.0000000000000000e+00   0.0000000000000000e+00   0.0000000000000000e+00   0.0000000000000000e+00   0.0000000000000000e+00   0.0000000000000000e+00   0.0000000000000000e+00   0.0000000000000000e+00   0.0000000000000000e+00   0.0000000000000000e+00   0.0000000000000000e+00   0.0000000000000000e+00   0.0000000000000000e+00   0.0000000000000000e+00   0.0000000000000000e+00   0.0000000000000000e+00   0.0000000000000000e+00   0.0000000000000000e+00   0.0000000000000000e+00   0.0000000000000000e+00   0.0000000000000000e+00   0.0000000000000000e+00   0.0000000000000000e+00   0.0000000000000000e+00   0.0000000000000000e+00   0.0000000000000000e+00   0.0000000000000000e+00   0.0000000000000000e+00   0.0000000000000000e+00   0.0000000000000000e+00   0.0000000000000000e+00   0.0000000000000000e+00   0.0000000000000000e+00   0.0000000000000000e+00   0.0000000000000000e+00   0.0000000000000000e+00   0.0000000000000000e+00   0.0000000000000000e+00   0.0000000000000000e+00   0.0000000000000000e+00   0.0000000000000000e+00   0.0000000000000000e+00   0.0000000000000000e+00   0.0000000000000000e+00   0.0000000000000000e+00   0.0000000000000000e+00   0.0000000000000000e+00   0.0000000000000000e+00   0.0000000000000000e+00   0.0000000000000000e+00   0.0000000000000000e+00   0.0000000000000000e+00   0.0000000000000000e+00   0.0000000000000000e+00   0.0000000000000000e+00   0.00000000