<?xml version="1.0"?>
<VTKFile type="UnstructuredGrid"  version="0.1"  >
<UnstructuredGrid>
<Piece  NumberOfPoints="639" NumberOfCells="1175">
<Points>
<DataArray  type="Float64"  NumberOfComponents="3"  format="ascii">1.321739130434783 0 0  1.338260869565217 0 0  1.338260869565217 0.01666666666666667 0  1.354782608695652 0 0  1.354782608695652 0.01666666666666667 0  1.371304347826087 0 0  1.371304347826087 0.01666666666666667 0  1.387826086956522 0 0  1.387826086956522 0.01666666666666667 0  1.404347826086957 0 0  1.404347826086957 0.01666666666666667 0  1.420869565217391 0 0  1.420869565217391 0.01666666666666667 0  1.437391304347826 0 0  1.437391304347826 0.01666666666666667 0  1.453913043478261 0 0  1.453913043478261 0.01666666666666667 0  1.470434782608696 0 0  1.470434782608696 0.01666666666666667 0  1.486956521739131 0 0  1.486956521739131 0.01666666666666667 0  1.503478260869565 0 0  1.503478260869565 0.01666666666666667 0  1.52 0 0  1.52 0.01666666666666667 0  1.536521739130435 0 0  1.536521739130435 0.01666666666666667 0  1.55304347826087 0 0  1.55304347826087 0.01666666666666667 0  1.569565217391304 0 0  1.569565217391304 0.01666666666666667 0  1.586086956521739 0 0  1.586086956521739 0.01666666666666667 0  1.602608695652174 0 0  1.602608695652174 0.01666666666666667 0  1.619130434782609 0 0  1.619130434782609 0.01666666666666667 0  1.635652173913043 0 0  1.635652173913043 0.01666666666666667 0  1.652173913043478 0 0  1.652173913043478 0.01666666666666667 0  1.668695652173913 0 0  1.668695652173913 0.01666666666666667 0  1.685217391304348 0 0  1.685217391304348 0.01666666666666667 0  1.701739130434782 0 0  1.701739130434782 0.01666666666666667 0  1.718260869565217 0 0  1.718260869565217 0.01666666666666667 0  1.734782608695652 0 0  1.734782608695652 0.01666666666666667 0  1.751304347826087 0 0  1.751304347826087 0.01666666666666667 0  1.767826086956522 0 0  1.767826086956522 0.01666666666666667 0  1.784347826086957 0 0  1.784347826086957 0.01666666666666667 0  1.800869565217391 0 0  1.800869565217391 0.01666666666666667 0  1.817391304347826 0 0  1.817391304347826 0.01666666666666667 0  1.833913043478261 0 0  1.833913043478261 0.01666666666666667 0  1.850434782608696 0 0  1.850434782608696 0.01666666666666667 0  1.86695652173913 0 0  1.86695652173913 0.01666666666666667 0  1.883478260869565 0 0  1.883478260869565 0.01666666666666667 0  1.354782608695652 0.03333333333333333 0  1.371304347826087 0.03333333333333333 0  1.387826086956522 0.03333333333333333 0  1.404347826086957 0.03333333333333333 0  1.420869565217391 0.03333333333333333 0  1.437391304347826 0.03333333333333333 0  1.453913043478261 0.03333333333333333 0  1.470434782608696 0.03333333333333333 0  1.486956521739131 0.03333333333333333 0  1.503478260869565 0.03333333333333333 0  1.52 0.03333333333333333 0  1.536521739130435 0.03333333333333333 0  1.55304347826087 0.03333333333333333 0  1.569565217391304 0.03333333333333333 0  1.586086956521739 0.03333333333333333 0  1.602608695652174 0.03333333333333333 0  1.619130434782609 0.03333333333333333 0  1.635652173913043 0.03333333333333333 0  1.652173913043478 0.03333333333333333 0  1.668695652173913 0.03333333333333333 0  1.685217391304348 0.03333333333333333 0  1.701739130434782 0.03333333333333333 0  1.718260869565217 0.03333333333333333 0  1.734782608695652 0.03333333333333333 0  1.751304347826087 0.03333333333333333 0  1.767826086956522 0.03333333333333333 0  1.784347826086957 0.03333333333333333 0  1.800869565217391 0.03333333333333333 0  1.817391304347826 0.03333333333333333 0  1.833913043478261 0.03333333333333333 0  1.850434782608696 0.03333333333333333 0  1.86695652173913 0.03333333333333333 0  1.883478260869565 0.03333333333333333 0  1.371304347826087 0.05 0  1.387826086956522 0.05 0  1.404347826086957 0.05 0  1.420869565217391 0.05 0  1.437391304347826 0.05 0  1.453913043478261 0.05 0  1.470434782608696 0.05 0  1.486956521739131 0.05 0  1.503478260869565 0.05 0  1.52 0.05 0  1.536521739130435 0.05 0  1.55304347826087 0.05 0  1.569565217391304 0.05 0  1.586086956521739 0.05 0  1.602608695652174 0.05 0  1.619130434782609 0.05 0  1.635652173913043 0.05 0  1.652173913043478 0.05 0  1.668695652173913 0.05 0  1.685217391304348 0.05 0  1.701739130434782 0.05 0  1.718260869565217 0.05 0  1.734782608695652 0.05 0  1.751304347826087 0.05 0  1.767826086956522 0.05 0  1.784347826086957 0.05 0  1.800869565217391 0.05 0  1.817391304347826 0.05 0  1.833913043478261 0.05 0  1.850434782608696 0.05 0  1.86695652173913 0.05 0  1.883478260869565 0.05 0  1.387826086956522 0.06666666666666667 0  1.404347826086957 0.06666666666666667 0  1.420869565217391 0.06666666666666667 0  1.437391304347826 0.06666666666666667 0  1.453913043478261 0.06666666666666667 0  1.470434782608696 0.06666666666666667 0  1.486956521739131 0.06666666666666667 0  1.503478260869565 0.06666666666666667 0  1.52 0.06666666666666667 0  1.536521739130435 0.06666666666666667 0  1.55304347826087 0.06666666666666667 0  1.569565217391304 0.06666666666666667 0  1.586086956521739 0.06666666666666667 0  1.602608695652174 0.06666666666666667 0  1.619130434782609 0.06666666666666667 0  1.635652173913043 0.06666666666666667 0  1.652173913043478 0.06666666666666667 0  1.668695652173913 0.06666666666666667 0  1.685217391304348 0.06666666666666667 0  1.701739130434782 0.06666666666666667 0  1.718260869565217 0.06666666666666667 0  1.734782608695652 0.06666666666666667 0  1.751304347826087 0.06666666666666667 0  1.767826086956522 0.06666666666666667 0  1.784347826086957 0.06666666666666667 0  1.800869565217391 0.06666666666666667 0  1.817391304347826 0.06666666666666667 0  1.833913043478261 0.06666666666666667 0  1.850434782608696 0.06666666666666667 0  1.86695652173913 0.06666666666666667 0  1.883478260869565 0.06666666666666667 0  1.404347826086957 0.08333333333333333 0  1.420869565217391 0.08333333333333333 0  1.437391304347826 0.08333333333333333 0  1.453913043478261 0.08333333333333333 0  1.470434782608696 0.08333333333333333 0  1.486956521739131 0.08333333333333333 0  1.503478260869565 0.08333333333333333 0  1.52 0.08333333333333333 0  1.536521739130435 0.08333333333333333 0  1.55304347826087 0.08333333333333333 0  1.569565217391304 0.08333333333333333 0  1.586086956521739 0.08333333333333333 0  1.602608695652174 0.08333333333333333 0  1.619130434782609 0.08333333333333333 0  1.635652173913043 0.08333333333333333 0  1.652173913043478 0.08333333333333333 0  1.668695652173913 0.08333333333333333 0  1.685217391304348 0.08333333333333333 0  1.701739130434782 0.08333333333333333 0  1.718260869565217 0.08333333333333333 0  1.734782608695652 0.08333333333333333 0  1.751304347826087 0.08333333333333333 0  1.767826086956522 0.08333333333333333 0  1.784347826086957 0.08333333333333333 0  1.800869565217391 0.08333333333333333 0  1.817391304347826 0.08333333333333333 0  1.833913043478261 0.08333333333333333 0  1.850434782608696 0.08333333333333333 0  1.86695652173913 0.08333333333333333 0  1.883478260869565 0.08333333333333333 0  1.420869565217391 0.1 0  1.437391304347826 0.1 0  1.453913043478261 0.1 0  1.470434782608696 0.1 0  1.486956521739131 0.1 0  1.503478260869565 0.1 0  1.52 0.1 0  1.536521739130435 0.1 0  1.55304347826087 0.1 0  1.569565217391304 0.1 0  1.586086956521739 0.1 0  1.602608695652174 0.1 0  1.619130434782609 0.1 0  1.635652173913043 0.1 0  1.652173913043478 0.1 0  1.668695652173913 0.1 0  1.685217391304348 0.1 0  1.701739130434782 0.1 0  1.718260869565217 0.1 0  1.734782608695652 0.1 0  1.751304347826087 0.1 0  1.767826086956522 0.1 0  1.784347826086957 0.1 0  1.800869565217391 0.1 0  1.817391304347826 0.1 0  1.833913043478261 0.1 0  1.850434782608696 0.1 0  1.86695652173913 0.1 0  1.883478260869565 0.1 0  1.437391304347826 0.1166666666666667 0  1.453913043478261 0.1166666666666667 0  1.470434782608696 0.1166666666666667 0  1.486956521739131 0.1166666666666667 0  1.503478260869565 0.1166666666666667 0  1.52 0.1166666666666667 0  1.536521739130435 0.1166666666666667 0  1.55304347826087 0.1166666666666667 0  1.569565217391304 0.1166666666666667 0  1.586086956521739 0.1166666666666667 0  1.602608695652174 0.1166666666666667 0  1.619130434782609 0.1166666666666667 0  1.635652173913043 0.1166666666666667 0  1.652173913043478 0.1166666666666667 0  1.668695652173913 0.1166666666666667 0  1.685217391304348 0.1166666666666667 0  1.701739130434782 0.1166666666666667 0  1.718260869565217 0.1166666666666667 0  1.734782608695652 0.1166666666666667 0  1.751304347826087 0.1166666666666667 0  1.767826086956522 0.1166666666666667 0  1.784347826086957 0.1166666666666667 0  1.800869565217391 0.1166666666666667 0  1.817391304347826 0.1166666666666667 0  1.833913043478261 0.1166666666666667 0  1.850434782608696 0.1166666666666667 0  1.86695652173913 0.1166666666666667 0  1.883478260869565 0.1166666666666667 0  1.453913043478261 0.1333333333333333 0  1.470434782608696 0.1333333333333333 0  1.486956521739131 0.1333333333333333 0  1.503478260869565 0.1333333333333333 0  1.52 0.1333333333333333 0  1.536521739130435 0.1333333333333333 0  1.55304347826087 0.1333333333333333 0  1.569565217391304 0.1333333333333333 0  1.586086956521739 0.1333333333333333 0  1.602608695652174 0.1333333333333333 0  1.619130434782609 0.1333333333333333 0  1.635652173913043 0.1333333333333333 0  1.652173913043478 0.1333333333333333 0  1.668695652173913 0.1333333333333333 0  1.685217391304348 0.1333333333333333 0  1.701739130434782 0.1333333333333333 0  1.718260869565217 0.1333333333333333 0  1.734782608695652 0.1333333333333333 0  1.751304347826087 0.1333333333333333 0  1.767826086956522 0.1333333333333333 0  1.784347826086957 0.1333333333333333 0  1.800869565217391 0.1333333333333333 0  1.817391304347826 0.1333333333333333 0  1.833913043478261 0.1333333333333333 0  1.850434782608696 0.1333333333333333 0  1.86695652173913 0.1333333333333333 0  1.883478260869565 0.1333333333333333 0  1.470434782608696 0.15 0  1.486956521739131 0.15 0  1.503478260869565 0.15 0  1.52 0.15 0  1.5365217391304
[...]
<CellData  Scalars="rho"> 
<DataArray  type="Float64"  Name="rho"  format="ascii">1.0000000000000000e+00   1.0000000000000000e+00   9.9971339985596241e-01   1.0000000000000000e+00   1.0000000000000000e+00   1.0000000000000000e+00   1.0000000000000000e+00   1.0000000000000000e+00   1.0000000000000000e+00   1.0000000000000000e+00   1.0000000000000000e+00   1.0000000000000000e+00   1.0000000000000000e+00   1.0000000000000000e+00   1.0000000000000000e+00   1.0000000000000000e+00   1.0000000000000000e+00   8.5672934627181441e-01   8.6969418746327454e-01   7.5140227610391053e-01   7.3014459741224058e-01   7.7592233342479855e-01   7.2516848324692229e-01   9.0024889413607745e-01   8.3308587389663236e-01   9.5831173507427647e-01   9.5252884638561330e-01   9.6394084734098251e-01   9.6438533076039534e-01   9.2274739320761001e-01   9.2901785622310717e-01   9.6891280864789642e-01   8.9276119317351454e-01   1.0000000000000000e+00   1.0000000000000000e+00   1.0000000000000000e+00   1.0000000000000000e+00   1.0000000000000000e+00   1.0000000000000000e+00   1.0000000000000000e+00   1.0000000000000000e+00   1.0000000000000000e+00   1.0000000000000000e+00   1.0000000000000000e+00   1.0000000000000000e+00   9.7531460468974429e-01   1.0000000000000000e+00   8.4356051684091171e-01   8.5847393490180868e-01   8.2067101599847403e-01   8.2476340782789326e-01   8.3263355396669969e-01   8.1718911795148852e-01   7.2880342301674339e-01   8.0323686825530749e-01   6.6686994085514939e-01   6.8774820045611174e-01   5.9318321714343880e-01   5.9609044745107276e-01   6.1510106742345971e-01   5.6143687060175407e-01   7.1395832906593792e-01   6.4157029272748911e-01   9.2321085452899809e-01   7.6939272337675302e-01   1.0000000000000000e+00   1.0000000000000000e+00   9.6327368826218307e-01   9.8933232824670003e-01   9.1114365729332680e-01   1.0000000000000000e+00   9.8031704321226698e-01   1.0000000000000000e+00   1.0000000000000000e+00   1.0000000000000000e+00   1.0000000000000000e+00   1.0000000000000000e+00   1.0000000000000000e+00   1.0000000000000000e+00   9.0640550357994143e-01   7.4819876228670623e-01   6.0844927598364584e-01   5.4813108222834372e-01   3.8391591084667798e-01   5.1349818291863480e-01   2.9048783508617365e-01   6.9645097444872417e-01   5.1640873354527095e-01   9.1958300463181186e-01   8.8057856163282633e-01   9.8748825510355409e-01   9.8617481007178132e-01   9.6076518005894662e-01   9.8815585273217077e-01   8.3033058966063777e-01   8.6851312898999289e-01   7.8691799100853232e-01   7.2942173848195491e-01   8.6034915887249985e-01   7.1767214936542212e-01   9.9798618831947217e-01   7.9863742194500953e-01   1.0000000000000000e+00   9.4325325824495343e-01   1.0000000000000000e+00   1.0000000000000000e+00   1.0000000000000000e+00   9.2781670278834627e-01   8.8184535122796925e-01   7.8374610700577341e-01   8.0751062793444650e-01   7.2095339488966959e-01   7.6785904386420800e-01   6.4587007826384046e-01   7.9016696610236581e-01   6.7394570655559805e-01   8.6090596348942205e-01   8.3748159822932078e-01   8.1538948329997329e-01   8.6255815785719969e-01   6.8816672159248848e-01   7.9669083394301088e-01   5.3518564652280742e-01   5.8990285904132300e-01   3.4119436226883459e-01   3.1631859986742600e-01   4.9557782561103947e-01   1.8600508132939653e-01   6.5761352040189391e-01   4.2192570665104284e-01   8.5747062685437003e-01   6.2540462820940734e-01   7.0754796291789479e-01   7.2873754296261373e-01   2.6963867428994659e-01   6.7256468393030511e-01   3.6983092276179791e-01   5.7874368182994318e-01   2.3616477395308391e-01   4.0494333388144294e-01   1.4975401883421819e-02   9.9442253030515071e-02   1.7345246548593159e-02   1.2678667753530833e-02   1.7233315878921844e-02   6.2835214447168122e-03   8.2091685295991625e-03   1.2204289444989553e-04   9.3439370762273867e-04   5.4547524952952764e-01   0.0000000000000000e+00   9.7799216977120240e-01   7.0467030498352168e-01   9.8877051200885135e-01   8.6049941890553683e-01   9.4781513932464678e-01   8.2799244489066937e-01   6.9825201206750409e-01   6.1144118731326724e-01   5.5711433967613389e-01   2.8502804866460857e-01   4.8813638695289258e-01   1.2929364632451307e-01   4.9987447281157898e-01   1.7936658282467922e-02   5.1255186694190602e-01   4.2354983957347818e-02   5.1526607050552364e-01   5.3910563481488129e-02   4.6749763304518821e-01   4.5714239864971751e-02   4.5458386486559449e-01   1.8832768226470963e-02   3.4486233329055738e-01   6.8804850026113048e-03   3.1277486247991515e-01   6.5716417231660956e-04   5.8051917436485667e-01   3.9763612600313948e-02   8.4616256064685158e-01   4.1999613679223879e-01   8.9965472923061063e-01   5.9517272042750979e-01   7.9987234540058161e-01   6.3001856591943439e-01   5.9044587753230837e-01   4.0104102530335733e-01   1.0978851669230519e-01   9.3413019293887747e-02   4.1312598047146994e-04   1.7722731898774796e-04   9.9199401519077242e-04   7.4639388972414541e-04   1.1872252716573943e-01   1.6524480589212951e-03   2.0767482386159705e-03   3.3740026689051050e-03   4.6446728954952646e-03   9.4757160107706954e-03   8.1996205335865789e-03   1.3441341273017058e-02   1.1866742576944801e-02   1.7027753202944387e-02   1.4644406742133957e-02   1.2627383984701689e-02   1.3627278337029935e-02   5.5722019281356922e-03   6.4862358062517693e-03   1.1122530427754594e-04   1.3867212197794885e-03   0.0000000000000000e+00   0.0000000000000000e+00   4.0846254505419144e-01   3.0722916205009297e-02   5.3828928084087957e-01   3.1587148226053885e-01   2.9494964074746499e-01   1.3743631276403703e-01   2.3079928814173475e-02   0.0000000000000000e+00   0.0000000000000000e+00   0.0000000000000000e+00   7.4091680531152872e-03   2.4321741634317595e-03   1.6183985769439798e-02   1.1940890298390964e-02   3.6761127250615769e-02   2.4982213992861525e-02   4.1805211118905908e-02   3.8278739158832835e-02   2.3394734416533572e-02   3.5361234979387937e-02   1.3559032673518642e-02   1.6064825579660148e-02   5.1590662103642281e-03   7.7653987323062345e-03   7.2252057016541728e-05   1.5913776133373583e-03   0.0000000000000000e+00   0.0000000000000000e+00   2.5715367083094559e-01   0.0000000000000000e+00   5.7430575263359573e-01   3.2340204392637756e-01   5.9023707543504467e-01   5.3616944884535278e-01   2.8894228829050234e-01   2.7664108514886615e-01   0.0000000000000000e+00   4.3384894817554368e-03   3.9018814453014986e-04   1.5894438547208421e-04   8.5612551301228598e-04   6.0871482751672203e-04   3.0920802909223922e-03   1.2820958383930119e-03   6.1848596023129079e-03   9.1177052686151807e-03   7.6558074094151725e-03   1.1911028300578028e-02   1.0236333628153065e-02   1.6539796951424414e-02   1.1685026212374813e-02   8.3127689712932558e-03   8.2323322829647404e-03   4.1475339908724346e-03   5.4237030987488105e-03   2.3492833048805055e-04   3.2880737969832771e-04   6.3985807216461067e-03   1.2392452806741919e-04   4.4464356924622750e-01   5.4981556019847011e-01   9.3234223205555100e-01   9.8232207674373051e-01   2.1477333800200474e-01   7.8891225860717917e-01   0.0000000000000000e+00   2.3413289556877482e-02   0.0000000000000000e+00   0.0000000000000000e+00   4.4555170890466598e-03   2.8780274218313334e-04   1.1760691101832036e-02   7.1302424257001073e-03   2.1740478956920713e-02   1.3376206826867298e-02   3.6735210133263210e-02   2.3912043619130029e-02   1.9431821955054503e-02   1.8315147376030627e-02   1.0424102335863012e-02   1.0741901362846662e-02   4.5909455484911916e-03   6.6505630842411114e-03   2.3005665978921000e-04   1.6800798152053526e-03   0.0000000000000000e+00   0.0000000000000000e+00   2.6951824844181954e-01   2.1254310445349994e-01   9.2721895942278187e-01   8.5790967146176611e-01   9.9301124190364265e-01   9.9421216295344306e-01   4.0440192730602587e-01   8.8055070128803159e-01   6.7320404315412946e-02   2.1726490569281628e-01   3.0575686393962694e-04   6.2681286854403693e-05   6.8432964370921355e-04   4.7156379820511180e-04   3.0763906851059282e-03   1.3658240475518636e-03   8.4032191585546260e-03   6.9571975816626729e-03   5.3093847591133394e-03   6.1239286086496548e-03   5.1545275887837525e-03   5.1439460145978576e-03   5.2626208339734241e-03   6.1311381212817481e-04   1.9134501211293131e-03   9.6605399156539162e-05   8.8438698113556000e-05   3.7743758089951923e-01   3.0137302716238146e-01   9.9084321646609042e-01   9.8412107371545543e-01   9.8632942711707972e-01   9.8878226259064650e-01   9.5648289297757472e-01   9.8066543567854991e-01   9.7453652688621231e-02   3.6761565589522271e-01   0.0000000000000000e+00   2.1966167815909321e-02   1.8227286353680462e-03   3.6679058439514933e-04   7.2884385904128509e-03   3.8874509777061428e-03   1.0529232461954616e-02   7.9102020156840945e-03   1.2104963792963374e-02   9.7429206286669696e-03   1.0994752661355901e-02   9.9238919018384397e-03   7.0602079565749258e-03   6.9321895584230075e-03   3.5350837552438640e-03   4.1232361094605098e-03   3.5960108975422253e-04   1.0233101551145715e-03   5.6464687486590691e-02   2.2160720397699160e-02   5.0933009322526379e-01   3.6380119647591519e-01   9.8202562550874950e-01   9.7686803046284154e-01   9.9350806185859242e-01   9.9365076575327871e-01   9.9387505142474386e-01   9.9451076096319024e-01   2.9407281784421324e-01   6.5810972636222798e-01   4.3774972249827557e-02   2.1142877946736519e-01   8.7499322957265637e-04   1.5576817086825105e-03   5.1986921135955492e-03   5.7354651895621944e-03   4.3372521979547192e-03   5.4064762249823716e-03   4.7410409299752038e-03   5.9137896803085925e-03   6.2447933741047700e-03   1.1749065701131821e-02   4.7935511884679205e-02   2.7709072603542267e-01   2.8423418552011304e-01   8.8623462441970724e-01   7.4196617894225503e-01   9.9104628349145496e-01   9.9228885808411071e-01   9.8714388202405368e-01   9.9141598955609889e-01   9.8014512873699788e-01   9.8006617367789983e-01   3.0645749057762384e-01   6.4099451263922125e-01   2.9515756049912949e-02   9.5762109559498515e-02   1.4094664266898402e-03   6.4802798599853165e-05   3.0694875872831194e-03   3.7080206553418357e-03   5.4153363598486125e-03   3.5696631144115430e-03   6.6392333536679834e-03   4.9640666888644287e-03   6.1251747398843410e-03   5.4054706054357284e-03   4.8176949959512676e-03   3.8913042998436885e-03   2.1294891538685659e-03   2.3969015558762104e-03   1.7408438439112025e-04   5.6990029272486001e-04   9.7978956216766402e-02   2.4644993438394693e-02   5.1291384845652133e-01   3.7884804998746907e-01   9.7993032609110098e-01   9.7494980612285098e-01   9.9340861970253058e-01   9.8668359433059494e-01   9.9555713099075593e-01   9.9608062004000941e-01   8.1033162045715956e-01   9.9674218961831962e-01   3.2321761455551351e-01   5.8222893404199527e-01   4.7879953051076445e-02   2.4041236743914246e-01   1.2275192989571478e-02   2.6696832960093900e-02   1.1157344005988333e-02   3.3275867771717017e-02   9.2727835484194790e-02   3.6682044385226631e-01   4.1799020174037527e-01   6.6938047649164079e-01   6.5919275343625949e-01   9.9007642692026421e-01   9.9152891758933159e-01   9.9210162059866913e-01   9.9135292583732570e-01   9.8541108578859760e-01   9.8460915087631062e-01   9.8274490741694809e-01   9.8080264561179076e-01   4.1340129641447365e-01   5.5542674499433620e-01   6.6180328056040641e-02   1.6640613803487933e-01   2.9982488312106940e-04   0.0000000000000000e+00   4.5973036453327157e-03   2.9420468553218847e-03   2.4591767369967262e-03   2.3023572571401656e-03   3.7137750756911186e-03   2.4655831598532235e-03   3.3640208834670587e-03   2.9064573104099780e-03   2.5576241736168072e-03   2.3876174234947652e-03   1.1268403005593420e-03   1.3205407066559365e-03   0.0000000000000000e+00   1.0274201312167043e-04   1.5648805471482372e-01   1.0291797691612545e-01   4.7627269916912651e-01   2.3888497686539470e-01   9.7196965029833959e-01   6.4382861906216615e-01   9.8681752783654331e-01   9.7678226471503238e-01   9.9641890041791448e-01   9.9465276100075417e-01   9.9742924011668077e-01   9.9826125874453131e-01   7.2528708869394098e-01   9.9928009753178493e-01   4.0372926568665130e-01   5.5931645427758492e-01   2.3938953045146402e-01   3.7756103036940863e-01   5.8960563921373688e-01   7.6341153422983588e-01   8.7462935430354982e-01   9.9605801618475953e-01   9.9660523119307598e-01   9.9240467248553088e-01   9.9370355883029393e-01   9.9002253197443302e-01   9.9102806094352014e-01   9.8249329849112788e-01   9.7672618702563385e-01   8.0698743359821312e-01   8.0477371645720364e-01   3.1058201215086750e-01   3.2974501437703452e-01   2.2399747238086853e-02   7.6744321701845447e-02   1.9476364372415091e-05   0.0000000000000000e+00   1.8754643651904953e-03   1.2171136838210277e-03   1.6574151307324147e-03   1.9736069839734797e-03   2.0227519605162917e-03   1.5085497740640746e-03   1.9369010862914948e-03   1.6704564117862083e-03   1.3032722108700155e-03   1.2129968720276808e-03   5.5080890691055627e-04   5.1609177512123813e-04   0.0000000000000000e+00   0.0000000000000000e+00   8.4681396037652887e-02   0.0000000000000000e+00   2.7743533735406661e-01   2.1860916601660083e-01   5.2397716683505979e-01   4.0331605255504410e-01   9.3984764984233493e-01   6.6656615139442499e-01   9.9035840498519834e-01   9.5040255345001545e-01   9.9849825345932008e-01   9.9630316587788770e-01   9.9897133427452478e-01   9.9936919494218712e-01   6.9074854949409870e-01   8.8481081337921474e-01   5.6402486656928741e-01   7.2881612565466758e-01   9.9765255267083153e-01   9.9655918462081794e-01   9.9757041875251506e-01   9.8424457927244957e-01   9.6838226519031245e-01   8.5167690558443210e-01   8.5366939669154795e-01   5.9271733743567645e-01   6.2593241893867635e-01   3.1137369062748349e-01   3.2188617422817267e-01   1.3762415857693971e-01   1.1976452009185311e-01   0.0000000000000000e+00   0.0000000000000000e+00   0.0000000000000000e+00   0.0000000000000000e+00   1.1325670178257779e-03   1.5498897561183226e-04   1.6779626049488567e-03   1.1175652331214805e-03   9.8488085032112020e-04   7.5965068636659144e-04   8.7938151898484462e-04   7.7946276114572140e-04   5.8418539178950706e-04   5.4604682434699270e-04   1.1544741551691284e-04   2.3555912482296827e-04   0.0000000000000000e+00   0.0000000000000000e+00   0.0000000000000000e+00   0.0000000000000000e+00   1.0905907243883110e-01   0.0000000000000000e+00   4.0767493746679623e-01   2.5483147767122050e-01   5.3996242883231760e-01   4.1344949865090053e-01   8.8152065152880743e-01   6.1517743389822033e-01   9.9317259767606425e-01   9.2538289868950985e-01   9.9960985488256515e-01   9.9894966355664527e-01   9.9977016022266885e-01   9.9971054025825823e-01   9.9981310967529824e-01   9.9978711874463400e-01   9.8862237799325181e-01   9.0174151839936023e-01   8.6519261312704454e-01   6.9409929289885752e-01   6.5986704787225170e-01   4.3373031081986441e-01   4.4562909712025789e-01   0.0000000000000000e+00   1.6795562019363908e-01   0.0000000000000000e+00   0.0000000000000000e+00   0.0000000000000000e+00   0.0000000000000000e+00   0.0000000000000000e+00   0.0000000000000000e+00   1.3313357710003482e-04   2.7564760771381478e-05   8.4479064752507392e-04   7.9838369239510561e-04   5.6571014485723426e-04   5.6582473477562948e-04   4.1639270428923297e-04   4.3882612855693448e-04   2.9399485744214734e-04   2.8315477616995896e-04   0.0000000000000000e+00   3.5608767433754100e-05   0.0000000000000000e+00   0.0000000000000000e+00   0.0000000000000000e+00   0.0000000000000000e+00   0.0000000000000000e+00   0.0000000000000000e+00   2.5569973461644843e-02   0.0000000000000000e+00   3.8000165146073711e-01   8.0380142879963340e-02   7.4066750485225596e-01   2.5565670522100048e-01   9.2158304421533144e-01   6.1407003485900669e-01   9.9917797030768218e-01   8.1486529598085167e-01   9.9963225558846358e-01   9.9947877643932104e-01   9.9968589634794436e-01   9.9958406489035501e-01   5.9578785701985149e-01   1.4437839857538340e-01   0.0000000000000000e+00   0.0000000000000000e+00   0.0000000000000000e+00   0.0000000000000000e+00   0.0000000000000000e+00   0.0000000000000000e+00   0.0000000000000000e+00   0.0000000000000000e+00   0.0000000000000000e+00   0.0000000000000000e+00   0.0000000000000000e+00   7.4236254204357009e-06   0.0000000000000000e+00   3.6518118298331406e-04   1.5768401000445866e-04   3.6409558020518120e-04   4.4877364956212487e-04   2.1003147891206396e-04   1.8249645046343948e-04   7.0551735641528565e-05   9.2051299554027203e-05   0.0000000000000000e+00   0.0000000000000000e+00   0.0000000000000000e+00   0.0000000000000000e+00   0.0000000000000000e+00   0.0000000000000000e+00   0.0000000000000000e+00   0.0000000000000000e+00   0.0000000000000000e+00   0.0000000000000000e+00   0.0000000000000000e+00   0.0000000000000000e+00   0.0000000000000000e+00   0.0000000000000000e+00   4.6093078783644187e-01   0.0000000000000000e+00   6.5550696360970095e-01   4.4121348814697936e-01   8.6717367118080146e-01   6.7860831862048898e-01   9.9907327314812711e-01   9.9414141172220483e-01   0.0000000000000000e+00   0.0000000000000000e+00   0.0000000000000000e+00   0.0000000000000000e+00   0.0000000000000000e+00   0.0000000000000000e+00   0.0000000000000000e+00   0.0000000000000000e+00   0.0000000000000000e+00   0.0000000000000000e+00   0.0000000000000000e+00   0.0000000000000000e+00   0.0000000000000000e+00   1.4645214869672761e-04   7.2382464811132603e-05   2.5299216957580393e-04   1.6678849072888072e-04   6.6893485936839187e-05   8.3642776723971880e-05   1.2556587417335014e-05   2.4107935192087407e-05   0.0000000000000000e+00   0.0000000000000000e+00   0.0000000000000000e+00   0.0000000000000000e+00   0.0000000000000000e+00   0.0000000000000000e+00   0.0000000000000000e+00   0.0000000000000000e+00   0.0000000000000000e+00   0.0000000000000000e+00   0.0000000000000000e+00   0.0000000000000000e+00   0.0000000000000000e+00   0.0000000000000000e+00   0.0000000000000000e+00   0.0000000000000000e+00   2.7419635765174893e-01   0.0000000000000000e+00   5.5498789642776458e-01   3.4468379736201388e-01   8.5846959744209594e-01   5.4048868024279062e-01   0.0000000000000000e+00   0.0000000000000000e+00   0.0000000000000000e+00   0.0000000000000000e+00   0.0000000000000000e+00   0.0000000000000000e+00   0.0000000000000000e+00   0.0000000000000000e+00   0.0000000000000000e+00   0.0000000000000000e+00   7.8981460174970180e-06   6.3595221021737089e-05   2.4988339653199682e-05   2.2031728397219936e-04   2.7957423568022440e-04   3.6813008026491704e-05   9.1116148982050885e-05   4.0155942559634612e-06   6.7272812338899944e-06   0.0000000000000000e+00   4.4465903545003348e-07   0.0000000000000000e+00   0.0000000000000000e+00   0.0000000000000000e+00   0.0000000000000000e+00   0.0000000000000000e+00   0.0000000000000000e+00   0.0000000000000000e+00   0.0000000000000000e+00   0.0000000000000000e+00   0.0000000000000000e+00   0.0000000000000000e+00   0.0000000000000000e+00   0.0000000000000000e+00   0.0000000000000000e+00   0.0000000000000000e+00   0.0000000000000000e+00   2.7847763814981119e-01   0.0000000000000000e+00   3.9807965376208926e-01   2.9636898423359781e-01   0.0000000000000000e+00   0.0000000000000000e+00   0.0000000000000000e+00   0.0000000000000000e+00   0.0000000000000000e+00   0.0000000000000000e+00   0.0000000000000000e+00   2.2560480078998850e-05   2.0485423276816840e-05   4.4363303345150555e-05   7.1051606485070804e-05   1.6809129628896170e-04   8.9717270433529786e-05   2.9664514903993784e-05   1.3030041750501688e-04   2.7522439635892051e-05   5.0030816071296131e-05   2.8841973654176566e-06   2.9838315215546788e-05   0.0000000000000000e+00   3.6019502986470920e-06   0.0000000000000000e+00   0.0000000000000000e+00   0.0000000000000000e+00   0.0000000000000000e+00   0.0000000000000000e+00   0.0000000000000000e+00   0.0000000000000000e+00   0.0000000000000000e+00   0.0000000000000000e+00   0.0000000000000000e+00   0.0000000000000000e+00   0.0000000000000000e+00   0.0000000000000000e+00   0.0000000000000000e+00   0.0000000000000000e+00   5.0228088719380120e-06   2.4548678540458729e-01   0.0000000000000000e+00   2.9470403845953147e-01   0.0000000000000000