<?xml version="1.0"?>
<VTKFile type="UnstructuredGrid"  version="0.1"  >
<UnstructuredGrid>
<Piece  NumberOfPoints="611" NumberOfCells="1123">
<Points>
<DataArray  type="Float64"  NumberOfComponents="3"  format="ascii">1.883478260869565 0.01666666666666667 0  1.9 0.01666666666666667 0  1.9 0.03333333333333333 0  1.883478260869565 0.03333333333333333 0  1.916521739130435 0.03333333333333333 0  1.9 0.05 0  1.883478260869565 0.05 0  1.916521739130435 0.05 0  1.933043478260869 0.05 0  1.9 0.06666666666666667 0  1.883478260869565 0.06666666666666667 0  1.916521739130435 0.06666666666666667 0  1.933043478260869 0.06666666666666667 0  1.949565217391304 0.06666666666666667 0  1.9 0.08333333333333333 0  1.883478260869565 0.08333333333333333 0  1.916521739130435 0.08333333333333333 0  1.933043478260869 0.08333333333333333 0  1.949565217391304 0.08333333333333333 0  1.966086956521739 0.08333333333333333 0  1.9 0.1 0  1.883478260869565 0.1 0  1.916521739130435 0.1 0  1.933043478260869 0.1 0  1.949565217391304 0.1 0  1.966086956521739 0.1 0  1.982608695652174 0.1 0  1.9 0.1166666666666667 0  1.883478260869565 0.1166666666666667 0  1.916521739130435 0.1166666666666667 0  1.933043478260869 0.1166666666666667 0  1.949565217391304 0.1166666666666667 0  1.966086956521739 0.1166666666666667 0  1.982608695652174 0.1166666666666667 0  1.999130434782608 0.1166666666666667 0  1.9 0.1333333333333333 0  1.883478260869565 0.1333333333333333 0  1.916521739130435 0.1333333333333333 0  1.933043478260869 0.1333333333333333 0  1.949565217391304 0.1333333333333333 0  1.966086956521739 0.1333333333333333 0  1.982608695652174 0.1333333333333333 0  1.999130434782608 0.1333333333333333 0  2.015652173913043 0.1166666666666667 0  2.015652173913043 0.1333333333333333 0  2.032173913043478 0.1166666666666667 0  2.032173913043478 0.1333333333333333 0  2.048695652173913 0.1166666666666667 0  2.048695652173913 0.1333333333333333 0  2.065217391304348 0.1166666666666667 0  2.065217391304348 0.1333333333333333 0  2.081739130434782 0.1166666666666667 0  2.081739130434782 0.1333333333333333 0  2.098260869565217 0.1333333333333333 0  1.9 0.15 0  1.883478260869565 0.15 0  1.916521739130435 0.15 0  1.933043478260869 0.15 0  1.949565217391304 0.15 0  1.966086956521739 0.15 0  1.982608695652174 0.15 0  1.999130434782608 0.15 0  2.015652173913043 0.15 0  2.032173913043478 0.15 0  2.048695652173913 0.15 0  2.065217391304348 0.15 0  2.081739130434782 0.15 0  2.098260869565217 0.15 0  2.114782608695652 0.15 0  1.9 0.1666666666666667 0  1.883478260869565 0.1666666666666667 0  1.916521739130435 0.1666666666666667 0  1.933043478260869 0.1666666666666667 0  1.949565217391304 0.1666666666666667 0  1.966086956521739 0.1666666666666667 0  1.982608695652174 0.1666666666666667 0  1.999130434782608 0.1666666666666667 0  2.015652173913043 0.1666666666666667 0  2.032173913043478 0.1666666666666667 0  2.048695652173913 0.1666666666666667 0  2.065217391304348 0.1666666666666667 0  2.081739130434782 0.1666666666666667 0  2.098260869565217 0.1666666666666667 0  2.114782608695652 0.1666666666666667 0  2.131304347826087 0.1666666666666667 0  1.9 0.1833333333333333 0  1.883478260869565 0.1833333333333333 0  1.916521739130435 0.1833333333333333 0  1.933043478260869 0.1833333333333333 0  1.949565217391304 0.1833333333333333 0  1.966086956521739 0.1833333333333333 0  1.982608695652174 0.1833333333333333 0  1.999130434782608 0.1833333333333333 0  2.015652173913043 0.1833333333333333 0  2.032173913043478 0.1833333333333333 0  2.048695652173913 0.1833333333333333 0  2.065217391304348 0.1833333333333333 0  2.081739130434782 0.1833333333333333 0  2.098260869565217 0.1833333333333333 0  2.114782608695652 0.1833333333333333 0  2.131304347826087 0.1833333333333333 0  2.147826086956522 0.1833333333333333 0  1.9 0.2 0  1.883478260869565 0.2 0  1.916521739130435 0.2 0  1.933043478260869 0.2 0  1.949565217391304 0.2 0  1.966086956521739 0.2 0  1.982608695652174 0.2 0  1.999130434782608 0.2 0  2.015652173913043 0.2 0  2.032173913043478 0.2 0  2.048695652173913 0.2 0  2.065217391304348 0.2 0  2.081739130434782 0.2 0  2.098260869565217 0.2 0  2.114782608695652 0.2 0  2.131304347826087 0.2 0  2.147826086956522 0.2 0  2.164347826086956 0.2 0  1.9 0.2166666666666667 0  1.883478260869565 0.2166666666666667 0  1.916521739130435 0.2166666666666667 0  1.933043478260869 0.2166666666666667 0  1.949565217391304 0.2166666666666667 0  1.966086956521739 0.2166666666666667 0  1.982608695652174 0.2166666666666667 0  1.999130434782608 0.2166666666666667 0  2.015652173913043 0.2166666666666667 0  2.032173913043478 0.2166666666666667 0  2.048695652173913 0.2166666666666667 0  2.065217391304348 0.2166666666666667 0  2.081739130434782 0.2166666666666667 0  2.098260869565217 0.2166666666666667 0  2.114782608695652 0.2166666666666667 0  2.131304347826087 0.2166666666666667 0  2.147826086956522 0.2166666666666667 0  2.164347826086956 0.2166666666666667 0  2.180869565217391 0.2166666666666667 0  1.9 0.2333333333333333 0  1.883478260869565 0.2333333333333333 0  1.916521739130435 0.2333333333333333 0  1.933043478260869 0.2333333333333333 0  1.949565217391304 0.2333333333333333 0  1.966086956521739 0.2333333333333333 0  1.982608695652174 0.2333333333333333 0  1.999130434782608 0.2333333333333333 0  2.015652173913043 0.2333333333333333 0  2.032173913043478 0.2333333333333333 0  2.048695652173913 0.2333333333333333 0  2.065217391304348 0.2333333333333333 0  2.081739130434782 0.2333333333333333 0  2.098260869565217 0.2333333333333333 0  2.114782608695652 0.2333333333333333 0  2.131304347826087 0.2333333333333333 0  2.147826086956522 0.2333333333333333 0  2.164347826086956 0.2333333333333333 0  2.180869565217391 0.2333333333333333 0  2.197391304347826 0.2333333333333333 0  1.9 0.25 0  1.916521739130435 0.25 0  1.933043478260869 0.25 0  1.949565217391304 0.25 0  1.966086956521739 0.25 0  1.982608695652174 0.25 0  1.999130434782608 0.25 0  2.015652173913043 0.25 0  2.032173913043478 0.25 0  2.048695652173913 0.25 0  2.065217391304348 0.25 0  2.081739130434782 0.25 0  2.098260869565217 0.25 0  2.114782608695652 0.25 0  2.131304347826087 0.25 0  2.147826086956522 0.25 0  2.164347826086956 0.25 0  2.180869565217391 0.25 0  2.197391304347826 0.25 0  2.213913043478261 0.25 0  1.916521739130435 0.2666666666666667 0  1.9 0.2666666666666667 0  1.933043478260869 0.2666666666666667 0  1.949565217391304 0.2666666666666667 0  1.966086956521739 0.2666666666666667 0  1.982608695652174 0.2666666666666667 0  1.999130434782608 0.2666666666666667 0  2.015652173913043 0.2666666666666667 0  2.032173913043478 0.2666666666666667 0  2.048695652173913 0.2666666666666667 0  2.065217391304348 0.2666666666666667 0  2.081739130434782 0.2666666666666667 0  2.098260869565217 0.2666666666666667 0  2.114782608695652 0.2666666666666667 0  2.131304347826087 0.2666666666666667 0  2.147826086956522 0.2666666666666667 0  2.164347826086956 0.2666666666666667 0  2.180869565217391 0.2666666666666667 0  2.197391304347826 0.2666666666666667 0  2.213913043478261 0.2666666666666667 0  2.230434782608695 0.25 0  2.230434782608695 0.2666666666666667 0  2.24695652173913 0.2666666666666667 0  1.916521739130435 0.2833333333333333 0  1.9 0.2833333333333333 0  1.933043478260869 0.2833333333333333 0  1.949565217391304 0.2833333333333333 0  1.966086956521739 0.2833333333333333 0  1.982608695652174 0.2833333333333333 0  1.999130434782608 0.2833333333333333 0  2.015652173913043 0.2833333333333333 0  2.032173913043478 0.2833333333333333 0  2.048695652173913 0.2833333333333333 0  2.065217391304348 0.2833333333333333 0  2.081739130434782 0.2833333333333333 0  2.098260869565217 0.2833333333333333 0  2.114782608695652 0.2833333333333333 0  2.131304347826087 0.2833333333333333 0  2.147826086956522 0.2833333333333333 0  2.164347826086956 0.2833333333333333 0  2.180869565217391 0.2833333333333333 0  2.197391304347826 0.2833333333333333 0  2.213913043478261 0.2833333333333333 0  2.230434782608695 0.2833333333333333 0  2.24695652173913 0.2833333333333333 0  2.263478260869565 0.2833333333333333 0  1.916521739130435 0.3 0  1.9 0.3 0  1.933043478260869 0.3 0  1.949565217391304 0.3 0  1.966086956521739 0.3 0  1.982608695652174 0.3 0  1.999130434782608 0.3 0  2.015652173913043 0.3 0  2.032173913043478 0.3 0  2.048695652173913 0.3 0  2.065217391304348 0.3 0  2.081739130434782 0.3 0  2.098260869565217 0.3 0  2.114782608695652 0.3 0  2.131304347826087 0.3 0  2.147826086956522 0.3 0  2.164347826086956 0.3 0  2.180869565217391 0.3 0  2.197391304347826 0.3 0  2.213913043478261 0.3 0  2.230434782608695 0.3 0  2.24695652173913 0.3 0  2.263478260869565 0.3 0  2.28 0.3 0  1.916521739130435 0.3166666666666667 0  1.9 0.3166666666666667 0  1.933043478260869 0.3166666666666667 0  1.949565217391304 0.3166666666666667 0  1.966086956521739 0.3166666666666667 0  1.982608695652174 0.3166666666666667 0  1.999130434782608 0.3166666666666667 0  2.015652173913043 0.3166666666666667 0  2.032173913043478 0.3166666666666667 0  2.048695652173913 0.3166666666666667 0  2.065217391304348 0.3166666666666667 0  2.081739130434782 0.3166666666666667 0  2.098260869565217 0.3166666666666667 0  2.114782608695652 0.3166666666666667 0  2.131304347826087 0.3166666666666667 0  2.147826086956522 0.3166666666666667 0  2.164347826086956 0.3166666666666667 0  2.180869565217391 0.3166666666666667 0  2.197391304347826 0.3166666666666667 0  2.213913043478261 0.3166666666666667 0  2.230434782608695 0.3166666666666667 0  2.24695652173913 0.3166666666666667 0  2.263478260869565 0.3166666666666667 0  2.28 0.3166666666666667 0  2.296521739130434 0.3166666666666667 0  1.916521739130435 0.3333333333333333 0  1.9 0.3333333333333333 0  1.933043478260869 0.3333333333333333 0  1.949565217391304 0.3333333333333333 0  1.966086956521739 0.3333333333333333 0  1.982608695652174 0.3333333333333333 0  1.999130434782608 0.3333333333333333 0  2.015652173913043 0.3333333333333333 0  2.032173913043478 0.3333333333333333 0  2.048695652173913 0.3333333333333333 0  2.06521739
[...]
<PointData  Vectors="Displacement"> 
<DataArray  type="Float64"  Name="Displacement"  NumberOfComponents="3" format="ascii">2.2632839415250773e-04 2.1636419860618589e-03 0.0000000000000000e+00  2.2823745175430628e-04 2.1904298264174516e-03 0.0000000000000000e+00  2.0128583433449127e-04 2.1897794323477797e-03 0.0000000000000000e+00  1.9895406899627958e-04 2.1629972159536120e-03 0.0000000000000000e+00  2.0358905749016341e-04 2.2161490218683983e-03 0.0000000000000000e+00  1.7475432929584236e-04 2.1853641170570845e-03 0.0000000000000000e+00  1.7211937236596682e-04 2.1588367324923930e-03 0.0000000000000000e+00  1.7729265622773048e-04 2.2115159655370156e-03 0.0000000000000000e+00  1.7976813296111230e-04 2.2373064692251302e-03 0.0000000000000000e+00  1.4897713633513695e-04 2.1809634805838563e-03 0.0000000000000000e+00  1.4640069174247302e-04 2.1547694889155868e-03 0.0000000000000000e+00  1.5155018735006845e-04 2.2069099516521125e-03 0.0000000000000000e+00  1.5407719205767691e-04 2.2325556333621485e-03 0.0000000000000000e+00  1.5655173568077669e-04 2.2578664152542141e-03 0.0000000000000000e+00  1.2377015726142560e-04 2.1766826931531240e-03 0.0000000000000000e+00  1.2127525497683189e-04 2.1508568279193009e-03 0.0000000000000000e+00  1.2629597591360802e-04 2.2024033473483575e-03 0.0000000000000000e+00  1.2879758942102422e-04 2.2279064554765410e-03 0.0000000000000000e+00  1.3125790305331997e-04 2.2531103937717791e-03 0.0000000000000000e+00  1.3367739973805525e-04 2.2779745540829426e-03 0.0000000000000000e+00  9.9042626763929769e-05 2.1724980814550625e-03 0.0000000000000000e+00  9.6676070182395086e-05 2.1470520643465225e-03 0.0000000000000000e+00  1.0147018456257277e-04 2.1980142119124740e-03 0.0000000000000000e+00  1.0388991708872611e-04 2.2233886850289157e-03 0.0000000000000000e+00  1.0628791145159620e-04 2.2484890283403385e-03 0.0000000000000000e+00  1.0866551471734129e-04 2.2732604280688642e-03 0.0000000000000000e+00  1.1101563747242265e-04 2.2976992510165255e-03 0.0000000000000000e+00  7.4653178339521067e-05 2.1683700129293288e-03 0.0000000000000000e+00  7.2420593687524016e-05 2.1434034940029352e-03 0.0000000000000000e+00  7.6969245753159374e-05 2.1937432577910916e-03 0.0000000000000000e+00  7.9278871710575829e-05 2.2190215467457028e-03 0.0000000000000000e+00  8.1588271030826382e-05 2.2440202180207497e-03 0.0000000000000000e+00  8.3907694880485856e-05 2.2686870619527087e-03 0.0000000000000000e+00  8.6218070849263800e-05 2.2930482690442394e-03 0.0000000000000000e+00  8.8502603627999406e-05 2.3170773271370404e-03 0.0000000000000000e+00  5.0469601631705651e-05 2.1641861565810999e-03 0.0000000000000000e+00  4.8506230217114652e-05 2.1400072730778613e-03 0.0000000000000000e+00  5.2672586295906206e-05 2.1895800052539839e-03 0.0000000000000000e+00  5.4869113817970070e-05 2.2148166969527725e-03 0.0000000000000000e+00  5.7088969542040720e-05 2.2397112025452919e-03 0.0000000000000000e+00  5.9357836382752282e-05 2.2642492150246859e-03 0.0000000000000000e+00  6.1632995450266767e-05 2.2885347252814292e-03 0.0000000000000000e+00  6.3885103201301823e-05 2.3125075776386983e-03 0.0000000000000000e+00  9.0758504349904167e-05 2.3407420549727909e-03 0.0000000000000000e+00  6.6112194627067399e-05 2.3361112616063461e-03 0.0000000000000000e+00  9.2991039697267356e-05 2.3640227803888841e-03 0.0000000000000000e+00  6.8321851487907484e-05 2.3593190166986558e-03 0.0000000000000000e+00  9.5206994268275916e-05 2.3869127622420717e-03 0.0000000000000000e+00  7.0519685444707240e-05 2.3821262424411813e-03 0.0000000000000000e+00  9.7414498504343585e-05 2.4094083512396385e-03 0.0000000000000000e+00  7.2711984734277752e-05 2.4045267809938891e-03 0.0000000000000000e+00  9.9624502623410469e-05 2.4315072697612410e-03 0.0000000000000000e+00  7.4909219323151055e-05 2.4265136797230495e-03 0.0000000000000000e+00  7.7126170848801476e-05 2.4480838313642962e-03 0.0000000000000000e+00  2.5809018448190847e-05 2.1595710739365521e-03 0.0000000000000000e+00  2.5681195489961469e-05 2.1376031483364192e-03 0.0000000000000000e+00  2.8332021998585241e-05 2.1855020091860852e-03 0.0000000000000000e+00  3.0547179032937486e-05 2.2107815377006667e-03 0.0000000000000000e+00  3.2722006640743181e-05 2.2355591510937810e-03 0.0000000000000000e+00  3.4974773958587426e-05 2.2599204602106932e-03 0.0000000000000000e+00  3.7231878786275421e-05 2.2841491230562233e-03 0.0000000000000000e+00  3.9455534774613489e-05 2.3080838774349761e-03 0.0000000000000000e+00  4.1654831518909308e-05 2.3316319656368129e-03 0.0000000000000000e+00  4.3844033375735290e-05 2.3547649474347961e-03 0.0000000000000000e+00  4.6025532557745394e-05 2.3774898806457091e-03 0.0000000000000000e+00  4.8201615663045997e-05 2.3997970509476324e-03 0.0000000000000000e+00  5.0381769518688622e-05 2.4216721209046619e-03 0.0000000000000000e+00  5.2581793482161931e-05 2.4431068729509372e-03 0.0000000000000000e+00  5.4821120254984297e-05 2.4641018888577897e-03 0.0000000000000000e+00  4.0875448914549403e-06 2.1596475305951050e-03 0.0000000000000000e+00  3.8722820916219142e-06 2.1376353080230113e-03 0.0000000000000000e+00  4.2631793397049294e-06 2.1815446124154587e-03 0.0000000000000000e+00  6.4608283751428895e-06 2.2069496459688723e-03 0.0000000000000000e+00  8.5211362903652090e-06 2.2315714865390572e-03 0.0000000000000000e+00  1.0751947776510893e-05 2.2556473403021675e-03 0.0000000000000000e+00  1.2994100010077613e-05 2.2798795097458647e-03 0.0000000000000000e+00  1.5188720611690639e-05 2.3038094570040409e-03 0.0000000000000000e+00  1.7364402163281160e-05 2.3273069946235111e-03 0.0000000000000000e+00  1.9543195620130835e-05 2.3503594726904499e-03 0.0000000000000000e+00  2.1716857997301130e-05 2.3730057878397861e-03 0.0000000000000000e+00  2.3879902342801688e-05 2.3952264345927206e-03 0.0000000000000000e+00  2.6041064232540595e-05 2.4169941011528535e-03 0.0000000000000000e+00  2.8218119091742649e-05 2.4382938855028184e-03 0.0000000000000000e+00  3.0432444653873061e-05 2.4591245816896279e-03 0.0000000000000000e+00  3.2707734061410219e-05 2.4794927807550364e-03 0.0000000000000000e+00  -1.7474014751025812e-05 2.1597237150989290e-03 0.0000000000000000e+00  -1.7722595931345579e-05 2.1377149238828389e-03 0.0000000000000000e+00  -1.7265719060910263e-05 2.1816500593633673e-03 0.0000000000000000e+00  -1.7042583792965999e-05 2.2035393248774054e-03 0.0000000000000000e+00  -1.5425621025112268e-05 2.2278701253651660e-03 0.0000000000000000e+00  -1.3378947804068287e-05 2.2513306637086364e-03 0.0000000000000000e+00  -1.1143853785366282e-05 2.2757220654044067e-03 0.0000000000000000e+00  -8.9615318538696961e-06 2.2996930113337415e-03 0.0000000000000000e+00  -6.7883131430808169e-06 2.3231363983676721e-03 0.0000000000000000e+00  -4.5938129679037063e-06 2.3460924428300180e-03 0.0000000000000000e+00  -2.4096907292174547e-06 2.3686712032427370e-03 0.0000000000000000e+00  -2.5191741961679007e-07 2.3908207825186203e-03 0.0000000000000000e+00  1.8908537014731916e-06 2.4124910261460884e-03 0.0000000000000000e+00  4.0408613417263765e-06 2.4336597380886678e-03 0.0000000000000000e+00  6.2217292178996943e-06 2.4543261412990798e-03 0.0000000000000000e+00  8.4588144639668143e-06 2.4744959627443718e-03 0.0000000000000000e+00  1.0780356860706335e-05 2.4941817082982922e-03 0.0000000000000000e+00  -3.8951741632057544e-05 2.1597994687662676e-03 0.0000000000000000e+00  -3.9206317424267735e-05 2.1378253806457544e-03 0.0000000000000000e+00  -3.8691684306970219e-05 2.1817677379603259e-03 0.0000000000000000e+00  -3.8445563864079454e-05 2.2036397353373946e-03 0.0000000000000000e+00  -3.8232444366968903e-05 2.2252733272051322e-03 0.0000000000000000e+00  -3.8151036375827434e-05 2.2465826889481282e-03 0.0000000000000000e+00  -3.5392035390290053e-05 2.2716581525817708e-03 0.0000000000000000e+00  -3.3054173949705875e-05 2.2957400624034692e-03 0.0000000000000000e+00  -3.0819912257719070e-05 2.3191125302284231e-03 0.0000000000000000e+00  -2.8565085648579451e-05 2.3419371936931645e-03 0.0000000000000000e+00  -2.6346474263793051e-05 2.3644783433133657e-03 0.0000000000000000e+00  -2.4185492870572327e-05 2.3865858878972844e-03 0.0000000000000000e+00  -2.2059365267196572e-05 2.4081747161044031e-03 0.0000000000000000e+00  -1.9938046582259210e-05 2.4292191529745695e-03 0.0000000000000000e+00  -1.7796686800412610e-05 2.4497248982771900e-03 0.0000000000000000e+00  -1.5609357294503909e-05 2.4696963942535577e-03 0.0000000000000000e+00  -1.3345690072560419e-05 2.4891437595249981e-03 0.0000000000000000e+00  -1.0971906988809787e-05 2.5080881155969425e-03 0.0000000000000000e+00  -6.0483075263351978e-05 2.1598333574913038e-03 0.0000000000000000e+00  -6.0425040013516018e-05 2.1382365007324849e-03 0.0000000000000000e+00  -6.0103416302328998e-05 2.1818704798193724e-03 0.0000000000000000e+00  -5.9766679100579566e-05 2.2037286198116242e-03 0.0000000000000000e+00  -5.9510485817990360e-05 2.2253119745285653e-03 0.0000000000000000e+00  -5.9339049289732698e-05 2.2466527197517725e-03 0.0000000000000000e+00  -5.9212565649923062e-05 2.2677399701648195e-03 0.0000000000000000e+00  -5.6823281864949059e-05 2.2919883934404608e-03 0.0000000000000000e+00  -5.4623602912143904e-05 2.3152410764315707e-03 0.0000000000000000e+00  -5.2327457671105999e-05 2.3378466418479023e-03 0.0000000000000000e+00  -5.0073907865359733e-05 2.3604204047002328e-03 0.0000000000000000e+00  -4.7908968129543475e-05 2.3825313138682675e-03 0.0000000000000000e+00  -4.5796449520520315e-05 2.4040580805012525e-03 0.0000000000000000e+00  -4.3700494219276653e-05 2.4249856526202943e-03 0.0000000000000000e+00  -4.1600338265587458e-05 2.4453386789083736e-03 0.0000000000000000e+00  -3.9471577100506660e-05 2.4651168674569663e-03 0.0000000000000000e+00  -3.7281475321521283e-05 2.4843252610478326e-03 0.0000000000000000e+00  -3.4992842054800541e-05 2.5029838914951779e-03 0.0000000000000000e+00  -3.2565654913739163e-05 2.5211252639911891e-03 0.0000000000000000e+00  -7.7866038659931365e-05 2.1650297168631823e-03 0.0000000000000000e+00  -7.4112188163441125e-05 2.1469187662094612e-03 0.0000000000000000e+00  -8.1144700398574514e-05 2.1820219911441487e-03 0.0000000000000000e+00  -8.0769646534688077e-05 2.2038680107632643e-03 0.0000000000000000e+00  -8.0475368478427097e-05 2.2253918325172003e-03 0.0000000000000000e+00  -8.0223428253818523e-05 2.2467280678477152e-03 0.0000000000000000e+00  -8.0045193925122702e-05 2.2678265701790200e-03 0.0000000000000000e+00  -7.9890862907928430e-05 2.2886895578792922e-03 0.0000000000000000e+00  -7.8080641324662983e-05 2.3116503142090092e-03 0.0000000000000000e+00  -7.5929055518894872e-05 2.3337367737171432e-03 0.0000000000000000e+00  -7.3626912670939084e-05 2.3564982904767857e-03 0.0000000000000000e+00  -7.1431429201455370e-05 2.3786712084375179e-03 0.0000000000000000e+00  -6.9308953923098764e-05 2.4001528864913205e-03 0.0000000000000000e+00  -6.7220779154120519e-05 2.4209684707433656e-03 0.0000000000000000e+00  -6.5156240975759215e-05 2.4411837555419012e-03 0.0000000000000000e+00  -6.3091613949038197e-05 2.4607804367461510e-03 0.0000000000000000e+00  -6.0988587433637926e-05 2.4797541543340120e-03 0.0000000000000000e+00  -5.8805198785613184e-05 2.4981244326571644e-03 0.0000000000000000e+00  -5.6496878200628011e-05 2.5159228528718238e-03 0.0000000000000000e+00  -5.4016812844761219e-05 2.5331971772511656e-03 0.0000000000000000e+00  -9.2948156774553739e-05 2.1720636074150086e-03 0.0000000000000000e+00  -9.6872382889422211e-05 2.1888021252825839e-03 0.0000000000000000e+00  -1.0154602012964619e-04 2.2040243326245956e-03 0.0000000000000000e+00  -1.0124858589324342e-04 2.2254884207727520e-03 0.0000000000000000e+00  -1.0089395600862297e-04 2.2468212107622774e-03 0.0000000000000000e+00  -1.0060765674285891e-04 2.2679342538652943e-03 0.0000000000000000e+00  -1.0038143191151714e-04 2.2887706525120417e-03 0.0000000000000000e+00  -1.0022322932252438e-04 2.3091913728422796e-03 0.0000000000000000e+00  -1.0016796146897607e-04 2.3292212763555936e-03 0.0000000000000000e+00  -9.7198028749774656e-05 2.3526816403469249e-03 0.0000000000000000e+00  -9.4767339112011660e-05 2.3750084871211551e-03 0.0000000000000000e+00  -9.2561335647926699e-05 2.3964633365520247e-03 0.0000000000000000e+00  -9.0449042661979825e-05 2.4171682741732149e-03 0.0000000000000000e+00  -8.8413518306938678e-05 2.4372755992363546e-03 0.0000000000000000e+00  -8.6420254647614616e-05 2.4567114979572725e-03 0.0000000000000000e+00  -8.4417432204490338e-05 2.4754591884928448e-03 0.0000000000000000e+00  -8.2356935900375992e-05 2.4935424104338259e-03 0.0000000000000000e+00  -8.0189299105099332e-05 2.5109898558365921e-03 0.0000000000000000e+00  -7.7860921003534820e-05 2.5278475702105274e-03 0.0000000000000000e+00  -7.5314230404524362e-05 2.5441820410343906e-03 0.0000000000000000e+00  -1.1110328776156490e-04 2.1960222346387760e-03 0.0000000000000000e+00  -1.0736773773168960e-04 2.1793172494938558e-03 0.0000000000000000e+00  -1.1490197564945617e-04 2.2122769189450702e-03 0.0000000000000000e+00  -1.1844142634073276e-04 2.2300911305431553e-03 0.0000000000000000e+00  -1.2141152184407363e-04 2.2468732019091716e-03 0.0000000000000000e+00  -1.2096329062388891e-04 2.2680511299866730e-03 0.0000000000000000e+00  -1.2059136730594706e-04 2.2888486757145238e-03 0.0000000000000000e+00  -1.2032956963032292e-04 2.3092258595339365e-03 0.0000000000000000e+00  -1.2017620077287381e-04 2.3292629394535956e-03 0.0000000000000000e+00  -1.2007686177925445e-04 2.3489978945046429e-03 0.0000000000000000e+00  -1.1755814060124113e-04 2.3715704808531832e-03 0.0000000000000000e+00  -1.1537104088778445e-04 2.3930086457063862e-03 0.0000000000000000e+00  -1.1328029923407870e-04 2.4135825936445199e-03 0.0000000000000000e+00  -1.1130105651092618e-04 2.4336369599698938e-03 0.0000000000000000e+00  -1.0939989944007647e-04 2.4529397533498707e-03 0.0000000000000000e+00  -1.0751229340699724e-04 2.4714706635986057e-03 0.0000000000000000e+00  -1.0558986869609244e-04 2.4892713671519017e-03 0.0000000000000000e+00  -1.0358030601015494e-04 2.5063624070539225e-03 0.0000000000000000e+00  -1.0142281835962008e-04 2.5227823835315844e-03 0.0000000000000000e+00  -9.9040599755106175e-05 2.5385892657265210e-03 0.0000000000000000e+00  -7.2497135195082323e-05 2.5601104173834919e-03 0.0000000000000000e+00  -9.6374358251553785e-05 2.5539104412548364e-03 0.0000000000000000e+00  -9.3357306522328455e-05 2.5689572716715145e-03 0.0000000000000000e+00  -1.2533432141019658e-04 2.2033415232515924e-03 0.0000000000000000e+00  -1.2162225431659371e-04 2.1866337950035403e-03 0.0000000000000000e+00  -1.2915970882639583e-04 2.2198214228786400e-03 0.0000000000000000e+00  -1.3304809177351761e-04 2.2367173150778684e-03 0.0000000000000000e+00  -1.3677395912758969e-04 2.2529869759666215e-03 0.0000000000000000e+00  -1.4073063316029334e-04 2.2682673412218186e-03 0.0000000000000000e+00  -1.4035470329851150e-04 2.2890022481771004e-03 0.0000000000000000e+00  -1.4003660650915086e-04 2.3093063505413495e-03 0.0000000000000000e+00  -1.3977871651609761e-04 2.3293180669930937e-03 0.0000000000000000e+00  -1.3960580148146342e-04 2.3490849116404710e-03 0.0000000000000000e+00  -1.3947798959977899e-04 2.3685894019141460e-03 0.0000000000000000e+00  -1.3758821237348876e-04 2.3899180631715739e-03 0.0000000000000000e+00  -1.3568575463910712e-04 2.4102092387695878e-03 0.0000000000000000e+00  -1.3378990092281396e-04 2.4303075992222031e-03 0.0000000000000000e+00  -1.3199066863817539e-04 2.4495020569223909e-03 0.0000000000000000e+00  -1.3022236747861477e-04 2.4678187924937959e-03 0.0000000000000000e+00  -1.2844626422043012e-04 2.4853463307939910e-03 0.0000000000000000e+00  -1.2660893198596784e-04 2.5020794516109005e-03 0.0000000000000000e+00  -1.2463839131963565e-04 2.5180451131926172e-03 0.0000000000000000e+00  -1.2243979857122641e-04 2.5332620277415839e-03 0.0000000000000000e+00  -1.1990709792583335e-04 2.5479223305603883e-03 0.0000000000000000e+00  -1.1709200850305808e-04 2.5621679830119320e-03 0.0000000000000000e+00  -1.1391244669373657e-04 2.5770033675937701e-03 0.0000000000000000e+00  -1.3926220103778253e-04 2.2107217325252220e-03 0.0000000000000000e+00  -1.3559703098241436e-04 2.1940014668009851e-03 0.0000000000000000e+00  -1.4306114306399112e-04 2.2272399142049528e-03 0.0000000000000000e+00  -1.4696993355209532e-04 2.2437458569267979e-03 0.0000000000000000e+00  -1.5090996887534867e-04 2.2597568081271688e-03 0.0000000000000000e+00  -1.5506134345463345e-04 2.2750249243434664e-03 0.0000000000000000e+00  -1.5967102160712509e-04 2.2892682778764485e-03 0.0000000000000000e+00  -1.5940989897168461e-04 2.3094573104473996e-03 0.0000000000000000e+00  -1.5912123541794991e-04 2.3293914400901142e-03 0.0000000000000000e+00  -1.5885836113082658e-04 2.3491817801430796e-03 0.0000000000000000e+00  -1.5865429201158832e-04 2.3686958344527223e-03 0.0000000000000000e+00  -1.5851180266241414e-04 2.3877949450603073e-03 0.0000000000000000e+00  -1.5814193294253823e-04 2.4068651785901229e-03 0.0000000000000000e+00  -1.5594916456817667e-04 2.4273170072055001e-03 0.0000000000000000e+00  -1.5415784940726288e-04 2.4464314392427765e-03 0.0000000000000000e+00  -1.5248994097860996e-04 2.4645272902188661e-03 0.0000000000000000e+00  -1.5086681847004406e-04 2.4818033815236845e-03 0.0000000000000000e+00  -1.4921489489371702e-04 2.4981886051124612e-03 0.0000000000000000e+00  -1.4746113191059065e-04 2.5136859066250215e-03 0.0000000000000000e+00  -1.4544174477629899e-04 2.5282729043562433e-03 0.0000000000000000e+00  -1.4316774575077426e-04 2.5421127655621228e-03 0.0000000000000000e+00  -1.4032999294883648e-04 2.5558907974117138e-03 0.0000000000000000e+00  -1.3907461390885370e-04 2.5699254864934911e-03 0.0000000000000000e+00  -1.3852602278328937e-04 2.5930972725091888e-03 0.0000000000000000e+00  -1.5277834993846986e-04 2.2181220828680413e-03 0.0000000000000000e+00  -1.4920688813786786e-04 2.2013998114207524e-03 0.0000000000000000e+00  -1.5647884744226633e-04 2.2346223586661115e-03 0.0000000000000000e+00  -1.6029417525899225e-04 2.2509401596905658e-03 0.0000000000000000e+00  -1.6420490913310811e-04 2.2668389963792349e-03 0.0000000000000000e+00  -1.6831837841885613e-04 2.2821669798839071e-03 0.0000000000000000e+00  -1.7283808479900240e-04 2.2967406883424579e-03 0.0000000000000000e+00  -1.7827661255216660e-04 2.3099903784561423e-03 0.0000000000000000e+00  -1.7836511261835357e-04 2.3294437437152860e-03 0.0000000000000000e+00  -1.7792611059139524e-04 2.3492911535927430e-03 0.0000000000000000e+00  -1.7756847769353356e-04 2.3687755409170976e-03 0.0000000000000000e+00  -1.7732572243946753e-04 2.3878371023083474e-03 0.0000000000000000e+00  -1.7719748172811961e-04 2.4065461289222291e-03 0.0000000000000000e+00  -1.7717538043234764e-04 2.4247534443899280e-03 0.0000000000000000e+00  -1.7559483851949987e-04 2.4438004886702057e-03 0.0000000000000000e+00  -1.7419458006661051e-04 2.4616214844744876e-03 0.0000000000000000e+00  -1.7278779930806341e-04 2.4786921012872041e-03 0.0000000000000000e+00  -1.7136441920598543e-04 2.4947424394727940e-03 0.0000000000000000e+00  -1.6984855862777506e-04 2.5098227959911065e-03 0.0000000000000000e+00  -1.6816624425764531e-04 2.5236375034244159e-03 0.0000000000000000e+00  -1.6600825867764505e-04 2.5370577122241144e-03 0.0000000000000000e+00  -1.6509843933376755e-04 2.5495261998081139e-03 0.0000000000000000e+00  -1.6386597175061047e-04 2.5703578348482263e-03 0.0000000000000000e+00  -1.6355102865917411e-04 2.5932217117920165e-03 0.0000000000000000e+00  -1.6340830009611514e-04 2.6174371148636258e-03 0.0000000000000000e+00  -1.6586599976588717e-04 2.2255176730879571e-03 0.0000000000000000e+00  -1.6242352742012355e-04 2.2088097763740735e-03 0.0000000000000000e+00  -1.6942038709242722e-04 2.2419794578763977e-03 0.0000000000000000e+00  -1.7307313649539500e-04 2.2581879753118777e-03 0.0000000000000000e+00  -1.7681105727767295e-04 2.2740198030836000e-03 0.0000000000000000e+00  -1.8066765531101598e-04 2.2893870437041522e-03 0.0000000000000000e+00  -1.8469122577111297e-04 2.3042267373924426e-03 0.0000000000000000e+00  -1.889147120226