<?xml version="1.0"?>
<VTKFile type="UnstructuredGrid"  version="0.1"  >
<UnstructuredGrid>
<Piece  NumberOfPoints="617" NumberOfCells="1135">
<Points>
<DataArray  type="Float64"  NumberOfComponents="3"  format="ascii">0 0 0  0.01652173913043478 0 0  0.01652173913043478 0.01666666666666667 0  0 0.01666666666666667 0  0.03304347826086956 0 0  0.03304347826086956 0.01666666666666667 0  0.04956521739130434 0 0  0.04956521739130434 0.01666666666666667 0  0.06608695652173913 0 0  0.06608695652173913 0.01666666666666667 0  0.08260869565217391 0 0  0.08260869565217391 0.01666666666666667 0  0.09913043478260869 0.01666666666666667 0  0.01652173913043478 0.03333333333333333 0  0 0.03333333333333333 0  0.03304347826086956 0.03333333333333333 0  0.04956521739130434 0.03333333333333333 0  0.06608695652173913 0.03333333333333333 0  0.08260869565217391 0.03333333333333333 0  0.09913043478260869 0.03333333333333333 0  0.1156521739130435 0.03333333333333333 0  0.01652173913043478 0.05 0  0 0.05 0  0.03304347826086956 0.05 0  0.04956521739130434 0.05 0  0.06608695652173913 0.05 0  0.08260869565217391 0.05 0  0.09913043478260869 0.05 0  0.1156521739130435 0.05 0  0.1321739130434783 0.05 0  0.01652173913043478 0.06666666666666667 0  0 0.06666666666666667 0  0.03304347826086956 0.06666666666666667 0  0.04956521739130434 0.06666666666666667 0  0.06608695652173913 0.06666666666666667 0  0.08260869565217391 0.06666666666666667 0  0.09913043478260869 0.06666666666666667 0  0.1156521739130435 0.06666666666666667 0  0.1321739130434783 0.06666666666666667 0  0.148695652173913 0.06666666666666667 0  0.01652173913043478 0.08333333333333333 0  0 0.08333333333333333 0  0.03304347826086956 0.08333333333333333 0  0.04956521739130434 0.08333333333333333 0  0.06608695652173913 0.08333333333333333 0  0.08260869565217391 0.08333333333333333 0  0.09913043478260869 0.08333333333333333 0  0.1156521739130435 0.08333333333333333 0  0.1321739130434783 0.08333333333333333 0  0.148695652173913 0.08333333333333333 0  0.1652173913043478 0.08333333333333333 0  0.01652173913043478 0.1 0  0 0.1 0  0.03304347826086956 0.1 0  0.04956521739130434 0.1 0  0.06608695652173913 0.1 0  0.08260869565217391 0.1 0  0.09913043478260869 0.1 0  0.1156521739130435 0.1 0  0.1321739130434783 0.1 0  0.148695652173913 0.1 0  0.1652173913043478 0.1 0  0.1817391304347826 0.1 0  0.01652173913043478 0.1166666666666667 0  0 0.1166666666666667 0  0.03304347826086956 0.1166666666666667 0  0.04956521739130434 0.1166666666666667 0  0.06608695652173913 0.1166666666666667 0  0.08260869565217391 0.1166666666666667 0  0.09913043478260869 0.1166666666666667 0  0.1156521739130435 0.1166666666666667 0  0.1321739130434783 0.1166666666666667 0  0.148695652173913 0.1166666666666667 0  0.1652173913043478 0.1166666666666667 0  0.1817391304347826 0.1166666666666667 0  0.1982608695652174 0.1166666666666667 0  0.01652173913043478 0.1333333333333333 0  0 0.1333333333333333 0  0.03304347826086956 0.1333333333333333 0  0.04956521739130434 0.1333333333333333 0  0.06608695652173913 0.1333333333333333 0  0.08260869565217391 0.1333333333333333 0  0.09913043478260869 0.1333333333333333 0  0.1156521739130435 0.1333333333333333 0  0.1321739130434783 0.1333333333333333 0  0.148695652173913 0.1333333333333333 0  0.1652173913043478 0.1333333333333333 0  0.1817391304347826 0.1333333333333333 0  0.1982608695652174 0.1333333333333333 0  0.2147826086956522 0.1333333333333333 0  0.01652173913043478 0.15 0  0 0.15 0  0.03304347826086956 0.15 0  0.04956521739130434 0.15 0  0.06608695652173913 0.15 0  0.08260869565217391 0.15 0  0.09913043478260869 0.15 0  0.1156521739130435 0.15 0  0.1321739130434783 0.15 0  0.148695652173913 0.15 0  0.1652173913043478 0.15 0  0.1817391304347826 0.15 0  0.1982608695652174 0.15 0  0.2147826086956522 0.15 0  0.2313043478260869 0.15 0  0.01652173913043478 0.1666666666666667 0  0 0.1666666666666667 0  0.03304347826086956 0.1666666666666667 0  0.04956521739130434 0.1666666666666667 0  0.06608695652173913 0.1666666666666667 0  0.08260869565217391 0.1666666666666667 0  0.09913043478260869 0.1666666666666667 0  0.1156521739130435 0.1666666666666667 0  0.1321739130434783 0.1666666666666667 0  0.148695652173913 0.1666666666666667 0  0.1652173913043478 0.1666666666666667 0  0.1817391304347826 0.1666666666666667 0  0.1982608695652174 0.1666666666666667 0  0.2147826086956522 0.1666666666666667 0  0.2313043478260869 0.1666666666666667 0  0.2478260869565218 0.1666666666666667 0  0.01652173913043478 0.1833333333333333 0  0 0.1833333333333333 0  0.03304347826086956 0.1833333333333333 0  0.04956521739130434 0.1833333333333333 0  0.06608695652173913 0.1833333333333333 0  0.08260869565217391 0.1833333333333333 0  0.09913043478260869 0.1833333333333333 0  0.1156521739130435 0.1833333333333333 0  0.1321739130434783 0.1833333333333333 0  0.148695652173913 0.1833333333333333 0  0.1652173913043478 0.1833333333333333 0  0.1817391304347826 0.1833333333333333 0  0.1982608695652174 0.1833333333333333 0  0.2147826086956522 0.1833333333333333 0  0.2313043478260869 0.1833333333333333 0  0.2478260869565218 0.1833333333333333 0  0.2643478260869565 0.1833333333333333 0  0.01652173913043478 0.2 0  0 0.2 0  0.03304347826086956 0.2 0  0.04956521739130434 0.2 0  0.06608695652173913 0.2 0  0.08260869565217391 0.2 0  0.09913043478260869 0.2 0  0.1156521739130435 0.2 0  0.1321739130434783 0.2 0  0.148695652173913 0.2 0  0.1652173913043478 0.2 0  0.1817391304347826 0.2 0  0.1982608695652174 0.2 0  0.2147826086956522 0.2 0  0.2313043478260869 0.2 0  0.2478260869565218 0.2 0  0.2643478260869565 0.2 0  0.2808695652173913 0.2 0  0.01652173913043478 0.2166666666666667 0  0 0.2166666666666667 0  0.03304347826086956 0.2166666666666667 0  0.04956521739130434 0.2166666666666667 0  0.06608695652173913 0.2166666666666667 0  0.08260869565217391 0.2166666666666667 0  0.09913043478260869 0.2166666666666667 0  0.1156521739130435 0.2166666666666667 0  0.1321739130434783 0.2166666666666667 0  0.148695652173913 0.2166666666666667 0  0.1652173913043478 0.2166666666666667 0  0.1817391304347826 0.2166666666666667 0  0.1982608695652174 0.2166666666666667 0  0.2147826086956522 0.2166666666666667 0  0.2313043478260869 0.2166666666666667 0  0.2478260869565218 0.2166666666666667 0  0.2643478260869565 0.2166666666666667 0  0.2808695652173913 0.2166666666666667 0  0.2973913043478261 0.2166666666666667 0  0.01652173913043478 0.2333333333333333 0  0 0.2333333333333333 0  0.03304347826086956 0.2333333333333333 0  0.04956521739130434 0.2333333333333333 0  0.06608695652173913 0.2333333333333333 0  0.08260869565217391 0.2333333333333333 0  0.09913043478260869 0.2333333333333333 0  0.1156521739130435 0.2333333333333333 0  0.1321739130434783 0.2333333333333333 0  0.148695652173913 0.2333333333333333 0  0.1652173913043478 0.2333333333333333 0  0.1817391304347826 0.2333333333333333 0  0.1982608695652174 0.2333333333333333 0  0.2147826086956522 0.2333333333333333 0  0.2313043478260869 0.2333333333333333 0  0.2478260869565218 0.2333333333333333 0  0.2643478260869565 0.2333333333333333 0  0.2808695652173913 0.2333333333333333 0  0.2973913043478261 0.2333333333333333 0  0.01652173913043478 0.25 0  0 0.25 0  0.03304347826086956 0.25 0  0.04956521739130434 0.25 0  0.06608695652173913 0.25 0  0.08260869565217391 0.25 0  0.09913043478260869 0.25 0  0.1156521739130435 0.25 0  0.1321739130434783 0.25 0  0.148695652173913 0.25 0  0.1652173913043478 0.25 0  0.1817391304347826 0.25 0  0.1982608695652174 0.25 0  0.2147826086956522 0.25 0  0.2313043478260869 0.25 0  0.2478260869565218 0.25 0  0.2643478260869565 0.25 0  0.2808695652173913 0.25 0  0.2973913043478261 0.25 0  0.01652173913043478 0.2666666666666667 0  0 0.2666666666666667 0  0.03304347826086956 0.2666666666666667 0  0.04956521739130434 0.2666666666666667 0  0.06608695652173913 0.2666666666666667 0  0.08260869565217391 0.2666666666666667 0  0.09913043478260869 0.2666666666666667 0  0.1156521739130435 0.2666666666666667 0  0.1321739130434783 0.2666666666666667 0  0.148695652173913 0.2666666666666667 0  0.1652173913043478 0.2666666666666667 0  0.1817391304347826 0.2666666666666667 0  0.1982608695652174 0.2666666666666667 0  0.2147826086956522 0.2666666666666667 0  0.2313043478260869 0.2666666666666667 0  0.2478260869565218 0.2666666666666667 0  0.2643478260869565 0.2666666666666667 0  0.2808695652173913 0.2666666666666667 0  0.2973913043478261 0.2666666666666667 0  0.3139130434782609 0.2666666666666667 0  0.01652173913043478 0.2833333333333333 0  0 0.2833333333333333 0  0.03304347826086956 0.2833333333333333 0  0.04956521739130434 0.2833333333333333 0  0.06608695652173913 0.2833333333333333 0  0.08260869565217391 0.2833333333333333 0  0.09913043478260869 0.2833333333333333 0  0.1156521739130435 0.2833333333333333 0  0.1321739130434783 0.2833333333333333 0  0.148695652173913 0.2833333333333333 0  0.1652173913043478 0.2833333333333333 0  0.1817391304347826 0.2833333333333333 0  0.1982608695652174 0.2833333333333333 0  0.2147826086956522 0.2833333333333333 0  0.2313043478260869 0.2833333333333333 0  0.2478260869565218 0.2833333333333333 0  0.2643478260869565 0.2833333333333333 0  0.2808695652173913 0.2833333333333333 0  0.2973913043478261 0.2833333333333333 0  0.3139130434782609 0.2833333333333333 0  0.3304347826086956 0.2833333333333333 0  0.01652173913043478 0.3 0  0 0.3 0  0.03304347826086956 0.3 0  0.04956521739130434 0.3 0  0.06608695652173913 0.3 0  0.08260869565217391 0.3 0  0.09913043478260869 0.3 0  0.1156521739130435 0.3 0  0.1321739130434783 0.3 0  0.148695652173913 0.3 0  0.1652173913043478 0.3 0  0.1817391304347826 0.3 0  0.1982608695652174 0.3 0  0.2147826086956522 0.3 0  0.2313043478260869 0.3 0  0.2478260869565218 0.3 0  0.2643478260869565 0.3 0  0.2808695652173913 0.3 0  0.2973913043478261 0.3 0  0.3139130434782609 0.3 0  0.3304347826086956 0.3 0  0.3469565217391304 0.3 0  0.01652173913043478 0.3166666666666667 0  0 0.3166666666666667 0  0.03304347826086956 0.3166666666666667 0  0.04956521739130434 0.31666666
[...]
<CellData  Scalars="rho_bar"> 
<DataArray  type="Float64"  Name="rho_bar"  format="ascii">8.9213676295865862e-01   8.8897113075825374e-01   8.8925557728943394e-01   8.8664211690412564e-01   8.8528009266311958e-01   8.8305306002637085e-01   8.7997440108200198e-01   8.7803925685828477e-01   8.7334611357678982e-01   8.7160899184718055e-01   8.6386864274190533e-01   8.7285553464189558e-01   8.6125628717615643e-01   8.7010697705467399e-01   8.5907004280047072e-01   8.6549477004063446e-01   8.5471053481952841e-01   8.5912032484461620e-01   8.4831082036456384e-01   8.5110307717288136e-01   8.4000884365663198e-01   8.4163284297950391e-01   8.3000891381949926e-01   8.1859873466319821e-01   8.2451917844085165e-01   7.9984311028291466e-01   8.2096252760915422e-01   7.9706797189418299e-01   8.1452383846016041e-01   7.9081147271054564e-01   8.0542537471299303e-01   7.8135483372388237e-01   7.9393435117171618e-01   7.6902425026729815e-01   7.8042131132749959e-01   7.5424220150884769e-01   7.6540272065473658e-01   7.3760508183017770e-01   7.1977868522309862e-01   7.3013908147986339e-01   6.8528639083847809e-01   7.2519432042521492e-01   6.8191782017896585e-01   7.1563742652423856e-01   6.7289093293487645e-01   7.0203153545050689e-01   6.5904811856264833e-01   6.8499483158848617e-01   6.4119915959520157e-01   6.6527280874292993e-01   6.2023198322046169e-01   6.4390420380518365e-01   5.9727977490115391e-01   6.2190269755149208e-01   5.7364396430908604e-01   5.5016528462373326e-01   5.7512440623750005e-01   5.1172778990334555e-01   5.6941224758999864e-01   5.0873518908822024e-01   5.5724443597706730e-01   4.9846679441852443e-01   5.3998424248402133e-01   4.8261179008333266e-01   5.1890296806964686e-01   4.6267263811386605e-01   4.9529366075319659e-01   4.4008647397276823e-01   4.7063956615221236e-01   4.1630227528791242e-01   4.4640374023521573e-01   3.9283171925880506e-01   4.2329589458555894e-01   3.7069573586334037e-01   3.5007854519110726e-01   3.8569055018716497e-01   3.2631916255002286e-01   3.8100393428146290e-01   3.2425147422351508e-01   3.7012022326123634e-01   3.1627328070159827e-01   3.5477544007100814e-01   3.0392100488220619e-01   3.3654820990743983e-01   2.8868255036761142e-01   3.1686621747620730e-01   2.7190507971242206e-01   2.9704134702654550e-01   2.5476490476654018e-01   2.7821434934375555e-01   2.3828046167534095e-01   2.6098169695079454e-01   2.2315160062282594e-01   2.4537335381467881e-01   2.0954065349923459e-01   1.9737979726238122e-01   2.2805066580727915e-01   1.8947844499519181e-01   2.2495970653642214e-01   1.8799333143771921e-01   2.1810047680793201e-01   1.8330246473959336e-01   2.0851860072227679e-01   1.7613536391714427e-01   1.9728135483555359e-01   1.6734834977184140e-01   1.8534123037095010e-01   1.5774490087949070e-01   1.7349330521358761e-01   1.4801045217951345e-01   1.6234880249915234e-01   1.3868556928036740e-01   1.5224539467947995e-01   1.3013332542586314e-01   1.4325281478807966e-01   1.2248896550483855e-01   1.3537065230014089e-01   1.1576228677884945e-01   1.0999865511106634e-01   1.3035410788230833e-01   1.0901186861615161e-01   1.2849192614231536e-01   1.0799075672116754e-01   1.2482260774350863e-01   1.0548308135425888e-01   1.1977250563404108e-01   1.0175318797790224e-01   1.1384992325531598e-01   9.7181752055317844e-02   1.0753724343664495e-01   9.2158423757803851e-02   1.0124184514144256e-01   8.7028868404163878e-02   9.5272044654279228e-02   8.2068372486572644e-02   8.9815308895853652e-02   7.7467832024285241e-02   8.4950591372857848e-02   7.3326619125997777e-02   8.0715668140251565e-02   6.9688603712368596e-02   7.7169216682489841e-02   6.6597673645492322e-02   6.4122560947702453e-02   7.6379197559293802e-02   6.4752054787980837e-02   7.5306498736391975e-02   6.4109550301713364e-02   7.3377783944104727e-02   6.2759950443862733e-02   7.0760598240951086e-02   6.0803384449513352e-02   6.7680412955575545e-02   5.8404964982723490e-02   6.4367290954840811e-02   5.5748087779971520e-02   6.1024831648323549e-02   5.3004603858541811e-02   5.7813480460451622e-02   5.0317720916234147e-02   5.4842385108145555e-02   4.7793589017558508e-02   5.2175733227782885e-02   4.5500387008651964e-02   4.9856032196069232e-02   4.3481343198136659e-02   4.7927234147647504e-02   4.1774350900598257e-02   4.6443133970350083e-02   4.0423400100921165e-02   3.9478655105857324e-02   4.6583093792076792e-02   4.0024460479422840e-02   4.5962199156116178e-02   3.9631180641449895e-02   4.4909862884181119e-02   3.8875509477455029e-02   4.3498890794911579e-02   3.7801914188748460e-02   4.1833588754818178e-02   3.6486907637310467e-02   4.0026725901233566e-02   3.5020370847693397e-02   3.8183252410273268e-02   3.3490854989582507e-02   3.6390527725103011e-02   3.1975995676312943e-02   3.4714033425356040e-02   3.0537503975727149e-02   3.3199722583516764e-02   2.9220645986385560e-02   3.1882461947490733e-02   2.8059071468008009e-02   3.0795078581736138e-02   2.7082232440986117e-02   2.9972982297790867e-02   2.6320589973581231e-02   2.9454271853192819e-02   2.5807168613714532e-02   2.5576974102768334e-02   2.9536086331868792e-02   2.5687440253808903e-02   2.9167892689025442e-02   2.5445671756674535e-02   2.8566662037885965e-02   2.5004575633642896e-02   2.7768078462204093e-02   2.4387029089803260e-02   2.6824064056797228e-02   2.3631636603583882e-02   2.5792992320756557e-02   2.2785186129790493e-02   2.4731608803201553e-02   2.1895648623781624e-02   2.3689680726011304e-02   2.1007052169745299e-02   2.2707531823574777e-02   2.0156627073476464e-02   2.1816665122432410e-02   1.9374259750776036e-02   2.1042999589074622e-02   1.8684310870442342e-02   2.0410654295201065e-02   1.8108635734670211e-02   1.9944462702361797e-02   1.7669142459165503e-02   1.9671003975299823e-02   1.7389159963620723e-02   1.9619223996940334e-02   1.7294262949770902e-02   1.7413614821823457e-02   1.9432789297190389e-02   1.7115564644181840e-02   1.9208789547556646e-02   1.6965163438109530e-02   1.8851338836287250e-02   1.6698738265562785e-02   1.8379730742402952e-02   1.6329296629058361e-02   1.7821784530174148e-02   1.5877899301540994e-02   1.7209513516337198e-02   1.5370431001209498e-02   1.6575158811811857e-02   1.4834226694240121e-02   1.5948294312154550e-02   1.4295376346498394e-02   1.5354393722177669e-02   1.3777090898467950e-02   1.4814891622659459e-02   1.3299285185253494e-02   1.4348459648562691e-02   1.2879242405429774e-02   1.3972755629919330e-02   1.2532980633138797e-02   1.3705867996080213e-02   1.2276605024611918e-02   1.3567403595811224e-02   1.2127410236133051e-02   1.3579622127730133e-02   1.2104947083886354e-02   1.3769421968441714e-02   1.2232611512241276e-02   1.2540454612514495e-02   1.3333592505682782e-02   1.1940238522994124e-02   1.3194673767992418e-02   1.1846034718372733e-02   1.2975545729219506e-02   1.1681030050175067e-02   1.2687448610001347e-02   1.1453138871328098e-02   1.2346289418040498e-02   1.1174646455762854e-02   1.1970635490703175e-02   1.0860734071019094e-02   1.1579680189453590e-02   1.0527762197351810e-02   1.1191716320393025e-02   1.0191853843366797e-02   1.0823276942839383e-02   9.8679697784778298e-03   1.0489061034026477e-02   9.5696014910601652e-03   1.0202484472367062e-02   9.3090551310728020e-03   9.9765559808359557e-03   9.0981083342988132e-03   9.8248125941351270e-03   8.9488369146073238e-03   9.7622496453161380e-03   8.8744639244200223e-03   9.8064904277310929e-03   8.8903779675024424e-03   9.9795996573629683e-03   9.0155996628243293e-03   1.0311022464809801e-02   9.2751250967775985e-03   9.7035373130038190e-03   9.7045909328845083e-03   8.9132790445000352e-03   9.6176859869174167e-03   8.8547421303117428e-03   9.4802929763576106e-03   8.7508506964258190e-03   9.2993891640963042e-03   8.6067134221357519e-03   9.0846637921601584e-03   8.4300041016659374e-03   8.8474950263027867e-03   8.2301701280891957e-03   8.5998903444630664e-03   8.0175503900524279e-03   8.3536276483472359e-03   7.8025714101739880e-03   8.1197787384810795e-03   7.5952361761114110e-03   7.9086131500952003e-03   7.4049283586070918e-03   7.7298754433451434e-03   7.2405408108443181e-03   7.5932901194694534e-03   7.1108635696781825e-03   7.5092029393376419e-03   7.0251182568883226e-03   7.4893615009381338e-03   6.9936371138993939e-03   7.5479503793406131e-03   7.0287410897879659e-03   7.7031203529114717e-03   7.1459900714350025e-03   7.9793226479253250e-03   7.3660515606660841e-03   8.4107620730108669e-03   7.7174741180507248e-03   7.7321348682003327e-03   7.3757235957614287e-03   7.6781661835579685e-03   7.3407636062846910e-03   7.5905063716392423e-03   7.2747214160485451e-03   7.4738341394592405e-03   7.1811959329142975e-03   7.3345144540099194e-03   7.0654124821175317e-03   7.1800117330517981e-03   6.9337458624575731e-03   7.0182907352123337e-03   6.7931900330904680e-03   6.8573343060976183e-03   6.6509081281282299e-03   6.7048539627427035e-03   6.5139206910812611e-03   6.5682439804617548e-03   6.3890022708872176e-03   6.4547382722397054e-03   6.2827635398260478e-03   6.3717485380974971e-03   6.2019058658830369e-03   6.3273400122519008e-03   6.1536164638169161e-03   6.3308634575654542e-03   6.1461031482225878e-03   6.3938336293214533e-03   6.1893279411020788e-03   6.5311744712455069e-03   6.2960376964530662e-03   6.7630272149699095e-03   6.4832282041497524e-03   7.1173462398591309e-03   6.7742411253234724e-03   7.0063440146020985e-03   7.0128521457506277e-03   6.9739855945001048e-03   6.9943316570919463e-03   6.9169739552052351e-03   6.9520269599214696e-03   6.8388645346865416e-03   6.8888848283933067e-03   6.7443454615234589e-03   6.8089987997232574e-03   6.6388319032603532e-03   6.7172291834418831e-03   6.5280820974391350e-03   6.6188354653072493e-03   6.4179056702322046e-03   6.5191835207982765e-03   6.3140002200436241e-03   6.4235712932270124e-03   6.2219304879142781e-03   6.3371709729931284e-03   6.1472548972537414e-03   6.2651101417853143e-03   6.0957698858491952e-03   6.2126625688771284e-03   6.0738847594842427e-03   6.1855554252865487e-03   6.0891397609786242e-03   6.1904077267828138e-03   6.1509226582988153e-03   6.2353284042785022e-03   6.2714740045572018e-03   6.3307522474762160e-03   6.4672792808543756e-03   6.4905877814186424e-03   6.7609986469916615e-03   6.7337865317266994e-03   7.0864886008875057e-03   7.3798173344806935e-03   7.7489834689386233e-03   7.3621245046075826e-03   7.7427293108291492e-03   7.3235335968017444e-03   7.7149169577502806e-03   7.2673531644106030e-03   7.6685929850806023e-03   7.1977124340989167e-03   7.6077113619374120e-03   7.1191953574306502e-03   7.5367189548552959e-03   7.0365378042730933e-03   7.4602291321732035e-03   6.9544430860064904e-03   7.3828115253751899e-03   6.8774949332001990e-03   7.3088964965089672e-03   6.8101760869960989e-03   7.2427757831030892e-03   6.7569725127725917e-03   7.1886812005449814e-03   6.7225805836404577e-03   7.1509506059002758e-03   6.7122053931732515e-03   7.1342795562514758e-03   6.7319954684833027e-03   7.1440833743012114e-03   6.7896308465570411e-03   7.1870013393156599e-03   6.8951266749778493e-03   7.2715707138496771e-03   7.0619073944006997e-03   7.4091257784419601e-03   7.3082568967650016e-03   7.6149971754097571e-03   7.6592123511882776e-03   7.9100712908717445e-03   8.3228490899824939e-03   8.9200577895372848e-03   9.7229659111044073e-03   8.9124145230520500e-03   9.7264765464386248e-03   8.8832610919893015e-03   9.7060116696474161e-03   8.8365566545863042e-03   9.6656453784933170e-03   8.7768729636593240e-03   9.6102250467281752e-03   8.7089372230494955e-03   9.5447834776832535e-03   8.6373701234970825e-03   9.4741953301525749e-03   8.5665540394214666e-03   9.4030177914911466e-03   8.5006345999710468e-03   9.3354825595226860e-03   8.4435728871035381e-03   9.2755578073864912e-03   8.3992606298605738e-03   9.2270550461452955e-03   8.3716836041530865e-03   9.1937670183038014e-03   8.3651878995528919e-03   9.1796869360655786e-03   8.3848407274149939e-03   9.1893199498517941e-03   8.4369410308655635e-03   9.2281230577141611e-03   8.5296685306260334e-03   9.3030744007234819e-03   8.6739248507726480e-03   9.4233938013165656e-03   8.8844175059811965e-03   9.6014431534067902e-03   9.1810763876600653e-03   9.8539188420524171e-03   9.5908480493910615e-03   1.0203338740283931e-02   1.0679963826852311e-02   1.1929590338135421e-02   1.3331079993891593e-02   1.1928031377462107e-02   1.3342299857897037e-02   1.1899704040390284e-02   1.3321568950697638e-02   1.1850502654222338e-02   1.3275532022889232e-02   1.1786637129444414e-02   1.3211354161945753e-02   1.1714021420127665e-02   1.3135865368572683e-02   1.1637991455507627e-02   1.3055142731807388e-02   1.1563306476355324e-02   1.2974473915477194e-02   1.1494244327160447e-02   1.2898491126272577e-02   1.1434740910542199e-02   1.2831355023454024e-02   1.1388500333508352e-02   1.2776887299582474e-02   1.1359140976075250e-02   1.2738697146284282e-02   1.1350405046158606e-02   1.2720342332153550e-02   1.1366512124737559e-02   1.2725628333387256e-02   1.1412620754545581e-02   1.2759033007233061e-02   1.1495397062353014e-02   1.2826238736116817e-02   1.1623675383821504e-02   1.2934720180318415e-02   1.1809275289318544e-02   1.3094441663505154e-02   1.2068060330079773e-02   1.3318723228794025e-02   1.2421329477133567e-02   1.3625429256838885e-02   1.2897524376900794e-02   1.4038454824233611e-02   1.4589583793103111e-02   1.7044225892521032e-02   1.9360265241255715e-02   1.7043146205019483e-02   1.9375464980395666e-02   1.7003835885971513e-02   1.9342563811502140e-02   1.6936367066715721e-02   1.9273714540495361e-02   1.6850409253019651e-02   1.9180798477309444e-02   1.6754396606446665e-02   1.9074162788585817e-02   1.6655349874978027e-02   1.8962281031401310e-02   1.6559091806747604e-02   1.8851970631713320e-02   1.6470624958105567e-02   1.8748897874359110e-02   1.6394374380518606e-02   1.8657977616671352e-02   1.6334309873152972e-02   1.8583560752185948e-02   1.6294003712391369e-02   1.8529462000217770e-02   1.6276805914407232e-02   1.8499050406444215e-02   1.6286203450800812e-02   1.8495533143572312e-02   1.6326362730284517e-02   1.8522490056157290e-02   1.6402679040613533e-02   1.8584471806152764e-02   1.6522293203493271e-02   1.8687513993502564e-02   1.6694664279138523e-02   1.8839598989628784e-02   1.6932371410387139e-02   1.9051282652488687e-02   1.7252254656111698e-02   1.9336641337650614e-02   1.7676977957708808e-02   1.9714697564703936e-02   1.8236760797508016e-02   2.0211080804288410e-02   2.0859890338176066e-02   2.5463478345594218e-02   2.9286902413450177e-02   2.5450756550661938e-02   2.9295236017952451e-02   2.5378913227052931e-02   2.9225973336888901e-02   2.5266422743049806e-02   2.9102734676569781e-02   2.5129468945998081e-02   2.8946330538694203e-02   2.4980989450093565e-02   2.8773368944218523e-02   2.4830849942765614e-02   2.8596271457837077e-02   2.4686725378164156e-02   2.8424299658978035e-02   2.4555017978822400e-02   2.8264865435572085e-02   2.4441353922687911e-02   2.8124425907891729e-02   2.4350599519571491e-02   2.8008642962758800e-02   2.4286708481553156e-02   2.7922144085762005e-02   2.4252752663262590e-02   2.7868332146983078e-02   2.4251416915209108e-02   2.7849715395531750e-02   2.4285838452214468e-02   2.7868792794581869e-02   2.4360303979169818e-02   2.7929009783066731e-02   2.4480585485395515e-02   2.8035224616269280e-02   2.4654138912653733e-02   2.8193772490094311e-02   2.4890647312562013e-02   2.8412683425624946e-02   2.5203123421066106e-02   2.8702559706612410e-02   2.5609633990033777e-02   2.9078179786903278e-02   2.6135313629602318e-02   2.9560735752860848e-02   2.6814067791915662e-02   3.0179761790077291e-02   3.0974453908703712e-02   3.9447172901416423e-02   4.5919119050149317e-02   3.9391607364313727e-02   4.5886530693205405e-02   3.9241290607451199e-02   4.5725158806512532e-02   3.9031179432561153e-02   4.5481916088110100e-02   3.8789177498149058e-02   4.5193877480091675e-02   3.8535700611203906e-02   4.4888157265191825e-02   3.8284815644157012e-02   4.4583094548508735e-02   3.8046775634318818e-02   4.4291123345978595e-02   3.7830306002933085e-02   4.4022200018552740e-02   3.7643451023065023e-02   4.3785655409577622e-02   3.7493176579368473e-02   4.3590051902940928e-02   3.7384533717790221e-02   4.3442003555675880e-02   3.7320268450285382e-02   4.3345202101206910e-02   3.7301664504563875e-02   4.3300768269526661e-02   3.7330378237713402e-02   4.3309253909478332e-02   3.7409720765462971e-02   4.3372798480303204e-02   3.7544487566029003e-02   4.3495498672811911e-02   3.7740357960166525e-02   4.3682396526831826e-02   3.8003890687332044e-02   4.3938760895824748e-02   3.8343833091626256e-02   4.4270847221377738e-02   3.8773694399731752e-02   4.4688438515296927e-02   3.9315045934805636e-02   4.5208657423420139e-02   4.0000002414364279e-02   4.5859654138079589e-02   4.0871179336474918e-02   4.6681478166495011e-02   4.7723812831944393e-02   6.3366308373443744e-02   7.4749166348910906e-02   6.3183220990756239e-02   7.4569212642590782e-02   6.2849475014091119e-02   7.4180893566935788e-02   6.2430468954175852e-02   7.3673946072820060e-02   6.1974293254811588e-02   7.3112798282481434e-02   6.1512995167485623e-02   7.2541152425229502e-02   6.1065672676903181e-02   7.1984826654497056e-02   6.0645190169709755e-02   7.1458785464732222e-02   6.0263912950417366e-02   7.0976038705590286e-02   5.9934911973470298e-02   7.0551587204172150e-02   5.9670012199412037e-02   7.0200658014713521e-02   5.9476982415816969e-02   6.9934727717026274e-02   5.9357709722418203e-02   6.9758118216955212e-02   5.9309876950778821e-02   6.9668093650910964e-02   5.9332111488721626e-02   6.9660359270627442e-02   5.9427045307400506e-02   6.9735122527515847e-02   5.9599585976100787e-02   6.9897111109337662e-02   5.9853839713158039e-02   7.0151028858496028e-02   6.0191877195007293e-02   7.0498283864145431e-02   6.0615433367685843e-02   7.0937425293002399e-02   6.1130764231589696e-02   7.1468816615690253e-02   6.1755902641787694e-02   7.2103163147010207e-02   6.2526219603676769e-02   7.2870335128558658e-02   6.3492789678652906e-02   7.3821223288416962e-02   6.4714871328723333e-02   7.5019630561343267e-02   7.6530408397836369e-02   1.0575960362438219e-01   1.2646367095244992e-01   1.0522179233277987e-01   1.2582052894016818e-01   1.0446447693701651e-01   1.2488860351410240e-01   1.0359941797243725e-01   1.2381065716217581e-01   1.0270606067173126e-01   1.2268778902951184e-01   1.0183296676701425e-01   1.2158728372771894e-01   1.0100151063504005e-01   1.2054060990586460e-01   1.0022394563289765e-01   1.1955870008325380e-01   9.9518351121763785e-02   1.1865656775246412e-01   9.8909078154364005e-02   1.1786151128014154e-01   9.8419805265585261e-02   1.1720502662812615e-01   9.8065333762933665e-02   1.1671105622532421e-01   9.7845019557662671e-02   1.1638553561002551e-01   9.7745738351327563e-02   1.1621420907871093e-01   9.7758180761473065e-02   1.1617861324190286e-01   9.7885925329171675e-02   1.1627582230703287e-01   9.8137658829373892e-02   1.1651637200039694e-01   9.8516937596319229e-02   1.1690822718023337e-01   9.9017610184213095e-02   1.1744645799970335e-01   9.9626301993813463e-02   1.1811285704167196e-01   1.0033203798197980e-01   1.1888487341772856e-01   1.0114456445248028e-01   1.1975573613725821e-01   1.0211085477829961e-01   1.2076001013928690e-01   1.0330937989314966e-01   1.2197931873700325e-01   1.0482905972033120e-01   1.2351913536527423e-01   1.0674883099907137e-01   1.2547896962667876e-01   1.2792535168914193e-01   1.8198274455497440e-01   2.1905735911945085e-01   1.8055971144228461e-01   2.1720595431011938e-01   1.7889912626003004e-01   2.1513818829465350e-01   1.7714236858262000e-01   2.1295961001738353e-01   1.7540695120667577e-01   2.1079396610137041e-01   1.7376256360155251e-01   2.0873889427995065e-01   1.7221903899157801e-01   2.0682179782064386e-01   1.7077408811147624e-01   2.0502661446446288e-01   1.6945464995946063e-01   2.0336397875299253e-01   1.6831099848182129e-01   2.0188839113465265e-01   1.67395119