<?xml version="1.0"?>
<VTKFile type="UnstructuredGrid"  version="0.1"  >
<UnstructuredGrid>
<Piece  NumberOfPoints="611" NumberOfCells="1123">
<Points>
<DataArray  type="Float64"  NumberOfComponents="3"  format="ascii">1.883478260869565 0.01666666666666667 0  1.9 0.01666666666666667 0  1.9 0.03333333333333333 0  1.883478260869565 0.03333333333333333 0  1.916521739130435 0.03333333333333333 0  1.9 0.05 0  1.883478260869565 0.05 0  1.916521739130435 0.05 0  1.933043478260869 0.05 0  1.9 0.06666666666666667 0  1.883478260869565 0.06666666666666667 0  1.916521739130435 0.06666666666666667 0  1.933043478260869 0.06666666666666667 0  1.949565217391304 0.06666666666666667 0  1.9 0.08333333333333333 0  1.883478260869565 0.08333333333333333 0  1.916521739130435 0.08333333333333333 0  1.933043478260869 0.08333333333333333 0  1.949565217391304 0.08333333333333333 0  1.966086956521739 0.08333333333333333 0  1.9 0.1 0  1.883478260869565 0.1 0  1.916521739130435 0.1 0  1.933043478260869 0.1 0  1.949565217391304 0.1 0  1.966086956521739 0.1 0  1.982608695652174 0.1 0  1.9 0.1166666666666667 0  1.883478260869565 0.1166666666666667 0  1.916521739130435 0.1166666666666667 0  1.933043478260869 0.1166666666666667 0  1.949565217391304 0.1166666666666667 0  1.966086956521739 0.1166666666666667 0  1.982608695652174 0.1166666666666667 0  1.999130434782608 0.1166666666666667 0  1.9 0.1333333333333333 0  1.883478260869565 0.1333333333333333 0  1.916521739130435 0.1333333333333333 0  1.933043478260869 0.1333333333333333 0  1.949565217391304 0.1333333333333333 0  1.966086956521739 0.1333333333333333 0  1.982608695652174 0.1333333333333333 0  1.999130434782608 0.1333333333333333 0  2.015652173913043 0.1166666666666667 0  2.015652173913043 0.1333333333333333 0  2.032173913043478 0.1166666666666667 0  2.032173913043478 0.1333333333333333 0  2.048695652173913 0.1166666666666667 0  2.048695652173913 0.1333333333333333 0  2.065217391304348 0.1166666666666667 0  2.065217391304348 0.1333333333333333 0  2.081739130434782 0.1166666666666667 0  2.081739130434782 0.1333333333333333 0  2.098260869565217 0.1333333333333333 0  1.9 0.15 0  1.883478260869565 0.15 0  1.916521739130435 0.15 0  1.933043478260869 0.15 0  1.949565217391304 0.15 0  1.966086956521739 0.15 0  1.982608695652174 0.15 0  1.999130434782608 0.15 0  2.015652173913043 0.15 0  2.032173913043478 0.15 0  2.048695652173913 0.15 0  2.065217391304348 0.15 0  2.081739130434782 0.15 0  2.098260869565217 0.15 0  2.114782608695652 0.15 0  1.9 0.1666666666666667 0  1.883478260869565 0.1666666666666667 0  1.916521739130435 0.1666666666666667 0  1.933043478260869 0.1666666666666667 0  1.949565217391304 0.1666666666666667 0  1.966086956521739 0.1666666666666667 0  1.982608695652174 0.1666666666666667 0  1.999130434782608 0.1666666666666667 0  2.015652173913043 0.1666666666666667 0  2.032173913043478 0.1666666666666667 0  2.048695652173913 0.1666666666666667 0  2.065217391304348 0.1666666666666667 0  2.081739130434782 0.1666666666666667 0  2.098260869565217 0.1666666666666667 0  2.114782608695652 0.1666666666666667 0  2.131304347826087 0.1666666666666667 0  1.9 0.1833333333333333 0  1.883478260869565 0.1833333333333333 0  1.916521739130435 0.1833333333333333 0  1.933043478260869 0.1833333333333333 0  1.949565217391304 0.1833333333333333 0  1.966086956521739 0.1833333333333333 0  1.982608695652174 0.1833333333333333 0  1.999130434782608 0.1833333333333333 0  2.015652173913043 0.1833333333333333 0  2.032173913043478 0.1833333333333333 0  2.048695652173913 0.1833333333333333 0  2.065217391304348 0.1833333333333333 0  2.081739130434782 0.1833333333333333 0  2.098260869565217 0.1833333333333333 0  2.114782608695652 0.1833333333333333 0  2.131304347826087 0.1833333333333333 0  2.147826086956522 0.1833333333333333 0  1.9 0.2 0  1.883478260869565 0.2 0  1.916521739130435 0.2 0  1.933043478260869 0.2 0  1.949565217391304 0.2 0  1.966086956521739 0.2 0  1.982608695652174 0.2 0  1.999130434782608 0.2 0  2.015652173913043 0.2 0  2.032173913043478 0.2 0  2.048695652173913 0.2 0  2.065217391304348 0.2 0  2.081739130434782 0.2 0  2.098260869565217 0.2 0  2.114782608695652 0.2 0  2.131304347826087 0.2 0  2.147826086956522 0.2 0  2.164347826086956 0.2 0  1.9 0.2166666666666667 0  1.883478260869565 0.2166666666666667 0  1.916521739130435 0.2166666666666667 0  1.933043478260869 0.2166666666666667 0  1.949565217391304 0.2166666666666667 0  1.966086956521739 0.2166666666666667 0  1.982608695652174 0.2166666666666667 0  1.999130434782608 0.2166666666666667 0  2.015652173913043 0.2166666666666667 0  2.032173913043478 0.2166666666666667 0  2.048695652173913 0.2166666666666667 0  2.065217391304348 0.2166666666666667 0  2.081739130434782 0.2166666666666667 0  2.098260869565217 0.2166666666666667 0  2.114782608695652 0.2166666666666667 0  2.131304347826087 0.2166666666666667 0  2.147826086956522 0.2166666666666667 0  2.164347826086956 0.2166666666666667 0  2.180869565217391 0.2166666666666667 0  1.9 0.2333333333333333 0  1.883478260869565 0.2333333333333333 0  1.916521739130435 0.2333333333333333 0  1.933043478260869 0.2333333333333333 0  1.949565217391304 0.2333333333333333 0  1.966086956521739 0.2333333333333333 0  1.982608695652174 0.2333333333333333 0  1.999130434782608 0.2333333333333333 0  2.015652173913043 0.2333333333333333 0  2.032173913043478 0.2333333333333333 0  2.048695652173913 0.2333333333333333 0  2.065217391304348 0.2333333333333333 0  2.081739130434782 0.2333333333333333 0  2.098260869565217 0.2333333333333333 0  2.114782608695652 0.2333333333333333 0  2.131304347826087 0.2333333333333333 0  2.147826086956522 0.2333333333333333 0  2.164347826086956 0.2333333333333333 0  2.180869565217391 0.2333333333333333 0  2.197391304347826 0.2333333333333333 0  1.9 0.25 0  1.916521739130435 0.25 0  1.933043478260869 0.25 0  1.949565217391304 0.25 0  1.966086956521739 0.25 0  1.982608695652174 0.25 0  1.999130434782608 0.25 0  2.015652173913043 0.25 0  2.032173913043478 0.25 0  2.048695652173913 0.25 0  2.065217391304348 0.25 0  2.081739130434782 0.25 0  2.098260869565217 0.25 0  2.114782608695652 0.25 0  2.131304347826087 0.25 0  2.147826086956522 0.25 0  2.164347826086956 0.25 0  2.180869565217391 0.25 0  2.197391304347826 0.25 0  2.213913043478261 0.25 0  1.916521739130435 0.2666666666666667 0  1.9 0.2666666666666667 0  1.933043478260869 0.2666666666666667 0  1.949565217391304 0.2666666666666667 0  1.966086956521739 0.2666666666666667 0  1.982608695652174 0.2666666666666667 0  1.999130434782608 0.2666666666666667 0  2.015652173913043 0.2666666666666667 0  2.032173913043478 0.2666666666666667 0  2.048695652173913 0.2666666666666667 0  2.065217391304348 0.2666666666666667 0  2.081739130434782 0.2666666666666667 0  2.098260869565217 0.2666666666666667 0  2.114782608695652 0.2666666666666667 0  2.131304347826087 0.2666666666666667 0  2.147826086956522 0.2666666666666667 0  2.164347826086956 0.2666666666666667 0  2.180869565217391 0.2666666666666667 0  2.197391304347826 0.2666666666666667 0  2.213913043478261 0.2666666666666667 0  2.230434782608695 0.25 0  2.230434782608695 0.2666666666666667 0  2.24695652173913 0.2666666666666667 0  1.916521739130435 0.2833333333333333 0  1.9 0.2833333333333333 0  1.933043478260869 0.2833333333333333 0  1.949565217391304 0.2833333333333333 0  1.966086956521739 0.2833333333333333 0  1.982608695652174 0.2833333333333333 0  1.999130434782608 0.2833333333333333 0  2.015652173913043 0.2833333333333333 0  2.032173913043478 0.2833333333333333 0  2.048695652173913 0.2833333333333333 0  2.065217391304348 0.2833333333333333 0  2.081739130434782 0.2833333333333333 0  2.098260869565217 0.2833333333333333 0  2.114782608695652 0.2833333333333333 0  2.131304347826087 0.2833333333333333 0  2.147826086956522 0.2833333333333333 0  2.164347826086956 0.2833333333333333 0  2.180869565217391 0.2833333333333333 0  2.197391304347826 0.2833333333333333 0  2.213913043478261 0.2833333333333333 0  2.230434782608695 0.2833333333333333 0  2.24695652173913 0.2833333333333333 0  2.263478260869565 0.2833333333333333 0  1.916521739130435 0.3 0  1.9 0.3 0  1.933043478260869 0.3 0  1.949565217391304 0.3 0  1.966086956521739 0.3 0  1.982608695652174 0.3 0  1.999130434782608 0.3 0  2.015652173913043 0.3 0  2.032173913043478 0.3 0  2.048695652173913 0.3 0  2.065217391304348 0.3 0  2.081739130434782 0.3 0  2.098260869565217 0.3 0  2.114782608695652 0.3 0  2.131304347826087 0.3 0  2.147826086956522 0.3 0  2.164347826086956 0.3 0  2.180869565217391 0.3 0  2.197391304347826 0.3 0  2.213913043478261 0.3 0  2.230434782608695 0.3 0  2.24695652173913 0.3 0  2.263478260869565 0.3 0  2.28 0.3 0  1.916521739130435 0.3166666666666667 0  1.9 0.3166666666666667 0  1.933043478260869 0.3166666666666667 0  1.949565217391304 0.3166666666666667 0  1.966086956521739 0.3166666666666667 0  1.982608695652174 0.3166666666666667 0  1.999130434782608 0.3166666666666667 0  2.015652173913043 0.3166666666666667 0  2.032173913043478 0.3166666666666667 0  2.048695652173913 0.3166666666666667 0  2.065217391304348 0.3166666666666667 0  2.081739130434782 0.3166666666666667 0  2.098260869565217 0.3166666666666667 0  2.114782608695652 0.3166666666666667 0  2.131304347826087 0.3166666666666667 0  2.147826086956522 0.3166666666666667 0  2.164347826086956 0.3166666666666667 0  2.180869565217391 0.3166666666666667 0  2.197391304347826 0.3166666666666667 0  2.213913043478261 0.3166666666666667 0  2.230434782608695 0.3166666666666667 0  2.24695652173913 0.3166666666666667 0  2.263478260869565 0.3166666666666667 0  2.28 0.3166666666666667 0  2.296521739130434 0.3166666666666667 0  1.916521739130435 0.3333333333333333 0  1.9 0.3333333333333333 0  1.933043478260869 0.3333333333333333 0  1.949565217391304 0.3333333333333333 0  1.966086956521739 0.3333333333333333 0  1.982608695652174 0.3333333333333333 0  1.999130434782608 0.3333333333333333 0  2.015652173913043 0.3333333333333333 0  2.032173913043478 0.3333333333333333 0  2.048695652173913 0.3333333333333333 0  2.06521739
[...]
<CellData  Scalars="rho"> 
<DataArray  type="Float64"  Name="rho"  format="ascii">8.8916183637402879e-01   7.7994665335291502e-01   8.4426277421860851e-01   2.7288881671063686e-01   0.0000000000000000e+00   3.6165943010834656e-01   9.2317099743372918e-02   1.7213918263045536e-01   0.0000000000000000e+00   0.0000000000000000e+00   0.0000000000000000e+00   0.0000000000000000e+00   0.0000000000000000e+00   0.0000000000000000e+00   0.0000000000000000e+00   0.0000000000000000e+00   0.0000000000000000e+00   0.0000000000000000e+00   0.0000000000000000e+00   0.0000000000000000e+00   0.0000000000000000e+00   0.0000000000000000e+00   0.0000000000000000e+00   0.0000000000000000e+00   0.0000000000000000e+00   0.0000000000000000e+00   0.0000000000000000e+00   0.0000000000000000e+00   0.0000000000000000e+00   0.0000000000000000e+00   0.0000000000000000e+00   0.0000000000000000e+00   0.0000000000000000e+00   0.0000000000000000e+00   0.0000000000000000e+00   0.0000000000000000e+00   0.0000000000000000e+00   0.0000000000000000e+00   0.0000000000000000e+00   0.0000000000000000e+00   0.0000000000000000e+00   0.0000000000000000e+00   0.0000000000000000e+00   0.0000000000000000e+00   0.0000000000000000e+00   0.0000000000000000e+00   0.0000000000000000e+00   0.0000000000000000e+00   0.0000000000000000e+00   1.4070892065562091e-01   0.0000000000000000e+00   0.0000000000000000e+00   0.0000000000000000e+00   0.0000000000000000e+00   0.0000000000000000e+00   0.0000000000000000e+00   0.0000000000000000e+00   0.0000000000000000e+00   0.0000000000000000e+00   0.0000000000000000e+00   0.0000000000000000e+00   0.0000000000000000e+00   0.0000000000000000e+00   0.0000000000000000e+00   0.0000000000000000e+00   0.0000000000000000e+00   0.0000000000000000e+00   0.0000000000000000e+00   0.0000000000000000e+00   0.0000000000000000e+00   0.0000000000000000e+00   0.0000000000000000e+00   0.0000000000000000e+00   3.0711713987960204e-01   4.3144359699454543e-01   1.0877297385162257e-02   2.9129619451582223e-01   5.0560551984305683e-03   1.3128805976942791e-02   2.2142715081976861e-03   6.4931253352470773e-03   0.0000000000000000e+00   2.5833323582475074e-03   0.0000000000000000e+00   0.0000000000000000e+00   0.0000000000000000e+00   0.0000000000000000e+00   0.0000000000000000e+00   0.0000000000000000e+00   0.0000000000000000e+00   0.0000000000000000e+00   0.0000000000000000e+00   0.0000000000000000e+00   0.0000000000000000e+00   0.0000000000000000e+00   0.0000000000000000e+00   0.0000000000000000e+00   0.0000000000000000e+00   0.0000000000000000e+00   0.0000000000000000e+00   6.2385176751586668e-01   9.9980816178690313e-01   4.7522934190576721e-01   6.3517209223114002e-01   3.1013552728157684e-01   4.5240017368194679e-01   1.3286085477256074e-02   3.1125773917839944e-01   7.4874809538343010e-03   1.2863087959486607e-02   3.4562351711263711e-03   7.2794757792827673e-03   7.0454964231055431e-04   3.6090965089854831e-03   0.0000000000000000e+00   9.3298023112131992e-04   0.0000000000000000e+00   2.0362253824203358e-04   0.0000000000000000e+00   9.2813592850833127e-06   0.0000000000000000e+00   0.0000000000000000e+00   0.0000000000000000e+00   0.0000000000000000e+00   0.0000000000000000e+00   0.0000000000000000e+00   0.0000000000000000e+00   0.0000000000000000e+00   0.0000000000000000e+00   9.9983692749030251e-01   9.9984702506210943e-01   9.9981688411331060e-01   9.9983617941260372e-01   6.4950602797044654e-01   9.9980899777374399e-01   4.5550944718587183e-01   5.6537354652763172e-01   1.5538578309852735e-01   4.4109430193012356e-01   1.1152181321113046e-02   1.6166582221143828e-02   6.5199288245717368e-03   1.0086483388211911e-02   1.4083041543955981e-04   6.0416050043773277e-03   1.2466811629831216e-04   1.9128608671340592e-04   1.3823788607387039e-03   1.7959233913036462e-04   1.5973390789429887e-04   1.3110331567084664e-03   8.5253205755377896e-05   1.1641156072480606e-04   1.1462610856333057e-05   1.1616029976586292e-04   0.0000000000000000e+00   0.0000000000000000e+00   0.0000000000000000e+00   0.0000000000000000e+00   0.0000000000000000e+00   9.9985109594722554e-01   9.9984499870103827e-01   9.9984382731837518e-01   9.9984864235412185e-01   9.9982075942946114e-01   9.9983628735720942e-01   6.7728151705308171e-01   9.9981039466502819e-01   4.7705169016786719e-01   5.3219711535943703e-01   3.7317751873503502e-01   4.2266240921949499e-01   1.3031916076991069e-02   3.2666295655820654e-01   4.7774026183266486e-03   1.1844493677313725e-02   1.5874243168170115e-03   5.5168836053040736e-03   8.2772900055988940e-04   2.9121353733602738e-03   1.8101335373504432e-03   3.2150523194041697e-03   4.9167104901258018e-04   1.5993362598183045e-03   1.6487230395050766e-04   2.7223559931563836e-04   6.4412678337851106e-05   1.0104610643513449e-04   0.0000000000000000e+00   0.0000000000000000e+00   0.0000000000000000e+00   0.0000000000000000e+00   0.0000000000000000e+00   9.9983088730820957e-01   8.1787463233502744e-01   9.9984018137166608e-01   9.9982852084133456e-01   9.9983643575115067e-01   9.9983551509883251e-01   9.9981997436165526e-01   9.9983049065142093e-01   6.5482819698160344e-01   9.9981274610269266e-01   3.9493042279248830e-01   5.0765850028831105e-01   3.0861894599047002e-01   4.0865809139113052e-01   1.2471623687116294e-02   2.9622254163203415e-01   7.9891077769298074e-03   1.1567417709837982e-02   4.8274079397094809e-03   7.3876409907582272e-03   4.4920732558128085e-03   6.2965432980051170e-03   2.5880796397900600e-03   4.1197507302028731e-03   8.6992318627742695e-04   2.0037641345765213e-03   1.2900854518256520e-04   2.8083701308817007e-04   0.0000000000000000e+00   9.6073760961995998e-05   0.0000000000000000e+00   0.0000000000000000e+00   0.0000000000000000e+00   0.0000000000000000e+00   0.0000000000000000e+00   5.8113589563560275e-01   4.5601825125659740e-01   9.9980621862498287e-01   6.4228461232422185e-01   9.9982244089332462e-01   9.9980480064636845e-01   9.9982790616944417e-01   9.9982077725356089e-01   9.9982014836579258e-01   9.9982479771907129e-01   9.7588547629519939e-01   9.9981408338574351e-01   6.6099858030978409e-01   8.3735140474762459e-01   3.7560069773789728e-01   6.2644916989051758e-01   3.0437420123388959e-01   4.8934737579132725e-01   1.0094500241907818e-02   4.0810448057189058e-01   8.0572399746022330e-03   2.6125549698368489e-02   5.9658720654835670e-03   8.0927466314576132e-03   3.1982087719311923e-03   4.9547707252785142e-03   3.0380398202473400e-04   1.5499314318149521e-03   0.0000000000000000e+00   1.2849354571999424e-04   0.0000000000000000e+00   0.0000000000000000e+00   0.0000000000000000e+00   0.0000000000000000e+00   0.0000000000000000e+00   0.0000000000000000e+00   0.0000000000000000e+00   4.1078370046732698e-01   6.3195246972233099e-01   5.1550733011623029e-01   9.9845206943252840e-01   6.2766246021974681e-01   9.9980488949084700e-01   9.9968655456175937e-01   9.9981787780845266e-01   9.9980509832891062e-01   9.9981504902317675e-01   9.9981419825093365e-01   9.9979538060331019e-01   9.9980619648611668e-01   7.1568297358922828e-01   9.9978081122965445e-01   5.0232172996603819e-01   5.9741596298491173e-01   4.5355050247590845e-01   4.9166824173616047e-01   2.3517124483413748e-01   3.9479335267115545e-01   9.8589217682740551e-03   2.5914878323017965e-01   5.6840972723826736e-03   8.5938368986307901e-03   1.1132992165147405e-03   3.9158102589196171e-03   0.0000000000000000e+00   1.8434044434918870e-04   0.0000000000000000e+00   0.0000000000000000e+00   0.0000000000000000e+00   0.0000000000000000e+00   0.0000000000000000e+00   0.0000000000000000e+00   0.0000000000000000e+00   0.0000000000000000e+00   0.0000000000000000e+00   4.8703485906160848e-01   1.9421464315646428e-01   6.9746507091095300e-01   4.7527768519050223e-01   7.0829559667350905e-01   5.7255173668810022e-01   9.9978337880864554e-01   7.4582763862495705e-01   9.9979886635994963e-01   9.9978082647714472e-01   9.9979779840446170e-01   9.9979132256301539e-01   9.9977922906822203e-01   9.9978540560696205e-01   7.8236939805816819e-01   9.9976222382873348e-01   5.3696188852635551e-01   7.4271780352324912e-01   4.3755937308804904e-01   4.8646331348878308e-01   3.0834042561468722e-01   4.3144960686059197e-01   9.6525836141115855e-03   2.8349519175801713e-01   3.7471283426082822e-03   6.1711576899235133e-03   0.0000000000000000e+00   2.2131395559212545e-04   0.0000000000000000e+00   0.0000000000000000e+00   0.0000000000000000e+00   0.0000000000000000e+00   0.0000000000000000e+00   0.0000000000000000e+00   0.0000000000000000e+00   0.0000000000000000e+00   0.0000000000000000e+00   0.0000000000000000e+00   1.2067670882469415e-03   4.9862395664944685e-04   2.8864536626877629e-03   0.0000000000000000e+00   0.0000000000000000e+00   3.3743716568726539e-01   0.0000000000000000e+00   4.5015292937723522e-01   3.5672263454000175e-01   5.6878194976772756e-01   3.7993159394103782e-01   9.6551241018462131e-01   5.3743344505489499e-01   9.9976495345523009e-01   8.9163359177783785e-01   9.9976827993143136e-01   9.9975430432455359e-01   9.9975555591332399e-01   9.9975544168169617e-01   7.5562105846955319e-01   9.9974030918119716e-01   5.2333851870227321e-01   6.8976332132797646e-01   4.0745600225031980e-01   4.6443609401306579e-01   2.6253374964484483e-01   3.9606830832210749e-01   5.7907843092299622e-03   2.4208748519373932e-01   0.0000000000000000e+00   2.4143363679268211e-04   0.0000000000000000e+00   0.0000000000000000e+00   0.0000000000000000e+00   0.0000000000000000e+00   0.0000000000000000e+00   0.0000000000000000e+00   0.0000000000000000e+00   0.0000000000000000e+00   0.0000000000000000e+00   0.0000000000000000e+00   1.1258550583504883e-03   2.6033655391291456e-05   4.8435435129007068e-03   3.3828551560958230e-03   7.3298651606021920e-02   0.0000000000000000e+00   0.0000000000000000e+00   0.0000000000000000e+00   0.0000000000000000e+00   3.6067304010130123e-04   0.0000000000000000e+00   3.1287496161698658e-01   1.5551986673391410e-03   4.3362879297086698e-01   3.1324899573311266e-01   6.3214164987526356e-01   4.5856723784771680e-01   9.9754735385839000e-01   5.9520676865905653e-01   9.9973249397073627e-01   9.9970980629104766e-01   9.9973089331969245e-01   9.9972319885552208e-01   7.2480975857410201e-01   9.9972000223988033e-01   5.6642549696355660e-01   6.4628850997855114e-01   4.2998636206377538e-01   4.5139497027279618e-01   3.5209228382730673e-01   3.8322815649886138e-01   8.1653019899453422e-02   3.0912745699934119e-01   0.0000000000000000e+00   0.0000000000000000e+00   0.0000000000000000e+00   0.0000000000000000e+00   0.0000000000000000e+00   0.0000000000000000e+00   0.0000000000000000e+00   0.0000000000000000e+00   0.0000000000000000e+00   0.0000000000000000e+00   3.9847452297535227e-05   1.4712033587061828e-05   9.4558329586885044e-03   3.7057108741515216e-03   3.8706144073922943e-01   3.6494206560433073e-01   4.6880392598358805e-01   0.0000000000000000e+00   0.0000000000000000e+00   0.0000000000000000e+00   0.0000000000000000e+00   0.0000000000000000e+00   0.0000000000000000e+00   0.0000000000000000e+00   0.0000000000000000e+00   4.5776204086949623e-01   1.2940828963060363e-01   5.7595091889539218e-01   5.2220111559374560e-01   7.1759600183074002e-01   6.2341571040794130e-01   9.4686346430512358e-01   7.5493762332157344e-01   9.9969635684943892e-01   9.0940866689537481e-01   9.9970751258886525e-01   9.9969157137995546e-01   9.0685767888210622e-01   9.9970005745150303e-01   6.5528861669041016e-01   8.6996644040282767e-01   5.6858887903872624e-01   6.9252719088926162e-01   5.1723447258040578e-01   5.9713611269953626e-01   3.3203616410388581e-01   5.3293564870090404e-01   3.1086220940298802e-02   2.5314246902206966e-01   0.0000000000000000e+00   0.0000000000000000e+00   0.0000000000000000e+00   0.0000000000000000e+00   0.0000000000000000e+00   0.0000000000000000e+00   7.1850228469697207e-05   3.6572444759811142e-05   3.2228036023365558e-01   3.4020407187132806e-01   4.4807068051159360e-01   4.7220441557286097e-01   5.5582826179927824e-01   5.6059005797679784e-01   6.9234102973257095e-01   0.0000000000000000e+00   0.0000000000000000e+00   0.0000000000000000e+00   0.0000000000000000e+00   0.0000000000000000e+00   0.0000000000000000e+00   0.0000000000000000e+00   0.0000000000000000e+00   0.0000000000000000e+00   0.0000000000000000e+00   3.0115347674138582e-01   0.0000000000000000e+00   5.3785905408153079e-01   4.8148111274121141e-01   6.6772071207861605e-01   7.0863858520311429e-01   8.0658920811869284e-01   9.0126790174318105e-01   9.3883107397380827e-01   9.9550681021862919e-01   9.9264955194915616e-01   9.0525176471671553e-01   8.6420190169326483e-01   9.0913921304103440e-01   7.5699459940437042e-01   8.1037599818037265e-01   6.8256472622021103e-01   7.3296103722360817e-01   6.0187891239290070e-01   6.6253967914798018e-01   4.8623782108214847e-01   5.5270260784303060e-01   3.8655264203022083e-01   4.6313415721363577e-01   2.1079647581067740e-01   3.7950010588812588e-01   2.4678853091215583e-01   3.9300987676574406e-01   5.5594180811953942e-01   5.0435219092257433e-01   6.6474327116373266e-01   6.5996004858775759e-01   7.6395899915305721e-01   7.5333232696475694e-01   8.5358134580033240e-01   8.6808842885100979e-01   1.0000000000000000e+00   9.0730230657052124e-01   9.4599109668454529e-01   0.0000000000000000e+00   0.0000000000000000e+00   0.0000000000000000e+00   0.0000000000000000e+00   0.0000000000000000e+00   0.0000000000000000e+00   0.0000000000000000e+00   0.0000000000000000e+00   0.0000000000000000e+00   0.0000000000000000e+00   0.0000000000000000e+00   0.0000000000000000e+00   1.6706544984247171e-01   0.0000000000000000e+00   5.6346609007082638e-01   2.2741485017225493e-01   7.7075880112458195e-01   5.7674687958052928e-01   8.8716122334766434e-01   7.7151648497930181e-01   9.8449509014176628e-01   8.8076564725661011e-01   9.9965362840636740e-01   9.9961975474587839e-01   8.0773113175190592e-01   9.9965479969788662e-01   7.2289416475432466e-01   9.8650780821448281e-01   6.6790826626430311e-01   7.2529349479700345e-01   5.8645557085576860e-01   6.7584590400515054e-01   5.1560851872981506e-01   5.8984151732777557e-01   4.5614256496054911e-01   5.0537513692097302e-01   4.6875142150959453e-01   5.2661388567537892e-01   6.1248390536270225e-01   5.8204895421012603e-01   6.9610035209787835e-01   6.5469460872270491e-01   7.8426556975071315e-01   7.3743241248731572e-01   8.7420719165398653e-01   8.1290052888245934e-01   8.8739243096976539e-01   8.4213069812608088e-01   8.3751285690903843e-01   7.6125900276138181e-01   6.3880487547757647e-01   0.0000000000000000e+00   0.0000000000000000e+00   0.0000000000000000e+00   0.0000000000000000e+00   0.0000000000000000e+00   0.0000000000000000e+00   0.0000000000000000e+00   0.0000000000000000e+00   0.0000000000000000e+00   0.0000000000000000e+00   0.0000000000000000e+00   0.0000000000000000e+00   0.0000000000000000e+00   0.0000000000000000e+00   0.0000000000000000e+00   0.0000000000000000e+00   3.4885091345039204e-01   4.0622801785119352e-02   6.0616858124560191e-01   3.8785567534162152e-01   7.4391644909858512e-01   6.0050056797483153e-01   8.7961806989706814e-01   7.3529025824269956e-01   9.9962999617993631e-01   8.6088288079233988e-01   9.9967692153677545e-01   9.7181672619865689e-01   7.5035345222514049e-01   9.0251266489650550e-01   6.7942087153679287e-01   7.2603421977078419e-01   6.2279748211653374e-01   6.5764987541695563e-01   5.6672736824299663e-01   5.9494136933647390e-01   5.7345669715853498e-01   5.8189258059993543e-01   6.2267756637635696e-01   6.1196091712506107e-01   6.8808597611641253e-01   6.5599948276209541e-01   7.5549645353358497e-01   7.6870493060657974e-01   8.7430864763911820e-01   8.5427322168291731e-01   7.2457906677784911e-01   7.1764282789994005e-01   5.8883263712179190e-01   5.5778342886517118e-01   4.5786776453798883e-01   4.2569300568488161e-01   3.1065497115432711e-01   0.0000000000000000e+00   0.0000000000000000e+00   0.0000000000000000e+00   0.0000000000000000e+00   0.0000000000000000e+00   0.0000000000000000e+00   0.0000000000000000e+00   0.0000000000000000e+00   0.0000000000000000e+00   0.0000000000000000e+00   0.0000000000000000e+00   0.0000000000000000e+00   0.0000000000000000e+00   0.0000000000000000e+00   0.0000000000000000e+00   0.0000000000000000e+00   0.0000000000000000e+00   0.0000000000000000e+00   1.8514728321057256e-01   0.0000000000000000e+00   3.4187387575324302e-01   2.2476787487468972e-01   4.6017611747844983e-01   3.4517585026856468e-01   5.9835500204929049e-01   4.5306900200434119e-01   9.2620089738639311e-01   7.9994258432146215e-01   9.1926241823854460e-01   8.9998538228821467e-01   7.7964121472915948e-01   8.7294805355740424e-01   6.9650372921673209e-01   7.3783625422089993e-01   5.9382779426143029e-01   6.7662077961365541e-01   5.8564126196067079e-01   4.8916724996823063e-01   6.0426692738589116e-01   4.9683043581908454e-01   7.2392933372059554e-01   6.1784061554185832e-01   7.6337598509498794e-01   6.9557349459888052e-01   7.1420030896168929e-01   6.1274065273293576e-01   5.1701002789606587e-01   4.3407125353823006e-01   3.6542680173531966e-01   3.0054239498312690e-01   2.4054221946330387e-01   1.9624239181676928e-01   2.5156213818295716e-02   1.1057464491731566e-05   0.0000000000000000e+00   0.0000000000000000e+00   0.0000000000000000e+00   0.0000000000000000e+00   0.0000000000000000e+00   0.0000000000000000e+00   0.0000000000000000e+00   0.0000000000000000e+00   0.0000000000000000e+00   0.0000000000000000e+00   0.0000000000000000e+00   0.0000000000000000e+00   0.0000000000000000e+00   0.0000000000000000e+00   0.0000000000000000e+00   0.0000000000000000e+00   0.0000000000000000e+00   0.0000000000000000e+00   0.0000000000000000e+00   0.0000000000000000e+00   0.0000000000000000e+00   8.3034764686115009e-02   0.0000000000000000e+00   1.9631866568260911e-01   9.9178021891817431e-02   2.9160495153741628e-01   1.9917075435777565e-01   5.3050049032470270e-01   2.8485011620615580e-01   7.1558409221342545e-01   5.1762581609386382e-01   7.9258990275638919e-01   6.7995622095638564e-01   7.6443831090857595e-01   7.5000382174722657e-01   7.2747086764731395e-01   7.3871151793810408e-01   7.1098133841789735e-01   7.0902987112168503e-01   7.0955080300188544e-01   7.0480098104543820e-01   7.6150753443598485e-01   4.9414426786199150e-01   5.7953982882940480e-01   3.9021851197572632e-01   3.7629382450781473e-01   3.3363699736033303e-01   2.6317071414909671e-01   2.3187603196390802e-01   1.6950963466475102e-01   1.4362053476201059e-01   8.4193084732790510e-02   6.2578146657913586e-02   0.0000000000000000e+00   0.0000000000000000e+00   0.0000000000000000e+00   0.0000000000000000e+00   0.0000000000000000e+00   0.0000000000000000e+00   0.0000000000000000e+00   0.0000000000000000e+00   0.0000000000000000e+00   0.0000000000000000e+00   0.0000000000000000e+00   0.0000000000000000e+00   0.0000000000000000e+00   0.0000000000000000e+00   0.0000000000000000e+00   0.0000000000000000e+00   0.0000000000000000e+00   0.0000000000000000e+00   0.0000000000000000e+00   0.0000000000000000e+00   0.0000000000000000e+00   0.0000000000000000e+00   0.0000000000000000e+00   0.0000000000000000e+00   0.0000000000000000e+00   0.0000000000000000e+00   0.0000000000000000e+00   3.3608791661249144e-03   0.0000000000000000e+00   1.1532494934682587e-01   2.8924471203272757e-03   1.7212327483587128e-01   1.2012310862610698e-01   2.4995568280686264e-01   1.6988512403623129e-01   3.2906268667343136e-01   2.3760620082577844e-01   4.2254777654672920e-01   3.3123929700131005e-01   6.0057019783614707e-01   5.3903113884104825e-01   5.5672003859079333e-01   5.3560318220903169e-01   3.7285149271905077e-01   3.4557232304037533e-01   2.9233211396436837e-01   2.4364780566012689e-01   2.3208862091160257e-01   1.7459663814867646e-01   1.6384539709547538e-01   1.3047899757346015e-01   9.1760970409145312e-02   7.7471484411546138e-02   4.2850348700116274e-02   2.6858492300044941e-02   0.0000000000000000e+00   0.0000000000000000e+00   0.0000000000000000