<?xml version="1.0"?>
<VTKFile type="UnstructuredGrid"  version="0.1"  >
<UnstructuredGrid>
<Piece  NumberOfPoints="611" NumberOfCells="1123">
<Points>
<DataArray  type="Float64"  NumberOfComponents="3"  format="ascii">1.883478260869565 0.01666666666666667 0  1.9 0.01666666666666667 0  1.9 0.03333333333333333 0  1.883478260869565 0.03333333333333333 0  1.916521739130435 0.03333333333333333 0  1.9 0.05 0  1.883478260869565 0.05 0  1.916521739130435 0.05 0  1.933043478260869 0.05 0  1.9 0.06666666666666667 0  1.883478260869565 0.06666666666666667 0  1.916521739130435 0.06666666666666667 0  1.933043478260869 0.06666666666666667 0  1.949565217391304 0.06666666666666667 0  1.9 0.08333333333333333 0  1.883478260869565 0.08333333333333333 0  1.916521739130435 0.08333333333333333 0  1.933043478260869 0.08333333333333333 0  1.949565217391304 0.08333333333333333 0  1.966086956521739 0.08333333333333333 0  1.9 0.1 0  1.883478260869565 0.1 0  1.916521739130435 0.1 0  1.933043478260869 0.1 0  1.949565217391304 0.1 0  1.966086956521739 0.1 0  1.982608695652174 0.1 0  1.9 0.1166666666666667 0  1.883478260869565 0.1166666666666667 0  1.916521739130435 0.1166666666666667 0  1.933043478260869 0.1166666666666667 0  1.949565217391304 0.1166666666666667 0  1.966086956521739 0.1166666666666667 0  1.982608695652174 0.1166666666666667 0  1.999130434782608 0.1166666666666667 0  1.9 0.1333333333333333 0  1.883478260869565 0.1333333333333333 0  1.916521739130435 0.1333333333333333 0  1.933043478260869 0.1333333333333333 0  1.949565217391304 0.1333333333333333 0  1.966086956521739 0.1333333333333333 0  1.982608695652174 0.1333333333333333 0  1.999130434782608 0.1333333333333333 0  2.015652173913043 0.1166666666666667 0  2.015652173913043 0.1333333333333333 0  2.032173913043478 0.1166666666666667 0  2.032173913043478 0.1333333333333333 0  2.048695652173913 0.1166666666666667 0  2.048695652173913 0.1333333333333333 0  2.065217391304348 0.1166666666666667 0  2.065217391304348 0.1333333333333333 0  2.081739130434782 0.1166666666666667 0  2.081739130434782 0.1333333333333333 0  2.098260869565217 0.1333333333333333 0  1.9 0.15 0  1.883478260869565 0.15 0  1.916521739130435 0.15 0  1.933043478260869 0.15 0  1.949565217391304 0.15 0  1.966086956521739 0.15 0  1.982608695652174 0.15 0  1.999130434782608 0.15 0  2.015652173913043 0.15 0  2.032173913043478 0.15 0  2.048695652173913 0.15 0  2.065217391304348 0.15 0  2.081739130434782 0.15 0  2.098260869565217 0.15 0  2.114782608695652 0.15 0  1.9 0.1666666666666667 0  1.883478260869565 0.1666666666666667 0  1.916521739130435 0.1666666666666667 0  1.933043478260869 0.1666666666666667 0  1.949565217391304 0.1666666666666667 0  1.966086956521739 0.1666666666666667 0  1.982608695652174 0.1666666666666667 0  1.999130434782608 0.1666666666666667 0  2.015652173913043 0.1666666666666667 0  2.032173913043478 0.1666666666666667 0  2.048695652173913 0.1666666666666667 0  2.065217391304348 0.1666666666666667 0  2.081739130434782 0.1666666666666667 0  2.098260869565217 0.1666666666666667 0  2.114782608695652 0.1666666666666667 0  2.131304347826087 0.1666666666666667 0  1.9 0.1833333333333333 0  1.883478260869565 0.1833333333333333 0  1.916521739130435 0.1833333333333333 0  1.933043478260869 0.1833333333333333 0  1.949565217391304 0.1833333333333333 0  1.966086956521739 0.1833333333333333 0  1.982608695652174 0.1833333333333333 0  1.999130434782608 0.1833333333333333 0  2.015652173913043 0.1833333333333333 0  2.032173913043478 0.1833333333333333 0  2.048695652173913 0.1833333333333333 0  2.065217391304348 0.1833333333333333 0  2.081739130434782 0.1833333333333333 0  2.098260869565217 0.1833333333333333 0  2.114782608695652 0.1833333333333333 0  2.131304347826087 0.1833333333333333 0  2.147826086956522 0.1833333333333333 0  1.9 0.2 0  1.883478260869565 0.2 0  1.916521739130435 0.2 0  1.933043478260869 0.2 0  1.949565217391304 0.2 0  1.966086956521739 0.2 0  1.982608695652174 0.2 0  1.999130434782608 0.2 0  2.015652173913043 0.2 0  2.032173913043478 0.2 0  2.048695652173913 0.2 0  2.065217391304348 0.2 0  2.081739130434782 0.2 0  2.098260869565217 0.2 0  2.114782608695652 0.2 0  2.131304347826087 0.2 0  2.147826086956522 0.2 0  2.164347826086956 0.2 0  1.9 0.2166666666666667 0  1.883478260869565 0.2166666666666667 0  1.916521739130435 0.2166666666666667 0  1.933043478260869 0.2166666666666667 0  1.949565217391304 0.2166666666666667 0  1.966086956521739 0.2166666666666667 0  1.982608695652174 0.2166666666666667 0  1.999130434782608 0.2166666666666667 0  2.015652173913043 0.2166666666666667 0  2.032173913043478 0.2166666666666667 0  2.048695652173913 0.2166666666666667 0  2.065217391304348 0.2166666666666667 0  2.081739130434782 0.2166666666666667 0  2.098260869565217 0.2166666666666667 0  2.114782608695652 0.2166666666666667 0  2.131304347826087 0.2166666666666667 0  2.147826086956522 0.2166666666666667 0  2.164347826086956 0.2166666666666667 0  2.180869565217391 0.2166666666666667 0  1.9 0.2333333333333333 0  1.883478260869565 0.2333333333333333 0  1.916521739130435 0.2333333333333333 0  1.933043478260869 0.2333333333333333 0  1.949565217391304 0.2333333333333333 0  1.966086956521739 0.2333333333333333 0  1.982608695652174 0.2333333333333333 0  1.999130434782608 0.2333333333333333 0  2.015652173913043 0.2333333333333333 0  2.032173913043478 0.2333333333333333 0  2.048695652173913 0.2333333333333333 0  2.065217391304348 0.2333333333333333 0  2.081739130434782 0.2333333333333333 0  2.098260869565217 0.2333333333333333 0  2.114782608695652 0.2333333333333333 0  2.131304347826087 0.2333333333333333 0  2.147826086956522 0.2333333333333333 0  2.164347826086956 0.2333333333333333 0  2.180869565217391 0.2333333333333333 0  2.197391304347826 0.2333333333333333 0  1.9 0.25 0  1.916521739130435 0.25 0  1.933043478260869 0.25 0  1.949565217391304 0.25 0  1.966086956521739 0.25 0  1.982608695652174 0.25 0  1.999130434782608 0.25 0  2.015652173913043 0.25 0  2.032173913043478 0.25 0  2.048695652173913 0.25 0  2.065217391304348 0.25 0  2.081739130434782 0.25 0  2.098260869565217 0.25 0  2.114782608695652 0.25 0  2.131304347826087 0.25 0  2.147826086956522 0.25 0  2.164347826086956 0.25 0  2.180869565217391 0.25 0  2.197391304347826 0.25 0  2.213913043478261 0.25 0  1.916521739130435 0.2666666666666667 0  1.9 0.2666666666666667 0  1.933043478260869 0.2666666666666667 0  1.949565217391304 0.2666666666666667 0  1.966086956521739 0.2666666666666667 0  1.982608695652174 0.2666666666666667 0  1.999130434782608 0.2666666666666667 0  2.015652173913043 0.2666666666666667 0  2.032173913043478 0.2666666666666667 0  2.048695652173913 0.2666666666666667 0  2.065217391304348 0.2666666666666667 0  2.081739130434782 0.2666666666666667 0  2.098260869565217 0.2666666666666667 0  2.114782608695652 0.2666666666666667 0  2.131304347826087 0.2666666666666667 0  2.147826086956522 0.2666666666666667 0  2.164347826086956 0.2666666666666667 0  2.180869565217391 0.2666666666666667 0  2.197391304347826 0.2666666666666667 0  2.213913043478261 0.2666666666666667 0  2.230434782608695 0.25 0  2.230434782608695 0.2666666666666667 0  2.24695652173913 0.2666666666666667 0  1.916521739130435 0.2833333333333333 0  1.9 0.2833333333333333 0  1.933043478260869 0.2833333333333333 0  1.949565217391304 0.2833333333333333 0  1.966086956521739 0.2833333333333333 0  1.982608695652174 0.2833333333333333 0  1.999130434782608 0.2833333333333333 0  2.015652173913043 0.2833333333333333 0  2.032173913043478 0.2833333333333333 0  2.048695652173913 0.2833333333333333 0  2.065217391304348 0.2833333333333333 0  2.081739130434782 0.2833333333333333 0  2.098260869565217 0.2833333333333333 0  2.114782608695652 0.2833333333333333 0  2.131304347826087 0.2833333333333333 0  2.147826086956522 0.2833333333333333 0  2.164347826086956 0.2833333333333333 0  2.180869565217391 0.2833333333333333 0  2.197391304347826 0.2833333333333333 0  2.213913043478261 0.2833333333333333 0  2.230434782608695 0.2833333333333333 0  2.24695652173913 0.2833333333333333 0  2.263478260869565 0.2833333333333333 0  1.916521739130435 0.3 0  1.9 0.3 0  1.933043478260869 0.3 0  1.949565217391304 0.3 0  1.966086956521739 0.3 0  1.982608695652174 0.3 0  1.999130434782608 0.3 0  2.015652173913043 0.3 0  2.032173913043478 0.3 0  2.048695652173913 0.3 0  2.065217391304348 0.3 0  2.081739130434782 0.3 0  2.098260869565217 0.3 0  2.114782608695652 0.3 0  2.131304347826087 0.3 0  2.147826086956522 0.3 0  2.164347826086956 0.3 0  2.180869565217391 0.3 0  2.197391304347826 0.3 0  2.213913043478261 0.3 0  2.230434782608695 0.3 0  2.24695652173913 0.3 0  2.263478260869565 0.3 0  2.28 0.3 0  1.916521739130435 0.3166666666666667 0  1.9 0.3166666666666667 0  1.933043478260869 0.3166666666666667 0  1.949565217391304 0.3166666666666667 0  1.966086956521739 0.3166666666666667 0  1.982608695652174 0.3166666666666667 0  1.999130434782608 0.3166666666666667 0  2.015652173913043 0.3166666666666667 0  2.032173913043478 0.3166666666666667 0  2.048695652173913 0.3166666666666667 0  2.065217391304348 0.3166666666666667 0  2.081739130434782 0.3166666666666667 0  2.098260869565217 0.3166666666666667 0  2.114782608695652 0.3166666666666667 0  2.131304347826087 0.3166666666666667 0  2.147826086956522 0.3166666666666667 0  2.164347826086956 0.3166666666666667 0  2.180869565217391 0.3166666666666667 0  2.197391304347826 0.3166666666666667 0  2.213913043478261 0.3166666666666667 0  2.230434782608695 0.3166666666666667 0  2.24695652173913 0.3166666666666667 0  2.263478260869565 0.3166666666666667 0  2.28 0.3166666666666667 0  2.296521739130434 0.3166666666666667 0  1.916521739130435 0.3333333333333333 0  1.9 0.3333333333333333 0  1.933043478260869 0.3333333333333333 0  1.949565217391304 0.3333333333333333 0  1.966086956521739 0.3333333333333333 0  1.982608695652174 0.3333333333333333 0  1.999130434782608 0.3333333333333333 0  2.015652173913043 0.3333333333333333 0  2.032173913043478 0.3333333333333333 0  2.048695652173913 0.3333333333333333 0  2.06521739
[...]
<CellData  Scalars="rho"> 
<DataArray  type="Float64"  Name="rho"  format="ascii">9.2391570898051578e-01   7.8032999996485108e-01   8.6857492341730269e-01   2.6294590219856978e-01   5.8356899806043872e-05   3.5708240176967665e-01   8.2603038159661787e-02   1.6295669790180678e-01   1.3378569475604849e-04   1.8458892390173904e-04   5.7341002386484428e-05   7.8988697956666092e-05   5.6216025532767515e-05   9.4525286048408505e-05   5.1697651111573861e-05   1.5813703647300935e-04   1.6303148079879271e-04   9.2848728073638409e-05   9.5307061946395063e-05   5.2634971229891912e-05   7.7545688066456530e-05   5.8550638367170790e-05   6.0980765310588884e-05   6.6248624210696010e-05   1.5193489887278824e-04   1.6752196030106042e-04   8.5893962002873113e-05   7.8561770684822948e-05   6.7927220139843707e-05   7.3826159792608664e-05   5.2387499379457652e-05   5.6987717936906941e-05   5.6335601580993572e-05   4.3022680845185178e-05   4.5504283503422693e-05   5.0684499348498189e-04   5.8193994022825751e-04   6.6075168966795437e-05   4.0609939981136022e-04   1.6972850904542403e-05   1.5006866222203188e-04   5.2844516801193817e-05   1.7451714468241496e-05   3.9204096603868689e-05   4.4427262792373000e-05   2.8701702679420332e-05   3.2465951285484510e-05   2.3493105612564447e-05   2.6863871691518802e-03   1.4186451604944766e-01   2.0717009099131827e-03   4.4096732462220820e-03   1.1870623155825063e-03   2.2158393220289034e-03   2.1420823199221607e-04   1.0159099480195289e-03   2.1246285541465269e-05   4.1992607433287135e-05   2.1705822490894365e-05   1.7656681276375034e-05   1.5433588711675617e-05   1.2621228177084079e-05   1.5689904708690886e-05   1.5270614608121173e-05   1.5781123523549069e-05   8.9837321703552470e-06   7.6420979300387365e-06   1.2778758740772771e-05   5.1299582321864236e-06   6.1032143519667512e-06   3.2667159972919467e-06   1.9685897655077269e-06   1.2180418907114087e-06   3.2622176275752190e-01   4.6422801308442985e-01   2.2096693736915137e-02   3.1197511837493008e-01   5.8768898451678729e-03   1.7734298643560933e-02   1.9451478772949937e-03   6.8051216875958994e-03   2.9626932705837262e-04   1.9596073915701261e-03   1.7544609448372953e-05   3.0086284319868606e-05   1.2250215776231048e-05   1.4665841947702713e-05   8.6605410993123820e-06   1.0200522948917172e-05   6.0789223782909414e-06   7.1710678683983483e-06   2.0664945581537530e-06   2.4477616748133513e-06   2.3945680135700606e-06   1.6820449558407036e-06   1.3218580150729063e-06   1.9265954999236176e-06   1.1958906718976512e-06   1.0488209313654183e-06   9.3369036873212917e-07   6.7028377528249949e-01   1.0000000000000000e+00   5.0211948108194837e-01   6.7422182662316132e-01   3.1240698944702466e-01   4.7029111283656749e-01   1.3351778349837412e-02   3.1182001316301639e-01   6.7455058394433748e-03   1.2219819763775081e-02   2.3887361757601081e-03   6.2414726764337593e-03   2.8868645764474638e-05   2.4857726984387376e-03   3.0222254892458079e-05   4.7233037456266787e-05   1.9060193136830619e-05   3.8882711873664513e-05   4.1058646224220347e-06   2.2514483255974586e-05   1.6368273821997494e-06   7.9904595632294256e-06   1.1043315336319307e-06   1.6011545639198135e-06   1.2404826216424313e-06   1.0722687963198271e-06   6.6283523617812928e-07   9.9754924335777802e-07   5.3297858848873585e-07   1.0000000000000000e+00   1.0000000000000000e+00   1.0000000000000000e+00   1.0000000000000000e+00   6.6798536808295139e-01   1.0000000000000000e+00   4.5547431659458470e-01   5.6689320034757773e-01   1.5428635219117881e-01   4.4009533934876122e-01   9.9715234901202147e-03   1.4836910622058623e-02   5.4341569367550944e-03   8.9234249281855849e-03   2.0917172916428060e-04   5.1307430110397482e-03   5.8790042443639672e-05   2.4561084469584799e-04   4.9261136216227587e-04   6.1762064871713696e-05   3.0164447594625607e-05   2.0597474149652818e-04   8.8012163871147416e-06   2.7242798759018069e-05   1.5235739186537991e-06   4.6229441106790362e-06   7.0352368887220886e-07   1.0328589940255200e-06   6.5767029192406729e-07   9.7561450671883231e-07   4.5745602196501239e-07   1.0000000000000000e+00   1.0000000000000000e+00   1.0000000000000000e+00   1.0000000000000000e+00   1.0000000000000000e+00   1.0000000000000000e+00   6.7919680897040668e-01   1.0000000000000000e+00   4.7608093652202715e-01   5.3295810821229173e-01   3.7199156750828144e-01   4.2150634132911946e-01   1.2104655404988068e-02   3.2537532625891979e-01   3.9797243815029512e-03   1.0726636927082596e-02   6.6252438839282631e-04   4.3032583244758168e-03   4.5203761573551226e-05   1.9853721572482409e-03   9.4317573350558384e-04   2.3323639598471055e-03   1.8476492380432976e-05   7.4195813429352923e-04   5.8126484263152802e-06   1.3806486050075940e-05   1.2278074101738168e-06   7.3415312922963340e-07   9.7400664684032369e-07   4.0837741909504791e-07   4.6865404469834040e-07   6.6977872533824094e-07   4.1701311603191438e-07   1.0000000000000000e+00   8.1811923450784263e-01   1.0000000000000000e+00   1.0000000000000000e+00   1.0000000000000000e+00   1.0000000000000000e+00   1.0000000000000000e+00   1.0000000000000000e+00   6.6126316799826401e-01   1.0000000000000000e+00   3.9550185871050997e-01   5.1415624329419007e-01   3.0817778332320406e-01   4.0928133666609023e-01   1.1578445214324986e-02   2.9564523252621516e-01   6.6884404658706055e-03   1.0656420989901888e-02   3.6771259437792300e-03   6.3704955541255574e-03   3.4648304328067630e-03   5.1992324941339480e-03   1.7046783948027162e-03   3.0760613255279502e-03   1.5624500273178482e-05   1.1088034624221030e-03   7.2352465268026317e-07   5.3873497133993823e-06   6.7604456681296799e-07   6.9367893602191841e-07   3.1592225081278279e-07   4.4716219311658869e-07   4.1865071189985238e-07   2.2022848325072317e-07   4.3325530513466349e-07   5.6846238932134519e-01   4.3727536391122318e-01   9.9735082422512189e-01   6.2939951133776872e-01   1.0000000000000000e+00   9.9842641356649342e-01   1.0000000000000000e+00   1.0000000000000000e+00   1.0000000000000000e+00   1.0000000000000000e+00   1.0000000000000000e+00   1.0000000000000000e+00   6.6795699357480043e-01   8.6841814600110612e-01   3.7555253766796520e-01   6.2804764377244160e-01   3.0332759298653300e-01   4.8886964334496447e-01   8.6651277813485326e-03   4.0684005741217727e-01   6.8471034434603112e-03   2.4755374468147885e-02   4.8482159454044261e-03   6.8836824513648287e-03   2.0429069423216002e-03   3.7675483468114315e-03   8.6280900080331933e-07   4.7814787758627156e-04   7.7496474557630217e-07   6.7521560975974015e-07   3.2623122132597344e-07   4.7082372613671169e-07   1.8665948448392955e-07   1.9106008185909903e-07   2.1389212635376117e-07   1.7319719550469620e-07   3.0080545198336991e-07   3.8813120552178698e-01   6.1160462302223639e-01   4.9144302424468334e-01   9.9252888565580488e-01   6.1037078766804342e-01   1.0000000000000000e+00   9.9726120590046630e-01   1.0000000000000000e+00   1.0000000000000000e+00   1.0000000000000000e+00   1.0000000000000000e+00   1.0000000000000000e+00   1.0000000000000000e+00   7.4232342013539498e-01   1.0000000000000000e+00   5.0232789944664791e-01   5.9936755866481806e-01   4.5194708886562318e-01   4.9095434338909788e-01   2.3368021774725881e-01   3.9316214980862751e-01   8.5977399230774080e-03   2.5776023580643054e-01   4.3644257168183207e-03   7.2917287408831213e-03   4.7829500616557879e-06   2.3230507382901557e-03   8.7194953309130716e-07   7.9682576130458140e-07   2.8095350794305123e-07   4.4141951502400590e-07   8.6655885144801684e-08   7.4709756151340740e-08   1.0851349376348452e-07   1.7663299445165160e-08   3.4063547133840416e-07   1.8913638485670235e-07   6.3191197504054785e-07   4.6377408428425893e-01   1.7358109907625127e-01   6.7787218363620905e-01   4.5341991224393202e-01   7.0455459017785860e-01   5.5843431834813118e-01   1.0000000000000000e+00   7.4411125925067689e-01   1.0000000000000000e+00   1.0000000000000000e+00   1.0000000000000000e+00   1.0000000000000000e+00   1.0000000000000000e+00   1.0000000000000000e+00   7.9264159685786839e-01   1.0000000000000000e+00   5.3723454505919788e-01   7.5087378492652090e-01   4.3620824354396515e-01   4.8598517755316917e-01   3.0709124868622573e-01   4.3037145805691490e-01   8.2770099579828650e-03   2.8230031275495521e-01   1.7196039747050256e-03   4.3892332526664990e-03   9.7525464316634193e-07   1.1719206798354107e-06   1.0970629421823698e-07   3.1513863750450244e-07   0.0000000000000000e+00   0.0000000000000000e+00   0.0000000000000000e+00   0.0000000000000000e+00   2.5925380563953394e-07   0.0000000000000000e+00   8.3481260458316420e-07   9.8313271153683479e-07   5.5290028384468424e-04   6.6418821783694866e-07   1.9243324098240284e-03   3.0177214132880294e-05   2.6136569537220830e-05   3.1924012396047463e-01   2.2554559884646794e-05   4.3639410423741720e-01   3.4106350143705916e-01   5.6544942606938808e-01   3.7476177159705520e-01   9.6619975454559814e-01   5.3533115706268741e-01   1.0000000000000000e+00   8.9283919542972179e-01   1.0000000000000000e+00   1.0000000000000000e+00   1.0000000000000000e+00   1.0000000000000000e+00   7.6701352478319684e-01   1.0000000000000000e+00   5.3040958875399835e-01   7.0076945975504479e-01   4.0725655853815340e-01   4.6887113770860867e-01   2.6148722342430930e-01   3.9589024962093855e-01   3.4424544969769255e-03   2.4037027858850119e-01   1.1017850648641602e-06   1.5379277608158709e-06   0.0000000000000000e+00   6.4660009537260087e-09   0.0000000000000000e+00   0.0000000000000000e+00   0.0000000000000000e+00   0.0000000000000000e+00   0.0000000000000000e+00   0.0000000000000000e+00   1.1808711955308516e-06   0.0000000000000000e+00   2.3617607498134207e-04   6.6841453544092356e-07   3.9855107767074955e-03   2.0888773084864211e-03   7.3081742941513109e-02   1.6319396390503877e-05   1.3859545008031253e-05   2.0452288610997524e-05   1.7039115188689842e-05   2.7088633708180934e-05   1.7929720878074543e-05   3.0130329985651433e-01   1.1140084937255073e-05   4.2912058534069458e-01   3.0095078362213862e-01   6.2960383313895840e-01   4.4960447852778823e-01   9.9826683568321217e-01   5.9227827253029519e-01   1.0000000000000000e+00   1.0000000000000000e+00   1.0000000000000000e+00   1.0000000000000000e+00   7.3979015396477510e-01   1.0000000000000000e+00   5.7862836531170647e-01   6.6229498068135539e-01   4.3353972914435496e-01   4.5901817222609415e-01   3.4974867737668380e-01   3.8260308845865693e-01   7.7744719030718737e-02   3.0558784090842867e-01   0.0000000000000000e+00   0.0000000000000000e+00   0.0000000000000000e+00   0.0000000000000000e+00   0.0000000000000000e+00   0.0000000000000000e+00   0.0000000000000000e+00   0.0000000000000000e+00   0.0000000000000000e+00   0.0000000000000000e+00   1.6514622133721804e-06   1.3321378841769946e-06   8.3726062149802986e-03   1.9596275344441389e-03   3.8755448996236624e-01   3.6497387559525912e-01   4.7059303940610647e-01   1.1933246653883430e-05   9.9336884878763883e-06   1.2094289201993499e-05   9.9170799983460112e-06   1.1897570920740180e-05   9.4746974406050171e-06   5.0189324982929873e-06   5.4853334226181589e-06   4.4283769091425368e-01   1.1502127104538114e-01   5.5952353643012809e-01   4.9773989966264348e-01   7.0939421947683845e-01   6.0440482756171654e-01   9.4385236199238109e-01   7.4701654566526798e-01   1.0000000000000000e+00   9.0735183829594757e-01   1.0000000000000000e+00   1.0000000000000000e+00   9.2653711974034814e-01   1.0000000000000000e+00   6.6647140658205173e-01   8.9030262467631338e-01   5.6840656154606850e-01   7.0047046248210931e-01   5.1242681666715262e-01   5.9318584775362770e-01   3.2420305023182028e-01   5.2555319064620964e-01   7.9101717583836967e-03   2.2925888089069521e-01   0.0000000000000000e+00   0.0000000000000000e+00   0.0000000000000000e+00   0.0000000000000000e+00   0.0000000000000000e+00   0.0000000000000000e+00   3.9127380786260845e-06   0.0000000000000000e+00   3.2118596783868414e-01   3.3825730531671444e-01   4.4926235907896628e-01   4.7293900114825344e-01   5.5865708347389187e-01   5.6327023755299677e-01   6.9693982295362844e-01   6.6547638625768885e-06   5.3529159802394130e-06   6.2223452936929538e-06   4.9597237123074566e-06   3.4885182073821082e-06   2.7359217410309967e-06   1.3682664119344267e-06   1.0674371653618363e-06   0.0000000000000000e+00   0.0000000000000000e+00   2.7287497147161044e-01   0.0000000000000000e+00   5.0412988857593588e-01   4.4779855403616592e-01   6.5550361392280709e-01   6.7275870285540607e-01   8.0225809949737148e-01   8.9079621763607875e-01   9.4441618670706695e-01   9.9285563739735905e-01   1.0000000000000000e+00   9.1467349703264078e-01   8.8708819922828552e-01   9.3205423607626436e-01   7.6735203953329123e-01   8.2567575938157378e-01   6.7876893895552004e-01   7.3337205003627426e-01   5.9308978687940839e-01   6.5637989273823771e-01   4.5542636515325879e-01   5.2521458148759159e-01   3.4992835707878583e-01   4.2539934915219080e-01   1.7439008890001081e-01   3.3921793528924016e-01   2.3629406236426145e-01   3.5744670585702670e-01   5.5228569335707212e-01   4.9366589616589496e-01   6.6454193846597998e-01   6.5909967002480707e-01   7.6641350299929745e-01   7.5569066929583584e-01   8.5728251317527870e-01   8.7206812419210877e-01   1.0000000000000000e+00   9.1073927895440199e-01   9.4684654705184512e-01   2.9416521997700331e-06   2.0814144472535958e-06   2.2567826373137407e-06   1.5406640224749615e-06   5.4137340235701051e-07   2.6915312462404851e-07   0.0000000000000000e+00   0.0000000000000000e+00   0.0000000000000000e+00   0.0000000000000000e+00   0.0000000000000000e+00   0.0000000000000000e+00   1.3330482409529559e-01   0.0000000000000000e+00   5.4367260242345727e-01   1.9135605744584197e-01   7.5762986517571529e-01   5.5764799548008748e-01   8.8252512260063964e-01   7.6122297633089531e-01   9.9198399442103813e-01   8.7878033662636790e-01   1.0000000000000000e+00   1.0000000000000000e+00   8.2394173500673695e-01   1.0000000000000000e+00   7.2442689148595196e-01   1.0000000000000000e+00   6.6307079379016198e-01   7.2447547750914165e-01   5.7548428307549482e-01   6.6911380826829681e-01   4.7777627601866574e-01   5.5983515172868892e-01   4.1694585463065348e-01   4.6936197649947958e-01   4.5845610342900694e-01   5.1616362553684192e-01   6.1056336798567090e-01   5.7987367605135232e-01   6.9830892192278227e-01   6.5688804052619609e-01   7.9025406344164317e-01   7.4912065787045212e-01   8.8078719131331973e-01   8.2830884266528371e-01   8.8982647674220550e-01   8.4546596487210879e-01   8.3630977127620776e-01   7.6099197256765183e-01   6.3489416524787412e-01   1.9920111887282520e-07   0.0000000000000000e+00   0.0000000000000000e+00   0.0000000000000000e+00   0.0000000000000000e+00   0.0000000000000000e+00   0.0000000000000000e+00   0.0000000000000000e+00   0.0000000000000000e+00   0.0000000000000000e+00   0.0000000000000000e+00   0.0000000000000000e+00   0.0000000000000000e+00   0.0000000000000000e+00   0.0000000000000000e+00   0.0000000000000000e+00   3.3413165054712851e-01   2.6654689754018187e-02   5.9473629971967690e-01   3.7443255928466235e-01   7.3947404035472053e-01   5.9357467789055363e-01   8.8792712045278355e-01   7.3352523735960184e-01   1.0000000000000000e+00   8.7157753715905872e-01   1.0000000000000000e+00   9.8656316924025733e-01   7.5167696694742525e-01   9.0800416931803785e-01   6.7663667091519220e-01   7.2699341564685982e-01   6.1649633508327417e-01   6.5597095466684896e-01   5.6439495608314139e-01   5.9411678076178653e-01   5.7185963893127112e-01   5.8163905222755474e-01   6.2498220155311979e-01   6.1486294520213025e-01   6.9791035162519943e-01   6.6645561764979822e-01   7.7368523677676970e-01   7.8798061186668011e-01   8.8865035993840369e-01   8.7093523082821578e-01   7.2620085347551888e-01   7.2054126191166379e-01   5.8457084772184886e-01   5.5668790813721436e-01   4.5273262929802849e-01   4.2139975242050026e-01   2.9064233961431624e-01   0.0000000000000000e+00   0.0000000000000000e+00   0.0000000000000000e+00   0.0000000000000000e+00   0.0000000000000000e+00   0.0000000000000000e+00   0.0000000000000000e+00   0.0000000000000000e+00   0.0000000000000000e+00   0.0000000000000000e+00   0.0000000000000000e+00   0.0000000000000000e+00   0.0000000000000000e+00   0.0000000000000000e+00   0.0000000000000000e+00   0.0000000000000000e+00   0.0000000000000000e+00   0.0000000000000000e+00   1.7289187735129530e-01   0.0000000000000000e+00   3.3436260329548456e-01   2.1324620026965255e-01   4.5520433382659892e-01   3.3811211759172027e-01   5.9758475511831932e-01   4.4846470242436753e-01   9.2995653838948111e-01   7.9920879304270753e-01   9.2505846199582298e-01   9.0285573024661281e-01   7.8470653731624429e-01   8.7841512450417369e-01   7.0312073633201544e-01   7.4954679898259258e-01   5.9901267157608373e-01   6.8909059200362743e-01   5.9366792967595883e-01   5.0257354259809250e-01   6.1673515288920544e-01   5.1177689246172053e-01   7.4246247333124893e-01   6.3624062105567691e-01   7.8083639030104424e-01   7.1195532642168979e-01   7.1848815324919590e-01   6.1709918174285738e-01   5.1767100966697033e-01   4.3529425108496339e-01   3.6020893945197024e-01   2.9852495866421791e-01   2.3583476805795467e-01   1.8860167852657761e-01   7.5005844788559829e-03   5.1941202199609933e-06   1.7552002687752141e-06   0.0000000000000000e+00   0.0000000000000000e+00   0.0000000000000000e+00   0.0000000000000000e+00   0.0000000000000000e+00   0.0000000000000000e+00   0.0000000000000000e+00   0.0000000000000000e+00   0.0000000000000000e+00   0.0000000000000000e+00   0.0000000000000000e+00   0.0000000000000000e+00   0.0000000000000000e+00   0.0000000000000000e+00   0.0000000000000000e+00   0.0000000000000000e+00   0.0000000000000000e+00   0.0000000000000000e+00   0.0000000000000000e+00   0.0000000000000000e+00   7.1276573235644902e-02   1.6511456545972294e-07   1.8500229411765892e-01   8.6664860312457570e-02   2.8439777149741347e-01   1.8633195732107580e-01   5.2569514621034363e-01   2.7709548543503942e-01   7.1530172471075926e-01   5.1354891939402247e-01   7.9900096619196115e-01   6.8266083728094629e-01   8.0122870338871244e-01   7.7000733277688693e-01   7.7207754587780264e-01   7.8835633931151416e-01   7.5345960548251556e-01   7.6104327787756842e-01   7.3117688247342882e-01   7.3054785598047556e-01   7.7392772928589237e-01   5.0723690558220103e-01   5.8376874276844681e-01   3.9422131325749288e-01   3.7778290655929636e-01   3.3474550604603820e-01   2.6178235380479647e-01   2.3038167276081831e-01   1.6275969769772661e-01   1.3670766672529852e-01   7.9562908579569158e-02   5.4366544068176550e-02   3.0763770093308026e-06   3.2656007344192428e-06   1.5797754174821716e-06   1.8179723110070025e-06   1.0720551173676093e-06   0.0000000000000000e+00   0.0000000000000000e+00   0.0000000000000000e+00   0.0000000000000000e+00   0.0000000000000000e+00   0.0000000000000000e+00   0.0000000000000000e+00   0.0000000000000000e+00   0.0000000000000000e+00   0.0000000000000000e+00   0.0000000000000000e+00   0.0000000000000000e+00   0.0000000000000000e+00   0.0000000000000000e+00   0.0000000000000000e+00   0.0000000000000000e+00   0.0000000000000000e+00   0.0000000000000000e+00   0.0000000000000000e+00   0.0000000000000000e+00   5.4838659746247183e-07   3.5094740957524578e-07   1.1491984421721279e-06   1.6366672956497140e-07   9.8626952998977224e-02   0.0000000000000000e+00   1.5475497362049548e-01   1.0038049270059796e-01   2.4272192643751334e-01   1.5117416445410140e-01   3.2830949038121321e-01   2.3295672855187932e-01   4.5644400388949524e-01   3.4028206827707635e-01   6.6100366382829345e-01   5.8877969877516778e-01   6.1554140362704202e-01   5.9789867364726501e-01   3.9471046169105611e-01   3.8779193446884980e-01   2.9578537873288380e-01   2.5007250987824192e-01   2.3228054212478150e-01   1.7470108145409041e-01   1.6133283506106089e-01   1.2737106860598674e-01   8.3340004054649086e-02   6.7754476887399523e-02   3.3654842315585368e-02   1.4556892944036857e-02   2.7892853627153119e-06   1.5432914627525156e-06   2.0382754341304440