<?xml version="1.0"?>
<VTKFile type="UnstructuredGrid"  version="0.1"  >
<UnstructuredGrid>
<Piece  NumberOfPoints="621" NumberOfCells="1125">
<Points>
<DataArray  type="Float64"  NumberOfComponents="3"  format="ascii">1.883478260869565 0 0  1.9 0 0  1.9 0.01666666666666667 0  1.883478260869565 0.01666666666666667 0  1.916521739130435 0 0  1.916521739130435 0.01666666666666667 0  1.933043478260869 0 0  1.933043478260869 0.01666666666666667 0  1.949565217391304 0 0  1.949565217391304 0.01666666666666667 0  1.966086956521739 0 0  1.966086956521739 0.01666666666666667 0  1.982608695652174 0 0  1.982608695652174 0.01666666666666667 0  1.999130434782608 0 0  1.999130434782608 0.01666666666666667 0  2.015652173913043 0 0  2.015652173913043 0.01666666666666667 0  2.032173913043478 0 0  2.032173913043478 0.01666666666666667 0  2.048695652173913 0 0  2.048695652173913 0.01666666666666667 0  2.065217391304348 0 0  2.065217391304348 0.01666666666666667 0  2.081739130434782 0 0  2.081739130434782 0.01666666666666667 0  2.098260869565217 0 0  2.098260869565217 0.01666666666666667 0  2.114782608695652 0 0  2.114782608695652 0.01666666666666667 0  2.131304347826087 0 0  2.131304347826087 0.01666666666666667 0  2.147826086956522 0 0  2.147826086956522 0.01666666666666667 0  2.164347826086956 0 0  2.164347826086956 0.01666666666666667 0  2.180869565217391 0 0  2.180869565217391 0.01666666666666667 0  2.197391304347826 0 0  2.197391304347826 0.01666666666666667 0  2.213913043478261 0 0  2.213913043478261 0.01666666666666667 0  2.230434782608695 0 0  2.230434782608695 0.01666666666666667 0  2.24695652173913 0 0  2.24695652173913 0.01666666666666667 0  2.263478260869565 0 0  2.263478260869565 0.01666666666666667 0  2.28 0 0  2.28 0.01666666666666667 0  2.296521739130434 0 0  2.296521739130434 0.01666666666666667 0  2.31304347826087 0 0  2.31304347826087 0.01666666666666667 0  2.329565217391304 0 0  2.329565217391304 0.01666666666666667 0  2.346086956521739 0 0  2.346086956521739 0.01666666666666667 0  2.362608695652174 0 0  2.362608695652174 0.01666666666666667 0  2.379130434782609 0 0  2.379130434782609 0.01666666666666667 0  2.395652173913044 0 0  2.395652173913044 0.01666666666666667 0  2.412173913043478 0 0  2.412173913043478 0.01666666666666667 0  2.428695652173913 0 0  2.428695652173913 0.01666666666666667 0  2.445217391304348 0 0  2.445217391304348 0.01666666666666667 0  2.461739130434782 0 0  2.461739130434782 0.01666666666666667 0  2.478260869565217 0 0  2.478260869565217 0.01666666666666667 0  2.494782608695652 0 0  2.494782608695652 0.01666666666666667 0  2.511304347826087 0 0  2.511304347826087 0.01666666666666667 0  2.527826086956522 0 0  2.527826086956522 0.01666666666666667 0  2.544347826086956 0 0  2.544347826086956 0.01666666666666667 0  2.560869565217391 0 0  2.560869565217391 0.01666666666666667 0  2.577391304347826 0 0  2.577391304347826 0.01666666666666667 0  1.916521739130435 0.03333333333333333 0  1.933043478260869 0.03333333333333333 0  1.949565217391304 0.03333333333333333 0  1.966086956521739 0.03333333333333333 0  1.982608695652174 0.03333333333333333 0  1.999130434782608 0.03333333333333333 0  2.015652173913043 0.03333333333333333 0  2.032173913043478 0.03333333333333333 0  2.048695652173913 0.03333333333333333 0  2.065217391304348 0.03333333333333333 0  2.081739130434782 0.03333333333333333 0  2.098260869565217 0.03333333333333333 0  2.114782608695652 0.03333333333333333 0  2.131304347826087 0.03333333333333333 0  2.147826086956522 0.03333333333333333 0  2.164347826086956 0.03333333333333333 0  2.180869565217391 0.03333333333333333 0  2.197391304347826 0.03333333333333333 0  2.213913043478261 0.03333333333333333 0  2.230434782608695 0.03333333333333333 0  2.24695652173913 0.03333333333333333 0  2.263478260869565 0.03333333333333333 0  2.28 0.03333333333333333 0  2.296521739130434 0.03333333333333333 0  2.31304347826087 0.03333333333333333 0  2.329565217391304 0.03333333333333333 0  2.346086956521739 0.03333333333333333 0  2.362608695652174 0.03333333333333333 0  2.379130434782609 0.03333333333333333 0  2.395652173913044 0.03333333333333333 0  2.412173913043478 0.03333333333333333 0  2.428695652173913 0.03333333333333333 0  2.445217391304348 0.03333333333333333 0  2.461739130434782 0.03333333333333333 0  2.478260869565217 0.03333333333333333 0  2.494782608695652 0.03333333333333333 0  2.511304347826087 0.03333333333333333 0  2.527826086956522 0.03333333333333333 0  2.544347826086956 0.03333333333333333 0  2.560869565217391 0.03333333333333333 0  2.577391304347826 0.03333333333333333 0  2.593913043478261 0.03333333333333333 0  1.933043478260869 0.05 0  1.949565217391304 0.05 0  1.966086956521739 0.05 0  1.982608695652174 0.05 0  1.999130434782608 0.05 0  2.015652173913043 0.05 0  2.032173913043478 0.05 0  2.048695652173913 0.05 0  2.065217391304348 0.05 0  2.081739130434782 0.05 0  2.098260869565217 0.05 0  2.114782608695652 0.05 0  2.131304347826087 0.05 0  2.147826086956522 0.05 0  2.164347826086956 0.05 0  2.180869565217391 0.05 0  2.197391304347826 0.05 0  2.213913043478261 0.05 0  2.230434782608695 0.05 0  2.24695652173913 0.05 0  2.263478260869565 0.05 0  2.28 0.05 0  2.296521739130434 0.05 0  2.31304347826087 0.05 0  2.329565217391304 0.05 0  2.346086956521739 0.05 0  2.362608695652174 0.05 0  2.379130434782609 0.05 0  2.395652173913044 0.05 0  2.412173913043478 0.05 0  2.428695652173913 0.05 0  2.445217391304348 0.05 0  2.461739130434782 0.05 0  2.478260869565217 0.05 0  2.494782608695652 0.05 0  2.511304347826087 0.05 0  2.527826086956522 0.05 0  2.544347826086956 0.05 0  2.560869565217391 0.05 0  2.577391304347826 0.05 0  2.593913043478261 0.05 0  2.610434782608696 0.05 0  1.949565217391304 0.06666666666666667 0  1.966086956521739 0.06666666666666667 0  1.982608695652174 0.06666666666666667 0  1.999130434782608 0.06666666666666667 0  2.015652173913043 0.06666666666666667 0  2.032173913043478 0.06666666666666667 0  2.048695652173913 0.06666666666666667 0  2.065217391304348 0.06666666666666667 0  2.081739130434782 0.06666666666666667 0  2.098260869565217 0.06666666666666667 0  2.114782608695652 0.06666666666666667 0  2.131304347826087 0.06666666666666667 0  2.147826086956522 0.06666666666666667 0  2.164347826086956 0.06666666666666667 0  2.180869565217391 0.06666666666666667 0  2.197391304347826 0.06666666666666667 0  2.213913043478261 0.06666666666666667 0  2.230434782608695 0.06666666666666667 0  2.24695652173913 0.06666666666666667 0  2.263478260869565 0.06666666666666667 0  2.28 0.06666666666666667 0  2.296521739130434 0.06666666666666667 0  2.31304347826087 0.06666666666666667 0  2.329565217391304 0.06666666666666667 0  2.346086956521739 0.06666666666666667 0  2.362608695652174 0.06666666666666667 0  2.379130434782609 0.06666666666666667 0  2.395652173913044 0.06666666666666667 0  2.412173913043478 0.06666666666666667 0  2.428695652173913 0.06666666666666667 0  2.445217391304348 0.06666666666666667 0  2.461739130434782 0.06666666666666667 0  2.478260869565217 0.06666666666666667 0  2.494782608695652 0.06666666666666667 0  2.511304347826087 0.06666666666666667 0  2.527826086956522 0.06666666666666667 0  2.544347826086956 0.06666666666666667 0  2.560869565217391 0.06666666666666667 0  2.577391304347826 0.06666666666666667 0  2.593913043478261 0.06666666666666667 0  2.610434782608696 0.06666666666666667 0  2.62695652173913 0.06666666666666667 0  1.966086956521739 0.08333333333333333 0  1.982608695652174 0.08333333333333333 0  1.999130434782608 0.08333333333333333 0  2.015652173913043 0.08333333333333333 0  2.032173913043478 0.08333333333333333 0  2.048695652173913 0.08333333333333333 0  2.065217391304348 0.08333333333333333 0  2.081739130434782 0.08333333333333333 0  2.098260869565217 0.08333333333333333 0  2.114782608695652 0.08333333333333333 0  2.131304347826087 0.08333333333333333 0  2.147826086956522 0.08333333333333333 0  2.164347826086956 0.08333333333333333 0  2.180869565217391 0.08333333333333333 0  2.197391304347826 0.08333333333333333 0  2.213913043478261 0.08333333333333333 0  2.230434782608695 0.08333333333333333 0  2.24695652173913 0.08333333333333333 0  2.263478260869565 0.08333333333333333 0  2.28 0.08333333333333333 0  2.296521739130434 0.08333333333333333 0  2.31304347826087 0.08333333333333333 0  2.329565217391304 0.08333333333333333 0  2.346086956521739 0.08333333333333333 0  2.362608695652174 0.08333333333333333 0  2.379130434782609 0.08333333333333333 0  2.395652173913044 0.08333333333333333 0  2.412173913043478 0.08333333333333333 0  2.428695652173913 0.08333333333333333 0  2.445217391304348 0.08333333333333333 0  2.461739130434782 0.08333333333333333 0  2.478260869565217 0.08333333333333333 0  2.494782608695652 0.08333333333333333 0  2.511304347826087 0.08333333333333333 0  2.527826086956522 0.08333333333333333 0  2.544347826086956 0.08333333333333333 0  2.560869565217391 0.08333333333333333 0  2.577391304347826 0.08333333333333333 0  2.593913043478261 0.08333333333333333 0  2.610434782608696 0.08333333333333333 0  2.62695652173913 0.08333333333333333 0  2.643478260869565 0.08333333333333333 0  1.982608695652174 0.1 0  1.999130434782608 0.1 0  2.015652173913043 0.1 0  2.032173913043478 0.1 0  2.048695652173913 0.1 0  2.065217391304348 0.1 0  2.081739130434782 0.1 0  2.098260869565217 0.1 0  2.114782608695652 0.1 0  2.131304347826087 0.1 0  2.147826086956522 0.1 0  2.164347826086956 0.1 0  2.180869565217391 0.1 0  2.197391304347826 0.1 0  2.213913043478261 0.1 0  2.230434782608695 0.1 0  2.24695652173913 0.1 0  2.263478260869565 0.1 0  2.28 0.1 0  2.296521739130434 0.1 0  2.31304347826087 0.1 0  2.329565217391304 0.1 0  2.346086956521739 0.1 0  2.362608695652174 0.1 0  2.379130434782609 0.1 0  2.395652173913044 0.1 0  2.412173913043478 0.1 0  2.428695652173913 0.1 0  2.445217391304348 0.1 0  2.461739130434782 0.1 0  2.478260869565217 0.1 0  2.494782608695652 0.1 0  2.511304347826087 0.1 0  2.527826086956522 0.1 0  2.544347826086956 0.1 0  2.560869565217391 0.1 0  2.5773
[...]
<CellData  Scalars="rho"> 
<DataArray  type="Float64"  Name="rho"  format="ascii">1.0000000000000000e+00   1.0000000000000000e+00   1.0000000000000000e+00   1.0000000000000000e+00   9.9668359967653208e-01   9.9998312578295778e-01   9.8270867760230851e-01   9.8395587936330320e-01   9.7908934615133769e-01   9.7603980066376772e-01   9.7964342310524455e-01   9.7769318002289962e-01   9.8548617316808207e-01   9.8108954325475195e-01   9.9201737292158143e-01   9.8923240391438827e-01   1.0000000000000000e+00   9.9824390751747949e-01   1.0000000000000000e+00   1.0000000000000000e+00   1.0000000000000000e+00   1.0000000000000000e+00   1.0000000000000000e+00   1.0000000000000000e+00   9.9915771140394549e-01   9.9378609878098800e-01   9.9256223018866707e-01   9.9097928747651010e-01   9.9150657747124649e-01   9.8976312884087758e-01   9.9227164136443480e-01   9.8927964245867417e-01   9.9915017707565523e-01   9.9506083484924002e-01   1.0000000000000000e+00   1.0000000000000000e+00   1.0000000000000000e+00   1.0000000000000000e+00   1.0000000000000000e+00   1.0000000000000000e+00   1.0000000000000000e+00   1.0000000000000000e+00   1.0000000000000000e+00   1.0000000000000000e+00   9.9163153035812546e-01   9.8890396233746869e-01   9.7903184399004062e-01   9.7629020041221126e-01   9.7591345739980007e-01   9.7082764989970483e-01   9.7604241559445970e-01   9.7320830255878921e-01   9.9102723670633852e-01   9.7687218004446996e-01   9.9851521047395586e-01   9.9501827879102966e-01   1.0000000000000000e+00   1.0000000000000000e+00   1.0000000000000000e+00   1.0000000000000000e+00   1.0000000000000000e+00   1.0000000000000000e+00   8.0458448107814118e-01   8.4526720511194131e-01   8.0776494973636792e-01   7.6247232159562284e-01   8.3598563393498260e-01   7.7928886109962392e-01   8.7712247202810034e-01   8.5625397020705396e-01   9.1549541817190550e-01   9.0509710896489060e-01   9.2751594396604764e-01   9.2032125113881591e-01   9.3451886693727049e-01   9.3420321014429508e-01   9.3479048691753042e-01   9.2946836486574980e-01   9.1946334473439295e-01   9.1682379206331321e-01   8.7247170295372545e-01   8.5474227329778696e-01   8.2257742917500276e-01   8.7381908340594483e-01   9.9995500720720965e-01   9.8395531933528257e-01   9.6550672904441004e-01   9.7006089134618478e-01   9.6960244859289046e-01   9.5840380475817333e-01   9.2989919102676588e-01   9.5496156814191580e-01   8.8346898013543618e-01   9.5378157289908327e-01   9.1440573951394899e-01   9.5832322886923571e-01   9.1834481382478250e-01   9.7610939613831493e-01   9.2086418365462797e-01   9.9495842881078289e-01   9.2377992694622535e-01   9.8612731197139203e-01   9.2444108232583466e-01   9.8792369580405959e-01   9.3659629086712148e-01   9.8499013730406149e-01   9.3191001598195178e-01   9.8428089086646620e-01   9.3874806704933322e-01   9.7381564974460044e-01   9.3536122740950178e-01   9.7609420116354839e-01   9.3496414176185039e-01   9.7829104626421892e-01   9.3393610898187429e-01   9.8474114960840209e-01   9.4063980930363100e-01   9.9087412578996037e-01   9.1620616220956164e-01   9.8048013074138329e-01   9.1998298045712423e-01   9.7738555423682927e-01   9.1931628147189526e-01   9.6433484845678419e-01   9.1727231369751183e-01   9.4325006133241129e-01   9.2058485810994028e-01   9.3795639645718165e-01   9.1505166985370912e-01   9.3607327932988960e-01   9.0042731388679287e-01   9.5392798380250654e-01   8.9978669035476544e-01   9.6584255921938422e-01   9.3271849959375486e-01   9.8840362644103352e-01   9.7694025334878876e-01   1.0000000000000000e+00   9.9635094809817859e-01   1.0000000000000000e+00   9.0963756223878911e-01   8.8684733566434104e-01   7.0784957430945417e-01   6.9724275889649590e-01   5.7814656321476754e-01   5.9171966484528271e-01   4.0889495256773034e-01   7.6596924938093625e-01   5.0647071398646881e-01   8.5239955527905709e-01   6.1210068268090345e-01   9.0900296751673726e-01   7.1655719206160529e-01   9.2517969549604717e-01   7.4467913767079252e-01   9.3193407589920918e-01   7.1705761159154147e-01   9.1620969768836780e-01   6.8804145046470599e-01   8.1511810923049199e-01   6.1112766295378818e-01   7.6814743809477692e-01   5.0479495087312176e-01   5.7091233914332062e-01   2.1996940267470355e-01   3.8548155013827068e-01   4.1029219299644171e-01   3.7716130414215826e-01   1.7172362376822903e-01   3.5854639731507704e-01   1.5318288047234499e-01   4.6253842242888749e-01   6.5754861763115000e-02   4.7215489474441213e-01   7.6776746174337662e-02   4.3666596384749512e-01   7.8074048585186961e-02   5.0038737813627687e-01   9.8035721899046691e-02   4.9420874649248953e-01   1.4726473816852881e-01   5.4868364269056003e-01   1.6327125898843681e-01   5.8464026202329367e-01   9.7597494743658433e-02   5.7960720997133031e-01   1.0852146107815516e-01   6.1551464797186506e-01   9.5102750656133800e-02   5.1347195050771510e-01   1.2163660785426855e-01   6.1143575048111287e-01   1.1403133418657510e-01   6.1214631383416518e-01   1.1026688616388704e-01   6.3791005315025695e-01   7.7544695058389165e-02   6.3596373812311024e-01   6.4293820727260767e-02   6.3903332699505777e-01   7.8126061086209522e-02   5.9834007214639928e-01   1.2492175978544559e-01   5.9060662541059905e-01   1.1627538709315002e-01   5.5975965065373434e-01   1.3481301823546935e-01   4.2410883835235225e-01   1.5360612315067643e-01   3.9351332616204865e-01   1.6293553026098578e-01   4.3744687521934233e-01   1.7913488285508944e-01   4.7784735879965884e-01   2.4339687476288135e-01   4.5983622456727891e-01   2.3152100219643290e-01   4.5105986410816035e-01   2.3362859690235629e-01   3.9308117812260446e-01   1.9237043035663262e-01   2.0257013269307700e-01   7.9967035056253254e-03   1.4255753689561942e-01   7.0707304919095156e-03   6.1489824195806202e-05   8.0826138462817849e-04   1.0461403766281885e-01   1.5418650283403156e-02   3.2399033837037344e-01   1.7628441248608326e-01   4.0706270919212734e-01   2.9495606728104079e-01   4.5646243112421914e-01   3.7587775729865047e-01   4.0915582689790675e-01   3.8617038001658321e-01   3.7579628223901573e-01   2.6975058525568935e-01   2.5278588806028063e-01   2.2012863661809218e-01   3.7369716539525422e-02   6.5439342371255746e-02   5.3211321360266959e-05   5.0449589819195706e-05   3.7470812393656039e-03   6.7159376437351707e-05   3.2985380859329684e-03   6.7748918448181172e-05   0.0000000000000000e+00   7.8162253851025488e-05   0.0000000000000000e+00   0.0000000000000000e+00   0.0000000000000000e+00   1.6180128106605958e-04   3.9709875595297846e-04   3.4523964664822439e-04   7.0709674427558880e-04   7.1188615256898415e-04   8.3877897729488151e-04   1.1838639761366954e-03   7.6590669478783730e-04   1.2013488823452107e-03   7.2113518024421010e-04   7.5146624340789042e-04   3.6692760886728826e-04   6.9818826252246143e-04   6.3187822636928632e-05   6.1242054751168488e-04   3.8333086420601727e-05   2.8154623238011220e-04   1.9751196507873065e-05   1.3846533146043763e-04   6.2942027215683613e-05   2.1270791873622278e-04   3.2935048568564682e-04   5.8394522739100663e-04   7.1941454894630381e-04   6.8362514625289683e-04   9.5248928668338693e-04   9.0587841897259820e-04   1.1212068585255725e-03   1.1558341255377667e-03   1.0892911093821787e-03   1.0362950530388119e-03   4.9770693988821716e-04   8.4429684051193677e-04   2.0418181476482340e-04   5.6755825983003045e-04   1.8611864732783180e-05   5.6964272282566677e-05   1.3346907999870258e-05   1.6852302039493484e-05   2.3201551535978719e-05   2.0113733946503293e-05   5.6413198464860950e-05   3.7302985222756659e-05   7.3189059271161201e-05   9.8668949664637942e-05   2.0323919553457055e-03   1.0805165597456280e-03   3.2869259939783610e-03   2.4883091361940050e-03   2.5137141940642532e-03   2.5010379269096153e-03   6.1444272971267148e-05   3.6185394925371739e-04   5.4817623813022987e-05   6.3675284546576395e-05   6.7848943443054741e-02   6.1718311379955051e-02   1.8035138630780276e-01   1.4484222907756381e-01   3.5149788034050822e-01   3.4165775840968421e-01   3.1198967387533649e-01   4.6889899122911577e-01   1.3442994814238576e-01   2.3909229113187777e-01   3.7111628677065238e-02   9.8538979525616674e-02   5.7939916959545006e-05   5.1626275863748081e-05   4.1785084365310169e-05   4.2870747760619654e-05   1.2445433888092554e-04   5.2326027304064283e-05   3.2574113711267569e-03   1.4421553476350790e-03   2.8205367837154101e-03   2.9265042165195330e-04   2.7246865195365832e-04   2.9130388804477040e-04   2.6852468814565620e-04   2.9321287659920094e-04   5.4389050696680426e-04   4.7908687878316515e-04   1.1273487041223397e-03   9.9959521270684068e-04   1.2885620979393494e-03   1.1980319997467466e-03   1.3335360841125732e-03   1.4331040726799850e-03   8.5960050306546545e-04   1.2098691425207185e-03   6.1632661912983187e-04   6.5682345208599349e-04   9.3557637114843298e-04   5.3391125088009738e-04   5.2602176670301477e-04   8.5652015532272229e-04   5.1687610174476527e-04   7.3935479389260737e-04   7.4377663140848857e-04   7.7332849019270077e-04   6.0610084674777122e-04   5.5711610026734995e-04   7.2888601737297945e-04   6.4910760994246535e-04   1.1792770816882606e-03   7.9489802141682712e-04   1.2692885756821742e-03   1.1456946150122536e-03   8.6054978332441104e-04   8.8528139545102785e-04   6.8239928120789484e-04   7.2502109614664897e-04   2.5830876711461403e-04   4.5778451912459491e-04   3.3848384376219952e-05   2.5804210198802577e-04   2.8061433771201952e-05   3.0818991724596408e-05   3.0023965756411369e-05   1.5293449325195995e-05   2.1765293738388545e-05   2.0042032895016272e-05   2.2234108840418773e-04   1.2851194167035613e-04   7.7370683561938075e-04   6.3138534147985572e-04   8.6653131456714959e-04   9.4250916517771039e-04   5.7829498509321786e-04   6.2548549048563329e-04   5.0489743105208481e-05   9.4599215502201662e-05   1.2695091886907938e-02   2.6422781604545455e-02   1.3356712852127148e-01   1.3299253315845158e-01   2.8565710873081229e-01   2.5406143612199800e-01   5.6752658710911064e-01   4.4256964075995758e-01   5.4800679303971334e-01   7.0444554729221620e-01   2.7425058491816445e-01   3.9522843543984143e-01   1.2435046880467256e-01   2.0055069822981328e-01   3.4532048787385028e-02   7.8697871753319937e-02   4.2994043851857491e-05   4.5869325855776041e-05   3.8556128289918166e-05   4.1539941826871588e-05   4.4555350846225300e-04   2.2621038453221273e-04   1.1962500415105357e-03   8.7608123553733889e-04   7.5852013131855851e-04   4.3508416368775841e-04   3.3061289595579711e-04   3.0811924330211894e-04   7.7497730996552248e-04   4.5559013851719697e-04   9.8393976716847965e-04   8.8297391028649918e-04   1.2365034974161713e-03   1.1331066906699033e-03   1.2552132187605507e-03   1.1741129677117798e-03   1.0976848328385805e-03   1.1103484195897366e-03   7.8050165665682198e-04   8.7311057049223892e-04   5.0584464730305553e-04   5.9608380544010878e-04   5.4771501576414492e-04   4.3983413410541986e-04   5.0934398233276254e-04   5.1768104903080023e-04   4.9452930984991944e-04   5.1100521046630067e-04   5.2731050876454614e-04   4.8267535998490322e-04   6.2784252461874047e-04   5.5166533780834750e-04   7.3162129413043128e-04   6.4340359529772623e-04   9.3488133402186001e-04   6.6896678461218014e-04   6.9065147723524104e-04   8.0203734819157672e-04   5.4215919773493190e-04   5.0441635482132178e-04   3.4844237824378657e-04   3.4883735059369292e-04   1.7130826921961173e-04   1.7777872772017269e-04   8.2365937331925701e-05   1.0290029089214825e-04   4.1074125831680084e-05   7.7172662656751031e-05   1.3360361145009074e-04   1.3043743386819504e-04   2.7432041664968024e-04   2.2967357549508749e-04   6.1523061371135921e-04   4.3308744431862472e-04   6.7390720561891248e-04   6.6726800986467011e-04   2.6531205749417437e-03   3.5877470506644048e-02   7.5080897131449151e-02   1.0273582403174682e-01   1.6007339033436369e-01   1.7767399470466491e-01   2.8081825706462982e-01   3.0187202656589190e-01   4.3583725055306732e-01   4.1360641052510211e-01   6.4271681655322033e-01   8.1405166647920524e-01   6.0315962220325747e-01   9.1004955027818590e-01   4.3267449393821128e-01   8.6883267274168496e-01   2.4612226454558220e-01   4.0486741987978198e-01   1.1103578122576430e-01   2.1538967560437816e-01   2.8442096592635732e-02   8.8442193547786666e-02   4.2046471164457083e-05   3.4760882254451522e-02   2.7578749867233926e-04   1.8038405016615862e-04   6.1922548235910843e-04   5.8653440950374536e-04   4.4310393189752250e-04   5.3034219306134366e-04   2.6965737329767567e-04   4.8970440786230435e-04   1.0119896359553962e-03   8.0238371822808924e-04   9.3588489685825704e-04   1.0161488719451614e-03   9.8447971212433532e-04   9.0037877326890297e-04   9.7439482025579662e-04   9.0000339813277753e-04   8.7058592005781379e-04   8.5496358694264740e-04   7.2147210790156964e-04   7.1325350935481468e-04   6.2220800618984200e-04   6.1600363656251966e-04   4.6482635930974298e-04   5.3664224453698218e-04   4.4172062454375839e-04   5.1396216831810150e-04   5.5347997711969500e-04   5.0636768103751552e-04   6.0360859317167947e-04   5.3958379155802513e-04   6.9130845014708916e-04   6.7104440188725609e-04   6.7890165681876017e-04   9.5145734606921892e-04   5.4555495027610245e-04   6.1467962525786851e-04   9.3410249729437031e-04   8.5244713452718322e-04   6.3292649708126419e-04   7.5479124117336664e-04   3.2972837591891335e-04   5.4493478909884514e-04   2.0890525690935797e-04   2.3517838831693490e-04   1.2853798493356488e-04   1.6207846843439567e-04   1.4328798755379051e-04   1.5670694070912683e-04   1.8868626422464087e-04   1.8393583494195995e-04   3.2417006021712955e-04   2.5394588513957318e-04   5.0800050777058197e-04   3.8138434751520917e-04   9.1673349706210716e-02   1.0983121427924838e-01   1.6385159519058187e-01   1.8023139349518999e-01   2.4026966916706741e-01   2.6152158301841305e-01   3.4505661128922588e-01   3.7281908463750285e-01   4.8385288174876001e-01   5.2360757381388978e-01   8.4455759654489715e-01   6.1904857113333622e-01   9.1147945331761893e-01   6.0245129868019076e-01   9.2021684441175433e-01   6.4101123172556507e-01   9.0555890192413668e-01   8.3180765573450344e-01   5.3596289534726449e-01   7.6737939722482440e-01   3.3794082418914473e-01   6.4781028564261334e-01   1.9196709435651951e-01   2.9632025389989247e-01   1.1560956597501285e-01   2.1499440912233914e-01   7.4731292042344577e-02   1.3780132234063708e-01   7.9089568306438198e-04   2.5980917696318925e-02   5.2712303249437850e-04   8.2471796855357522e-04   3.1050377237798558e-04   4.7459313464079107e-04   2.1201292549479642e-04   5.4978582321820379e-04   5.0173952512900003e-04   4.6731669294629324e-04   4.5423019121406224e-04   4.2071917897324091e-04   4.2971850210625175e-04   3.9850555535499930e-04   4.4293687086918683e-04   3.9798285849424652e-04   5.3129027260168701e-04   4.7178620150111519e-04   7.9573020255454142e-04   4.9885278852477351e-04   7.7998538747790216e-04   6.9326750950922758e-04   1.1148687892060668e-03   7.0647659224747799e-04   7.8195670606176634e-04   7.3326890239872728e-04   5.0529902482868573e-04   5.7729023163817180e-04   4.0667343564808149e-04   4.3057997375860690e-04   2.5564687589937869e-04   2.7352599974074396e-04   1.8190582331662573e-04   2.3870826300002269e-04   1.4666753738480556e-04   1.8720005651091370e-04   9.4863288257285340e-05   4.2554922596297061e-05   2.2191031213093221e-04   4.0921990533617345e-05   1.6854210944068670e-01   2.0055237807805423e-01   2.5928096904752657e-01   3.0685493704341826e-01   3.6976059935270861e-01   4.1515479519434778e-01   5.1171757601245282e-01   5.8801291878188211e-01   7.0954679219027994e-01   6.4553947747277862e-01   6.5492188998322964e-01   6.4621276447591358e-01   6.5481055038664304e-01   6.6732310087664337e-01   6.2125058966999225e-01   6.5452204794937130e-01   6.4581099414626730e-01   6.3566061977208255e-01   8.7192760922423307e-01   6.2276494139556560e-01   8.7872711383822788e-01   6.3756165999274617e-01   8.2853933244511213e-01   8.6873141730849546e-01   4.6653241824573355e-01   7.8577355912254432e-01   3.3902361607759168e-01   4.4512141221561335e-01   2.2564005037782944e-01   3.0243372986367806e-01   1.3581424490858524e-01   2.4935991454052334e-01   9.8216656675862574e-04   1.6031295081048232e-02   6.0698265295350772e-04   8.5772383240622588e-04   3.3393837631566503e-04   5.1187107896277545e-04   3.0052147611274487e-04   5.2090220553840092e-04   4.9767845387998187e-04   2.9296927080891562e-04   3.1849531981595624e-04   4.3756215940755433e-04   3.7335882500079913e-04   2.8705094927564492e-04   3.9258383733110122e-04   3.4556787369910928e-04   5.8721431748328464e-04   5.2375818508827048e-04   5.7154306785545160e-04   5.1254069523421386e-04   7.8740970207341935e-04   7.3756409356099848e-04   5.3255023624078628e-04   4.9716291286482366e-04   4.9496355794080593e-04   4.8701844509779801e-04   3.8210633095805919e-04   4.0305501463550769e-04   3.5487101457068286e-04   3.9924712880491078e-04   3.2097023216542752e-04   3.8484325867589077e-04   3.9828694258014534e-05   4.9284705339034796e-05   5.9561896636871780e-05   6.2745420772978116e-05   1.8302819112912394e-01   1.9663237728731936e-01   3.6797746443607759e-01   3.9593908692415691e-01   4.8557869349832444e-01   6.1011817986745576e-01   6.0091300219721289e-01   7.2434220119087511e-01   8.3200880555650569e-01   7.4333664581433478e-01   8.1273902673813359e-01   8.5968509015871686e-01   7.1145428320738935e-01   7.1362740122686186e-01   6.3984876115943634e-01   6.6456415441151429e-01   5.8696810780397057e-01   5.9394345985482511e-01   5.7618837601461825e-01   5.2094360161058118e-01   6.3453275360679340e-01   5.5695067494034678e-01   6.9583978711445815e-01   6.7456296147016936e-01   7.1988651545501647e-01   7.3706431279090712e-01   6.9461811526096717e-01   7.7505412337547064e-01   5.9187683361854759e-01   7.2805466483063519e-01   4.3668049660113262e-01   5.5305561394555824e-01   3.5375590945383845e-01   4.5172104571042848e-01   1.3074168708462877e-01   3.7063570485722064e-01   1.0103605625254490e-03   1.4034428923165982e-03   6.2470177913565104e-04   9.3363520859619635e-04   3.9691285947930237e-04   5.7158785051748134e-04   2.4229610865370490e-04   3.4683899285899589e-04   2.4467243957547561e-04   3.3302564829675496e-04   3.3208412104585733e-04   2.8555609114802702e-04   4.5892466850432382e-04   3.9922836569928407e-04   2.8131437699516313e-04   4.2520637201108320e-04   3.9805504336618859e-04   2.6884136268974518e-04   4.2210621994285923e-04   3.8332659801593242e-04   4.2273672178135609e-04   2.7854043777430549e-04   4.4924280595973334e-04   4.2317600062140407e-04   4.7716676047759415e-04   4.6908767129825660e-04   4.4017313528189791e-04   5.1454709253575626e-04   5.0952603545681690e-04   5.5082293834742989e-04   5.2462361372882622e-04   6.0490832826659352e-04   7.3881646070865880e-05   1.3127193893771029e-04   9.0869268979160603e-02   8.4010350601455272e-02   4.0065989320462436e-01   3.8818605896428532e-01   5.3335124287214264e-01   5.2782152692039885e-01   6.5517721962649178e-01   6.4521299248223385e-01   7.8099465965773462e-01   7.8433703605760596e-01   8.6944411018152556e-01   8.7484536610313801e-01   7.6793052015477470e-01   8.5260050819966515e-01   7.2563266216077149e-01   7.5187419561927349e-01   6.4647851124105071e-01   6.6914015679591710e-01   4.7885225357865274e-01   5.0240867681757240e-01   3.4686604150263450e-01   2.9905244592994712e-01   5.2511063322350027e-01   3.6285661428801341e-01   6.7888309334066665e-01   6.1583909430031081e-01   7.5033528660850979e-01   7.3050848298551885e-01   7.9818135712710259e-01   7.8187576139250314e-01   7.5141974971748904e-01   9.0161268511761583e-01   6.6379759688812590e-01   7.5504903957500302e-01   5.6016893449677818e-01   6.4046378641866164e-01   4.5029267043159205e-01   5.4525660348794203e-01   6.8963153134901881e-02   3.7572983971944141e-01   1.1593307411748267e-03   1.5812778954288715e-03   7.7252862877029817e-04   1.1818934325915004e-03   4.9515597629339763e-04   8.2278662473051997e-04   3.2296882923363827e-04   4.8027734979802679e-04   3.2122047834416223e-04   2.4074905527957682