<?xml version="1.0"?>
<VTKFile type="UnstructuredGrid"  version="0.1"  >
<UnstructuredGrid>
<Piece  NumberOfPoints="639" NumberOfCells="1174">
<Points>
<DataArray  type="Float64"  NumberOfComponents="3"  format="ascii">1.024347826086957 0 0  1.040869565217391 0 0  1.040869565217391 0.01666666666666667 0  1.024347826086957 0.01666666666666667 0  1.057391304347826 0 0  1.057391304347826 0.01666666666666667 0  1.073913043478261 0 0  1.073913043478261 0.01666666666666667 0  1.090434782608696 0 0  1.090434782608696 0.01666666666666667 0  1.10695652173913 0 0  1.10695652173913 0.01666666666666667 0  1.123478260869565 0 0  1.123478260869565 0.01666666666666667 0  1.14 0 0  1.14 0.01666666666666667 0  1.156521739130435 0 0  1.156521739130435 0.01666666666666667 0  1.17304347826087 0 0  1.17304347826087 0.01666666666666667 0  1.189565217391304 0 0  1.189565217391304 0.01666666666666667 0  1.206086956521739 0 0  1.206086956521739 0.01666666666666667 0  1.222608695652174 0 0  1.222608695652174 0.01666666666666667 0  1.239130434782609 0 0  1.239130434782609 0.01666666666666667 0  1.255652173913044 0 0  1.255652173913044 0.01666666666666667 0  1.272173913043478 0 0  1.272173913043478 0.01666666666666667 0  1.288695652173913 0 0  1.288695652173913 0.01666666666666667 0  1.305217391304348 0 0  1.305217391304348 0.01666666666666667 0  1.321739130434783 0 0  1.321739130434783 0.01666666666666667 0  1.338260869565217 0.01666666666666667 0  1.040869565217391 0.03333333333333333 0  1.057391304347826 0.03333333333333333 0  1.073913043478261 0.03333333333333333 0  1.090434782608696 0.03333333333333333 0  1.10695652173913 0.03333333333333333 0  1.123478260869565 0.03333333333333333 0  1.14 0.03333333333333333 0  1.156521739130435 0.03333333333333333 0  1.17304347826087 0.03333333333333333 0  1.189565217391304 0.03333333333333333 0  1.206086956521739 0.03333333333333333 0  1.222608695652174 0.03333333333333333 0  1.239130434782609 0.03333333333333333 0  1.255652173913044 0.03333333333333333 0  1.272173913043478 0.03333333333333333 0  1.288695652173913 0.03333333333333333 0  1.305217391304348 0.03333333333333333 0  1.321739130434783 0.03333333333333333 0  1.338260869565217 0.03333333333333333 0  1.354782608695652 0.03333333333333333 0  1.057391304347826 0.05 0  1.073913043478261 0.05 0  1.090434782608696 0.05 0  1.10695652173913 0.05 0  1.123478260869565 0.05 0  1.14 0.05 0  1.156521739130435 0.05 0  1.17304347826087 0.05 0  1.189565217391304 0.05 0  1.206086956521739 0.05 0  1.222608695652174 0.05 0  1.239130434782609 0.05 0  1.255652173913044 0.05 0  1.272173913043478 0.05 0  1.288695652173913 0.05 0  1.305217391304348 0.05 0  1.321739130434783 0.05 0  1.338260869565217 0.05 0  1.354782608695652 0.05 0  1.371304347826087 0.05 0  1.073913043478261 0.06666666666666667 0  1.090434782608696 0.06666666666666667 0  1.10695652173913 0.06666666666666667 0  1.123478260869565 0.06666666666666667 0  1.14 0.06666666666666667 0  1.156521739130435 0.06666666666666667 0  1.17304347826087 0.06666666666666667 0  1.189565217391304 0.06666666666666667 0  1.206086956521739 0.06666666666666667 0  1.222608695652174 0.06666666666666667 0  1.239130434782609 0.06666666666666667 0  1.255652173913044 0.06666666666666667 0  1.272173913043478 0.06666666666666667 0  1.288695652173913 0.06666666666666667 0  1.305217391304348 0.06666666666666667 0  1.321739130434783 0.06666666666666667 0  1.338260869565217 0.06666666666666667 0  1.354782608695652 0.06666666666666667 0  1.371304347826087 0.06666666666666667 0  1.387826086956522 0.06666666666666667 0  1.090434782608696 0.08333333333333333 0  1.10695652173913 0.08333333333333333 0  1.123478260869565 0.08333333333333333 0  1.14 0.08333333333333333 0  1.156521739130435 0.08333333333333333 0  1.17304347826087 0.08333333333333333 0  1.189565217391304 0.08333333333333333 0  1.206086956521739 0.08333333333333333 0  1.222608695652174 0.08333333333333333 0  1.239130434782609 0.08333333333333333 0  1.255652173913044 0.08333333333333333 0  1.272173913043478 0.08333333333333333 0  1.288695652173913 0.08333333333333333 0  1.305217391304348 0.08333333333333333 0  1.321739130434783 0.08333333333333333 0  1.338260869565217 0.08333333333333333 0  1.354782608695652 0.08333333333333333 0  1.371304347826087 0.08333333333333333 0  1.387826086956522 0.08333333333333333 0  1.404347826086957 0.08333333333333333 0  1.10695652173913 0.1 0  1.123478260869565 0.1 0  1.14 0.1 0  1.156521739130435 0.1 0  1.17304347826087 0.1 0  1.189565217391304 0.1 0  1.206086956521739 0.1 0  1.222608695652174 0.1 0  1.239130434782609 0.1 0  1.255652173913044 0.1 0  1.272173913043478 0.1 0  1.288695652173913 0.1 0  1.305217391304348 0.1 0  1.321739130434783 0.1 0  1.338260869565217 0.1 0  1.354782608695652 0.1 0  1.371304347826087 0.1 0  1.387826086956522 0.1 0  1.404347826086957 0.1 0  1.420869565217391 0.1 0  1.123478260869565 0.1166666666666667 0  1.14 0.1166666666666667 0  1.156521739130435 0.1166666666666667 0  1.17304347826087 0.1166666666666667 0  1.189565217391304 0.1166666666666667 0  1.206086956521739 0.1166666666666667 0  1.222608695652174 0.1166666666666667 0  1.239130434782609 0.1166666666666667 0  1.255652173913044 0.1166666666666667 0  1.272173913043478 0.1166666666666667 0  1.288695652173913 0.1166666666666667 0  1.305217391304348 0.1166666666666667 0  1.321739130434783 0.1166666666666667 0  1.338260869565217 0.1166666666666667 0  1.354782608695652 0.1166666666666667 0  1.371304347826087 0.1166666666666667 0  1.387826086956522 0.1166666666666667 0  1.404347826086957 0.1166666666666667 0  1.420869565217391 0.1166666666666667 0  1.437391304347826 0.1166666666666667 0  1.14 0.1333333333333333 0  1.156521739130435 0.1333333333333333 0  1.17304347826087 0.1333333333333333 0  1.189565217391304 0.1333333333333333 0  1.206086956521739 0.1333333333333333 0  1.222608695652174 0.1333333333333333 0  1.239130434782609 0.1333333333333333 0  1.255652173913044 0.1333333333333333 0  1.272173913043478 0.1333333333333333 0  1.288695652173913 0.1333333333333333 0  1.305217391304348 0.1333333333333333 0  1.321739130434783 0.1333333333333333 0  1.338260869565217 0.1333333333333333 0  1.354782608695652 0.1333333333333333 0  1.371304347826087 0.1333333333333333 0  1.387826086956522 0.1333333333333333 0  1.404347826086957 0.1333333333333333 0  1.420869565217391 0.1333333333333333 0  1.437391304347826 0.1333333333333333 0  1.453913043478261 0.1333333333333333 0  1.156521739130435 0.15 0  1.17304347826087 0.15 0  1.189565217391304 0.15 0  1.206086956521739 0.15 0  1.222608695652174 0.15 0  1.239130434782609 0.15 0  1.255652173913044 0.15 0  1.272173913043478 0.15 0  1.288695652173913 0.15 0  1.305217391304348 0.15 0  1.321739130434783 0.15 0  1.338260869565217 0.15 0  1.354782608695652 0.15 0  1.371304347826087 0.15 0  1.387826086956522 0.15 0  1.404347826086957 0.15 0  1.420869565217391 0.15 0  1.437391304347826 0.15 0  1.453913043478261 0.15 0  1.470434782608696 0.15 0  1.17304347826087 0.1666666666666667 0  1.189565217391304 0.1666666666666667 0  1.206086956521739 0.1666666666666667 0  1.222608695652174 0.1666666666666667 0  1.239130434782609 0.1666666666666667 0  1.255652173913044 0.1666666666666667 0  1.272173913043478 0.1666666666666667 0  1.288695652173913 0.1666666666666667 0  1.305217391304348 0.1666666666666667 0  1.321739130434783 0.1666666666666667 0  1.338260869565217 0.1666666666666667 0  1.354782608695652 0.1666666666666667 0  1.371304347826087 0.1666666666666667 0  1.387826086956522 0.1666666666666667 0  1.404347826086957 0.1666666666666667 0  1.420869565217391 0.1666666666666667 0  1.437391304347826 0.1666666666666667 0  1.453913043478261 0.1666666666666667 0  1.470434782608696 0.1666666666666667 0  1.486956521739131 0.1666666666666667 0  1.189565217391304 0.1833333333333333 0  1.206086956521739 0.1833333333333333 0  1.222608695652174 0.1833333333333333 0  1.239130434782609 0.1833333333333333 0  1.255652173913044 0.1833333333333333 0  1.272173913043478 0.1833333333333333 0  1.288695652173913 0.1833333333333333 0  1.305217391304348 0.1833333333333333 0  1.321739130434783 0.1833333333333333 0  1.338260869565217 0.1833333333333333 0  1.354782608695652 0.1833333333333333 0  1.371304347826087 0.1833333333333333 0  1.387826086956522 0.1833333333333333 0  1.404347826086957 0.1833333333333333 0  1.420869565217391 0.1833333333333333 0  1.437391304347826 0.1833333333333333 0  1.453913043478261 0.1833333333333333 0  1.470434782608696 0.1833333333333333 0  1.486956521739131 0.1833333333333333 0  1.503478260869565 0.1833333333333333 0  1.206086956521739 0.2 0  1.222608695652174 0.2 0  1.239130434782609 0.2 0  1.255652173913044 0.2 0  1.272173913043478 0.2 0  1.288695652173913 0.2 0  1.305217391304348 0.2 0  1.321739130434783 0.2 0  1.338260869565217 0.2 0  1.354782608695652 0.2 0  1.371304347826087 0.2 0  1.387826086956522 0.2 0  1.404347826086957 0.2 0  1.420869565217391 0.2 0  1.437391304347826 0.2 0  1.453913043478261 0.2 0  1.470434782608696 0.2 0  1.486956521739131 0.2 0  1.503478260869565 0.2 0  1.52 0.2 0  1.222608695652174 0.2166666666666667 0  1.239130434782609 0.2166666666666667 0  1.255652173913044 0.2166666666666667 0  1.272173913043478 0.2166666666666667 0  1.288695652173913 0.2166666666666667 0  1.305217391304348 0.2166666666666667 0  1.321739130434783 0.2166666666666667 0  1.338260869565217 0.2166666666666667 0  1.354782608695652 0.2166666666666667 0  1.371304347826087 0.2166666666666667 0  1.387826086956522 0.2166666666666667 0  1.404347826086957 0.2166666666666667 0  1.420869565217391 0.2166666666666667 0  1.437391304347826 0.2166666666666667 0  1.453913043478261 0.2166666666666667 0  1.470434782608696 0.2166666666666667 0  1.486956521739131 0.2166666666666667 0  1.503478260869565 0.2166666666666667 0  1.52 0.2166666666666667 0  1.536521739130435 0.2166666666666667 0  1.239130434782609 0.2333333333333333 0  1.255652173913044 0.2333333333333333 0  1.272173913043478 0.2333333333333333 0  1.288695652173913 0.2333333333333333 0  1.305217391304348 0.23333
[...]
<PointData  Vectors="Displacement"> 
<DataArray  type="Float64"  Name="Displacement"  NumberOfComponents="3" format="ascii">1.5010684453496483e-04 1.1953533394501459e-03 0.0000000000000000e+00  1.5198991936155010e-04 1.2078229901047136e-03 0.0000000000000000e+00  1.3941297973944338e-04 1.2071920411945946e-03 0.0000000000000000e+00  1.3750154946818959e-04 1.1947236461282676e-03 0.0000000000000000e+00  1.5388053436583981e-04 1.2202682750965580e-03 0.0000000000000000e+00  1.4132440865258970e-04 1.2196360712116475e-03 0.0000000000000000e+00  1.5577868644357228e-04 1.2326966682035785e-03 0.0000000000000000e+00  1.4323583622269880e-04 1.2320632098771532e-03 0.0000000000000000e+00  1.5768437289428774e-04 1.2451156403086075e-03 0.0000000000000000e+00  1.4514726251116814e-04 1.2444809280000848e-03 0.0000000000000000e+00  1.5959759141628995e-04 1.2575326597196429e-03 0.0000000000000000e+00  1.4705868763735901e-04 1.2568966938193086e-03 0.0000000000000000e+00  1.6151834012000815e-04 1.2699551925133465e-03 0.0000000000000000e+00  1.4897011176191036e-04 1.2693179733251909e-03 0.0000000000000000e+00  1.6344661750311457e-04 1.2823907029055675e-03 0.0000000000000000e+00  1.5088153510500624e-04 1.2817522306988261e-03 0.0000000000000000e+00  1.6538242243349774e-04 1.2948466534152484e-03 0.0000000000000000e+00  1.5279295790149435e-04 1.2942069285220934e-03 0.0000000000000000e+00  1.6732575433119992e-04 1.3073305052895287e-03 0.0000000000000000e+00  1.5470438007699389e-04 1.3066895279593323e-03 0.0000000000000000e+00  1.6927661345169013e-04 1.3198497203552200e-03 0.0000000000000000e+00  1.5661580100994639e-04 1.3192074901685630e-03 0.0000000000000000e+00  1.7123500058454079e-04 1.3324117638733503e-03 0.0000000000000000e+00  1.5852722047658173e-04 1.3317682790530176e-03 0.0000000000000000e+00  1.7320091623100275e-04 1.3450241061528732e-03 0.0000000000000000e+00  1.6043864107087550e-04 1.3443793615505568e-03 0.0000000000000000e+00  1.7517436073295973e-04 1.3576942273880769e-03 0.0000000000000000e+00  1.6235007304179724e-04 1.3570482046758637e-03 0.0000000000000000e+00  1.7715533673943781e-04 1.3704296450982997e-03 0.0000000000000000e+00  1.6426155322859628e-04 1.3697822753496447e-03 0.0000000000000000e+00  1.7914381943322439e-04 1.3832379462169423e-03 0.0000000000000000e+00  1.6617323803538967e-04 1.3825890671528259e-03 0.0000000000000000e+00  1.8113949497364944e-04 1.3961263074441278e-03 0.0000000000000000e+00  1.6808567396218828e-04 1.3954760508970215e-03 0.0000000000000000e+00  1.8314185938608083e-04 1.4090998987491700e-03 0.0000000000000000e+00  1.6999938960374003e-04 1.4084488989490301e-03 0.0000000000000000e+00  1.8515137788297823e-04 1.4221630579359418e-03 0.0000000000000000e+00  1.7191340142440234e-04 1.4215110917118058e-03 0.0000000000000000e+00  1.7382638353036158e-04 1.4346710345889528e-03 0.0000000000000000e+00  1.2683604435936551e-04 1.2065529062822793e-03 0.0000000000000000e+00  1.2876828697261781e-04 1.2189981916025457e-03 0.0000000000000000e+00  1.3069298975278541e-04 1.2314265851411839e-03 0.0000000000000000e+00  1.3261015544737789e-04 1.2438455577221002e-03 0.0000000000000000e+00  1.3451978662991227e-04 1.2562625776331537e-03 0.0000000000000000e+00  1.3642188557494295e-04 1.2686851109280977e-03 0.0000000000000000e+00  1.3831645409241028e-04 1.2811206217519311e-03 0.0000000000000000e+00  1.4020349412110432e-04 1.2935765728700136e-03 0.0000000000000000e+00  1.4208300709916274e-04 1.3060604261824274e-03 0.0000000000000000e+00  1.4395499092031280e-04 1.3185796434397772e-03 0.0000000000000000e+00  1.4581943873828688e-04 1.3311416874399735e-03 0.0000000000000000e+00  1.4767634560322070e-04 1.3437540229617950e-03 0.0000000000000000e+00  1.4952571041739352e-04 1.3564241118786170e-03 0.0000000000000000e+00  1.5136752686248931e-04 1.3691593897079742e-03 0.0000000000000000e+00  1.5320179827065455e-04 1.3819671520982186e-03 0.0000000000000000e+00  1.5502912161215139e-04 1.3948542358304980e-03 0.0000000000000000e+00  1.5685391416029009e-04 1.4078273773537435e-03 0.0000000000000000e+00  1.5867768746258883e-04 1.4208925731671160e-03 0.0000000000000000e+00  1.6048700100222254e-04 1.4340544383836154e-03 0.0000000000000000e+00  1.6228367139595450e-04 1.4473240006109825e-03 0.0000000000000000e+00  1.2547007423568550e-04 1.2151304944287345e-03 0.0000000000000000e+00  1.2751245975298192e-04 1.2280573098109803e-03 0.0000000000000000e+00  1.2948849870110234e-04 1.2409811300967931e-03 0.0000000000000000e+00  1.3139673825603333e-04 1.2539056064234087e-03 0.0000000000000000e+00  1.3323599657209722e-04 1.2668343082717058e-03 0.0000000000000000e+00  1.3500573908497833e-04 1.2797703709708905e-03 0.0000000000000000e+00  1.3670659150304517e-04 1.2927166107745574e-03 0.0000000000000000e+00  1.3833988393140866e-04 1.3056757342676979e-03 0.0000000000000000e+00  1.3990788140289768e-04 1.3186502917078378e-03 0.0000000000000000e+00  1.4141423846315121e-04 1.3316429209080107e-03 0.0000000000000000e+00  1.4286469161213584e-04 1.3446573674816451e-03 0.0000000000000000e+00  1.4426804061591552e-04 1.3577020291057919e-03 0.0000000000000000e+00  1.4562724748990908e-04 1.3707829631692549e-03 0.0000000000000000e+00  1.4693957048417594e-04 1.3839001705449937e-03 0.0000000000000000e+00  1.4820711424343405e-04 1.3970593652082234e-03 0.0000000000000000e+00  1.4943025506431530e-04 1.4102657253345372e-03 0.0000000000000000e+00  1.5060419083344468e-04 1.4235225221930986e-03 0.0000000000000000e+00  1.5171581360749658e-04 1.4368267179853101e-03 0.0000000000000000e+00  1.5273993581002449e-04 1.4501452723873474e-03 0.0000000000000000e+00  1.5360899147628365e-04 1.4632938333186362e-03 0.0000000000000000e+00  1.2360480480559985e-04 1.2246014878280280e-03 0.0000000000000000e+00  1.2561628630094408e-04 1.2380784051543010e-03 0.0000000000000000e+00  1.2750600579671881e-04 1.2515569057473079e-03 0.0000000000000000e+00  1.2927294413434359e-04 1.2650360750874998e-03 0.0000000000000000e+00  1.3091747918365083e-04 1.2785143650143214e-03 0.0000000000000000e+00  1.3244157026010939e-04 1.2919897681891431e-03 0.0000000000000000e+00  1.3384882749461636e-04 1.3054602328219256e-03 0.0000000000000000e+00  1.3514450247680224e-04 1.3189238414212949e-03 0.0000000000000000e+00  1.3633535490846740e-04 1.3323792665152086e-03 0.0000000000000000e+00  1.3742933345375650e-04 1.3458267226122273e-03 0.0000000000000000e+00  1.3843509441366863e-04 1.3592695014201287e-03 0.0000000000000000e+00  1.3936096018128872e-04 1.3727120044456731e-03 0.0000000000000000e+00  1.4021328886654972e-04 1.3861564457084896e-03 0.0000000000000000e+00  1.4099652683864213e-04 1.3996056745748000e-03 0.0000000000000000e+00  1.4171432841275023e-04 1.4130627356970891e-03 0.0000000000000000e+00  1.4236935020650674e-04 1.4265275016775464e-03 0.0000000000000000e+00  1.4296453306094143e-04 1.4399902914246678e-03 0.0000000000000000e+00  1.4350516224514740e-04 1.4534121011669434e-03 0.0000000000000000e+00  1.4399120911977252e-04 1.4666735623543648e-03 0.0000000000000000e+00  1.4436367300370433e-04 1.4795253310583018e-03 0.0000000000000000e+00  1.2097077685169913e-04 1.2351675212214390e-03 0.0000000000000000e+00  1.2284776957675829e-04 1.2492346750019661e-03 0.0000000000000000e+00  1.2455363172411533e-04 1.2632988762377056e-03 0.0000000000000000e+00  1.2608941483201330e-04 1.2773533785943516e-03 0.0000000000000000e+00  1.2745835928230098e-04 1.2913908550144714e-03 0.0000000000000000e+00  1.2866599272422628e-04 1.3054039161060958e-03 0.0000000000000000e+00  1.2972008306090063e-04 1.3193856320031165e-03 0.0000000000000000e+00  1.3063036033104253e-04 1.3333302464520129e-03 0.0000000000000000e+00  1.3140803925678146e-04 1.3472341456366328e-03 0.0000000000000000e+00  1.3206526098067311e-04 1.3610967664688769e-03 0.0000000000000000e+00  1.3261445774057117e-04 1.3749197666678603e-03 0.0000000000000000e+00  1.3306718831248795e-04 1.3887053617540957e-03 0.0000000000000000e+00  1.3343308497014951e-04 1.4024562685076047e-03 0.0000000000000000e+00  1.3372004816579922e-04 1.4161742390852220e-03 0.0000000000000000e+00  1.3393495936399839e-04 1.4298567794937876e-03 0.0000000000000000e+00  1.3408421258244625e-04 1.4434924478364905e-03 0.0000000000000000e+00  1.3417349207008037e-04 1.4570500536673543e-03 0.0000000000000000e+00  1.3419954747445880e-04 1.4704706330548253e-03 0.0000000000000000e+00  1.3412716540140240e-04 1.4837277642892074e-03 0.0000000000000000e+00  1.3394238595010088e-04 1.4973194895219998e-03 0.0000000000000000e+00  1.1750118274623829e-04 1.2469349617351953e-03 0.0000000000000000e+00  1.1915563964756677e-04 1.2616171984522907e-03 0.0000000000000000e+00  1.2059682782715593e-04 1.2762805083891768e-03 0.0000000000000000e+00  1.2182912191585195e-04 1.2909116414322685e-03 0.0000000000000000e+00  1.2285984831596832e-04 1.3054972547054948e-03 0.0000000000000000e+00  1.2369924300585221e-04 1.3200247439939165e-03 0.0000000000000000e+00  1.2436015312488854e-04 1.3344832454294355e-03 0.0000000000000000e+00  1.2485749565111824e-04 1.3488647559491106e-03 0.0000000000000000e+00  1.2520756742891059e-04 1.3631649808195905e-03 0.0000000000000000e+00  1.2542721395280524e-04 1.3773831300722661e-03 0.0000000000000000e+00  1.2553258967698815e-04 1.3915210906472201e-03 0.0000000000000000e+00  1.2553787329213332e-04 1.4055823045118574e-03 0.0000000000000000e+00  1.2545445895124677e-04 1.4195694311484775e-03 0.0000000000000000e+00  1.2529043831594665e-04 1.4334806326335759e-03 0.0000000000000000e+00  1.2504920387779476e-04 1.4473075955026792e-03 0.0000000000000000e+00  1.2473061072894767e-04 1.4610287731391821e-03 0.0000000000000000e+00  1.2433133235200609e-04 1.4746164450339962e-03 0.0000000000000000e+00  1.2384533782019391e-04 1.4880895659640067e-03 0.0000000000000000e+00  1.2329020174676729e-04 1.5016621948137959e-03 0.0000000000000000e+00  1.2272023436918413e-04 1.5153765931125640e-03 0.0000000000000000e+00  1.1314521015752021e-04 1.2599869015839631e-03 0.0000000000000000e+00  1.1450385459978451e-04 1.2752908887513998e-03 0.0000000000000000e+00  1.1561524636839015e-04 1.2905466185107069e-03 0.0000000000000000e+00  1.1648844324668840e-04 1.3057340234027593e-03 0.0000000000000000e+00  1.1713620199559473e-04 1.3208340003625955e-03 0.0000000000000000e+00  1.1757466128513715e-04 1.3358297602563878e-03 0.0000000000000000e+00  1.1782267953098463e-04 1.3507082761261800e-03 0.0000000000000000e+00  1.1790094059171468e-04 1.3654613653986455e-03 0.0000000000000000e+00  1.1783089609836424e-04 1.3800859834657575e-03 0.0000000000000000e+00  1.1763331493602950e-04 1.3945840471281975e-03 0.0000000000000000e+00  1.1732687939237723e-04 1.4089607880995226e-03 0.0000000000000000e+00  1.1692673838519210e-04 1.4232220983474775e-03 0.0000000000000000e+00  1.1644263458754834e-04 1.4373705009762823e-03 0.0000000000000000e+00  1.1587285965934785e-04 1.4514060919223627e-03 0.0000000000000000e+00  1.1520750322497628e-04 1.4653118336084093e-03 0.0000000000000000e+00  1.1444443489512031e-04 1.4790608511577473e-03 0.0000000000000000e+00  1.1360998021534860e-04 1.4926486268961407e-03 0.0000000000000000e+00  1.1277921892791573e-04 1.5061686223611147e-03 0.0000000000000000e+00  1.1194740380449161e-04 1.5198060877655512e-03 0.0000000000000000e+00  1.1112629452463972e-04 1.5335575099018302e-03 0.0000000000000000e+00  1.0786409497810426e-04 1.2743815281433062e-03 0.0000000000000000e+00  1.0886779564402618e-04 1.2902928278489491e-03 0.0000000000000000e+00  1.0959971314913559e-04 1.3061112079819071e-03 0.0000000000000000e+00  1.1007522818224402e-04 1.3218100325740889e-03 0.0000000000000000e+00  1.1031402522008657e-04 1.3373656127924529e-03 0.0000000000000000e+00  1.1033917094705168e-04 1.3527592033734600e-03 0.0000000000000000e+00  1.1017587796573753e-04 1.3679784487934021e-03 0.0000000000000000e+00  1.0985023271053982e-04 1.3830180627520312e-03 0.0000000000000000e+00  1.0938756059174860e-04 1.3978804592545573e-03 0.0000000000000000e+00  1.0881137223135091e-04 1.4125733996986243e-03 0.0000000000000000e+00  1.0814224776931527e-04 1.4271076108803098e-03 0.0000000000000000e+00  1.0739542778248027e-04 1.4414930157339773e-03 0.0000000000000000e+00  1.0656678870547086e-04 1.4557504785966660e-03 0.0000000000000000e+00  1.0562885696625395e-04 1.4698671425732068e-03 0.0000000000000000e+00  1.0456016701198968e-04 1.4837835140080659e-03 0.0000000000000000e+00  1.0342379620521560e-04 1.4974238968703492e-03 0.0000000000000000e+00  1.0236578561317793e-04 1.5107689196324277e-03 0.0000000000000000e+00  1.0141034429925524e-04 1.5243647873306586e-03 0.0000000000000000e+00  1.0035005488805704e-04 1.5379251837205126e-03 0.0000000000000000e+00  1.0031376903954751e-04 1.5517789829626487e-03 0.0000000000000000e+00  1.0162789382680178e-04 1.2901497594734433e-03 0.0000000000000000e+00  1.0223183815254062e-04 1.3066289720910147e-03 0.0000000000000000e+00  1.0255102453594491e-04 1.3229532707287519e-03 0.0000000000000000e+00  1.0260915047513827e-04 1.3390908365607935e-03 0.0000000000000000e+00  1.0243401266368679e-04 1.3550164904754540e-03 0.0000000000000000e+00  1.0205555472107304e-04 1.3707134913941274e-03 0.0000000000000000e+00  1.0150421687753496e-04 1.3861742794685273e-03 0.0000000000000000e+00  1.0080902584930518e-04 1.4014023045463126e-03 0.0000000000000000e+00  9.9998057364344788e-05 1.4164076761434608e-03 0.0000000000000000e+00  9.9099147129022298e-05 1.4312050844999446e-03 0.0000000000000000e+00  9.8140617227776436e-05 1.4458115976843185e-03 0.0000000000000000e+00  9.7120180885305763e-05 1.4602876351608534e-03 0.0000000000000000e+00  9.6009497499410085e-05 1.4746543725740954e-03 0.0000000000000000e+00  9.4725509914638331e-05 1.4887971917705179e-03 0.0000000000000000e+00  9.3307641463650920e-05 1.5024260085648403e-03 0.0000000000000000e+00  9.2175439913317949e-05 1.5154107448294711e-03 0.0000000000000000e+00  9.1068490012286501e-05 1.5286475897548454e-03 0.0000000000000000e+00  9.0990428775092845e-05 1.5423727198226212e-03 0.0000000000000000e+00  9.0657022375545125e-05 1.5518959660932683e-03 0.0000000000000000e+00  9.0346626611762781e-05 1.5614779977472762e-03 0.0000000000000000e+00  9.4413453506298113e-05 1.3072906967999207e-03 0.0000000000000000e+00  9.4588861623736887e-05 1.3242680402386284e-03 0.0000000000000000e+00  9.4481705518090800e-05 1.3410095786651269e-03 0.0000000000000000e+00  9.4125667822083980e-05 1.3574829912655054e-03 0.0000000000000000e+00  9.3556143745555874e-05 1.3736674676117903e-03 0.0000000000000000e+00  9.2807326023355103e-05 1.3895536174267891e-03 0.0000000000000000e+00  9.1909191623575233e-05 1.4051473437952226e-03 0.0000000000000000e+00  9.0891614422835128e-05 1.4204592444591962e-03 0.0000000000000000e+00  8.9791022445319523e-05 1.4355037921268334e-03 0.0000000000000000e+00  8.8656343581174538e-05 1.4502926830940932e-03 0.0000000000000000e+00  8.7495744646975553e-05 1.4649646082700151e-03 0.0000000000000000e+00  8.6271102018434093e-05 1.4795641791365631e-03 0.0000000000000000e+00  8.5022001206611674e-05 1.4941016007422904e-03 0.0000000000000000e+00  8.3475063885413814e-05 1.5077791655353963e-03 0.0000000000000000e+00  8.2232380916995315e-05 1.5196255580100370e-03 0.0000000000000000e+00  8.2216468956313547e-05 1.5328990989253010e-03 0.0000000000000000e+00  8.1886941096513783e-05 1.5423737233857798e-03 0.0000000000000000e+00  8.1624351984719735e-05 1.5518612001359248e-03 0.0000000000000000e+00  8.1328526721959293e-05 1.5614180197349530e-03 0.0000000000000000e+00  8.0993717509420817e-05 1.5710915030454342e-03 0.0000000000000000e+00  8.6204506147176556e-05 1.3257629543743860e-03 0.0000000000000000e+00  8.5943713161624156e-05 1.3431303878506890e-03 0.0000000000000000e+00  8.5423032966657316e-05 1.3601649472508579e-03 0.0000000000000000e+00  8.4685720174141290e-05 1.3768431615693130e-03 0.0000000000000000e+00  8.3770152915976572e-05 1.3931563467559590e-03 0.0000000000000000e+00  8.2700693377913412e-05 1.4091175828749814e-03 0.0000000000000000e+00  8.1501091763963810e-05 1.4247344404131057e-03 0.0000000000000000e+00  8.0212118566390359e-05 1.4400080444133764e-03 0.0000000000000000e+00  7.8926155885699758e-05 1.4549236551168175e-03 0.0000000000000000e+00  7.7613717957300792e-05 1.4697374499899908e-03 0.0000000000000000e+00  7.6316956245414035e-05 1.4845927058192607e-03 0.0000000000000000e+00  7.4891032308162722e-05 1.4991869799464239e-03 0.0000000000000000e+00  7.4836137433275372e-05 1.5138004778610713e-03 0.0000000000000000e+00  7.3591631589753364e-05 1.5234828765618145e-03 0.0000000000000000e+00  7.3301531674011968e-05 1.5328721681489286e-03 0.0000000000000000e+00  7.3014864420797097e-05 1.5422816888839806e-03 0.0000000000000000e+00  7.2716348416367846e-05 1.5518081536669615e-03 0.0000000000000000e+00  7.2419009753393608e-05 1.5613258950099296e-03 0.0000000000000000e+00  7.2099745419014629e-05 1.5709749278443137e-03 0.0000000000000000e+00  7.1524727022097636e-05 1.5808957058716933e-03 0.0000000000000000e+00  7.6997155822345771e-05 1.3454672974308314e-03 0.0000000000000000e+00  7.6324156830240454e-05 1.3630724911750634e-03 0.0000000000000000e+00  7.5441099926693369e-05 1.3802425495043895e-03 0.0000000000000000e+00  7.4397407459553673e-05 1.3969765348740436e-03 0.0000000000000000e+00  7.3204078904141561e-05 1.4133127849816152e-03 0.0000000000000000e+00  7.1855116677048905e-05 1.4292447292033180e-03 0.0000000000000000e+00  7.0396138022167935e-05 1.4447396559211644e-03 0.0000000000000000e+00  6.8984564284076458e-05 1.4596538588432929e-03 0.0000000000000000e+00  6.7631045298268422e-05 1.4746323985412267e-03 0.0000000000000000e+00  6.6079938249638832e-05 1.4893987455347985e-03 0.0000000000000000e+00  6.5654699073927657e-05 1.5044117208733168e-03 0.0000000000000000e+00  6.5341600733630114e-05 1.5139152761371715e-03 0.0000000000000000e+00  6.5005508540494835e-05 1.5233548036767287e-03 0.0000000000000000e+00  6.4609794374386343e-05 1.5327987070165401e-03 0.0000000000000000e+00  6.4252738157587118e-05 1.5421947074978123e-03 0.0000000000000000e+00  6.3817497075307431e-05 1.5517572727213086e-03 0.0000000000000000e+00  6.3556563141408193e-05 1.5612268305945874e-03 0.0000000000000000e+00  6.2984886748280780e-05 1.5709712350903753e-03 0.0000000000000000e+00  5.9413822225375847e-05 1.5943450366160312e-03 0.0000000000000000e+00  5.2478579840928806e-05 1.6178220191696625e-03 0.0000000000000000e+00  6.6815344117184295e-05 1.3662222633395980e-03 0.0000000000000000e+00  6.5804687645636147e-05 1.3838684094746446e-03 0.0000000000000000e+00  6.4674748825846611e-05 1.4009892084921179e-03 0.0000000000000000e+00  6.3439916556734264e-05 1.4177081179283472e-03 0.0000000000000000e+00  6.2029078961127173e-05 1.4340044407582123e-03 0.0000000000000000e+00  6.0420005914332704e-05 1.4496978986409689e-03 0.0000000000000000e+00  5.9092989449034718e-05 1.4644069096604075e-03 0.0000000000000000e+00  5.7731576858961281e-05 1.4791607701613516e-03 0.0000000000000000e+00  5.7530114507804334e-05 1.4942787340003713e-03 0.0000000000000000e+00  5.6888089979594910e-05 1.5042797486655849e-03 0.0000000000000000e+00  5.6575172543481191e-05 1.5138386421518087e-03 0.0000000000000000e+00  5.6258118828156823e-05 1.5232853656132828e-03 0.0000000000000000e+00  5.5939740313226779e-05 1.5327102097590767e-03 0.0000000000000000e+00  5.5627798607495808e-05 1.5421040900545438e-03 0.0000000000000000e+00  5.5279627485248864e-05 1.5515925240041960e-03 0.0000000000000000e+00  5.4810377965949620e-05 1.5611322825777019e-03 0.0000000000000000e+00  5.0450071898639968e-05 1.5850649473668132e-03 0.0000000000000000e+00  4.3057732562368972e-05 1.6088546089991274e-03 0.0000000000000000e+00  3.5852698715869181e-05 1.6333250604327627e-03 0.0000000000000000e+00  2.8403603749111363e-05 1.6581307186749863e-03 0.0000000000000000e+00  5.5739073793783905e-05 1.3877311750373771e-03 0.0000000000000000e+00  5.4564372207368111e-05 1.4051664454311137e-03 0.0000000000000000e+00  5.3333625886418037e-05 1.4222040138596776e-03 0.0000000000000000e+00  5.2093975615902130e-05 1.4389933633349081e-03 0.0000000000000000e+00  5.0476141701894192e-05 1.4550327993961196e-03 0.0000000000000000e+