<?xml version="1.0"?>
<VTKFile type="UnstructuredGrid"  version="0.1"  >
<UnstructuredGrid>
<Piece  NumberOfPoints="640" NumberOfCells="1175">
<Points>
<DataArray  type="Float64"  NumberOfComponents="3"  format="ascii">2.577391304347826 0 0  2.593913043478261 0 0  2.593913043478261 0.01666666666666667 0  2.577391304347826 0.01666666666666667 0  2.610434782608696 0 0  2.610434782608696 0.01666666666666667 0  2.62695652173913 0 0  2.62695652173913 0.01666666666666667 0  2.643478260869565 0 0  2.643478260869565 0.01666666666666667 0  2.66 0 0  2.66 0.01666666666666667 0  2.676521739130435 0 0  2.676521739130435 0.01666666666666667 0  2.693043478260869 0 0  2.693043478260869 0.01666666666666667 0  2.709565217391304 0 0  2.709565217391304 0.01666666666666667 0  2.726086956521739 0 0  2.726086956521739 0.01666666666666667 0  2.742608695652174 0 0  2.742608695652174 0.01666666666666667 0  2.759130434782609 0 0  2.759130434782609 0.01666666666666667 0  2.775652173913044 0 0  2.775652173913044 0.01666666666666667 0  2.792173913043478 0 0  2.792173913043478 0.01666666666666667 0  2.808695652173913 0 0  2.808695652173913 0.01666666666666667 0  2.825217391304347 0 0  2.825217391304347 0.01666666666666667 0  2.841739130434783 0 0  2.841739130434783 0.01666666666666667 0  2.858260869565217 0 0  2.858260869565217 0.01666666666666667 0  2.874782608695652 0 0  2.874782608695652 0.01666666666666667 0  2.891304347826087 0 0  2.891304347826087 0.01666666666666667 0  2.907826086956522 0 0  2.907826086956522 0.01666666666666667 0  2.924347826086957 0 0  2.924347826086957 0.01666666666666667 0  2.940869565217391 0 0  2.940869565217391 0.01666666666666667 0  2.957391304347826 0 0  2.957391304347826 0.01666666666666667 0  2.973913043478261 0 0  2.973913043478261 0.01666666666666667 0  2.593913043478261 0.03333333333333333 0  2.610434782608696 0.03333333333333333 0  2.62695652173913 0.03333333333333333 0  2.643478260869565 0.03333333333333333 0  2.66 0.03333333333333333 0  2.676521739130435 0.03333333333333333 0  2.693043478260869 0.03333333333333333 0  2.709565217391304 0.03333333333333333 0  2.726086956521739 0.03333333333333333 0  2.742608695652174 0.03333333333333333 0  2.759130434782609 0.03333333333333333 0  2.775652173913044 0.03333333333333333 0  2.792173913043478 0.03333333333333333 0  2.808695652173913 0.03333333333333333 0  2.825217391304347 0.03333333333333333 0  2.841739130434783 0.03333333333333333 0  2.858260869565217 0.03333333333333333 0  2.874782608695652 0.03333333333333333 0  2.891304347826087 0.03333333333333333 0  2.907826086956522 0.03333333333333333 0  2.924347826086957 0.03333333333333333 0  2.940869565217391 0.03333333333333333 0  2.957391304347826 0.03333333333333333 0  2.973913043478261 0.03333333333333333 0  2.610434782608696 0.05 0  2.62695652173913 0.05 0  2.643478260869565 0.05 0  2.66 0.05 0  2.676521739130435 0.05 0  2.693043478260869 0.05 0  2.709565217391304 0.05 0  2.726086956521739 0.05 0  2.742608695652174 0.05 0  2.759130434782609 0.05 0  2.775652173913044 0.05 0  2.792173913043478 0.05 0  2.808695652173913 0.05 0  2.825217391304347 0.05 0  2.841739130434783 0.05 0  2.858260869565217 0.05 0  2.874782608695652 0.05 0  2.891304347826087 0.05 0  2.907826086956522 0.05 0  2.924347826086957 0.05 0  2.940869565217391 0.05 0  2.957391304347826 0.05 0  2.973913043478261 0.05 0  2.990434782608696 0.05 0  2.62695652173913 0.06666666666666667 0  2.643478260869565 0.06666666666666667 0  2.66 0.06666666666666667 0  2.676521739130435 0.06666666666666667 0  2.693043478260869 0.06666666666666667 0  2.709565217391304 0.06666666666666667 0  2.726086956521739 0.06666666666666667 0  2.742608695652174 0.06666666666666667 0  2.759130434782609 0.06666666666666667 0  2.775652173913044 0.06666666666666667 0  2.792173913043478 0.06666666666666667 0  2.808695652173913 0.06666666666666667 0  2.825217391304347 0.06666666666666667 0  2.841739130434783 0.06666666666666667 0  2.858260869565217 0.06666666666666667 0  2.874782608695652 0.06666666666666667 0  2.891304347826087 0.06666666666666667 0  2.907826086956522 0.06666666666666667 0  2.924347826086957 0.06666666666666667 0  2.940869565217391 0.06666666666666667 0  2.957391304347826 0.06666666666666667 0  2.973913043478261 0.06666666666666667 0  2.990434782608696 0.06666666666666667 0  2.643478260869565 0.08333333333333333 0  2.66 0.08333333333333333 0  2.676521739130435 0.08333333333333333 0  2.693043478260869 0.08333333333333333 0  2.709565217391304 0.08333333333333333 0  2.726086956521739 0.08333333333333333 0  2.742608695652174 0.08333333333333333 0  2.759130434782609 0.08333333333333333 0  2.775652173913044 0.08333333333333333 0  2.792173913043478 0.08333333333333333 0  2.808695652173913 0.08333333333333333 0  2.825217391304347 0.08333333333333333 0  2.841739130434783 0.08333333333333333 0  2.858260869565217 0.08333333333333333 0  2.874782608695652 0.08333333333333333 0  2.891304347826087 0.08333333333333333 0  2.907826086956522 0.08333333333333333 0  2.924347826086957 0.08333333333333333 0  2.940869565217391 0.08333333333333333 0  2.957391304347826 0.08333333333333333 0  2.973913043478261 0.08333333333333333 0  2.990434782608696 0.08333333333333333 0  3.006956521739131 0.08333333333333333 0  2.66 0.1 0  2.676521739130435 0.1 0  2.693043478260869 0.1 0  2.709565217391304 0.1 0  2.726086956521739 0.1 0  2.742608695652174 0.1 0  2.759130434782609 0.1 0  2.775652173913044 0.1 0  2.792173913043478 0.1 0  2.808695652173913 0.1 0  2.825217391304347 0.1 0  2.841739130434783 0.1 0  2.858260869565217 0.1 0  2.874782608695652 0.1 0  2.891304347826087 0.1 0  2.907826086956522 0.1 0  2.924347826086957 0.1 0  2.940869565217391 0.1 0  2.957391304347826 0.1 0  2.973913043478261 0.1 0  2.990434782608696 0.1 0  3.006956521739131 0.1 0  2.676521739130435 0.1166666666666667 0  2.693043478260869 0.1166666666666667 0  2.709565217391304 0.1166666666666667 0  2.726086956521739 0.1166666666666667 0  2.742608695652174 0.1166666666666667 0  2.759130434782609 0.1166666666666667 0  2.775652173913044 0.1166666666666667 0  2.792173913043478 0.1166666666666667 0  2.808695652173913 0.1166666666666667 0  2.825217391304347 0.1166666666666667 0  2.841739130434783 0.1166666666666667 0  2.858260869565217 0.1166666666666667 0  2.874782608695652 0.1166666666666667 0  2.891304347826087 0.1166666666666667 0  2.907826086956522 0.1166666666666667 0  2.924347826086957 0.1166666666666667 0  2.940869565217391 0.1166666666666667 0  2.957391304347826 0.1166666666666667 0  2.973913043478261 0.1166666666666667 0  2.990434782608696 0.1166666666666667 0  3.006956521739131 0.1166666666666667 0  3.023478260869565 0.1166666666666667 0  2.693043478260869 0.1333333333333333 0  2.709565217391304 0.1333333333333333 0  2.726086956521739 0.1333333333333333 0  2.742608695652174 0.1333333333333333 0  2.759130434782609 0.1333333333333333 0  2.775652173913044 0.1333333333333333 0  2.792173913043478 0.1333333333333333 0  2.808695652173913 0.1333333333333333 0  2.825217391304347 0.1333333333333333 0  2.841739130434783 0.1333333333333333 0  2.858260869565217 0.1333333333333333 0  2.874782608695652 0.1333333333333333 0  2.891304347826087 0.1333333333333333 0  2.907826086956522 0.1333333333333333 0  2.924347826086957 0.1333333333333333 0  2.940869565217391 0.1333333333333333 0  2.957391304347826 0.1333333333333333 0  2.973913043478261 0.1333333333333333 0  2.990434782608696 0.1333333333333333 0  3.006956521739131 0.1333333333333333 0  3.023478260869565 0.1333333333333333 0  2.726086956521739 0.15 0  2.742608695652174 0.15 0  2.759130434782609 0.15 0  2.775652173913044 0.15 0  2.792173913043478 0.15 0  2.808695652173913 0.15 0  2.825217391304347 0.15 0  2.841739130434783 0.15 0  2.858260869565217 0.15 0  2.874782608695652 0.15 0  2.891304347826087 0.15 0  2.907826086956522 0.15 0  2.924347826086957 0.15 0  2.940869565217391 0.15 0  2.957391304347826 0.15 0  2.973913043478261 0.15 0  2.990434782608696 0.15 0  3.006956521739131 0.15 0  3.023478260869565 0.15 0  3.04 0.15 0  2.742608695652174 0.1666666666666667 0  2.759130434782609 0.1666666666666667 0  2.775652173913044 0.1666666666666667 0  2.792173913043478 0.1666666666666667 0  2.808695652173913 0.1666666666666667 0  2.825217391304347 0.1666666666666667 0  2.841739130434783 0.1666666666666667 0  2.858260869565217 0.1666666666666667 0  2.874782608695652 0.1666666666666667 0  2.891304347826087 0.1666666666666667 0  2.907826086956522 0.1666666666666667 0  2.924347826086957 0.1666666666666667 0  2.940869565217391 0.1666666666666667 0  2.957391304347826 0.1666666666666667 0  2.973913043478261 0.1666666666666667 0  2.990434782608696 0.1666666666666667 0  3.006956521739131 0.1666666666666667 0  3.023478260869565 0.1666666666666667 0  3.04 0.1666666666666667 0  3.056521739130435 0.1666666666666667 0  2.759130434782609 0.1833333333333333 0  2.775652173913044 0.1833333333333333 0  2.792173913043478 0.1833333333333333 0  2.808695652173913 0.1833333333333333 0  2.825217391304347 0.1833333333333333 0  2.841739130434783 0.1833333333333333 0  2.858260869565217 0.1833333333333333 0  2.874782608695652 0.1833333333333333 0  2.891304347826087 0.1833333333333333 0  2.907826086956522 0.1833333333333333 0  2.924347826086957 0.1833333333333333 0  2.940869565217391 0.1833333333333333 0  2.957391304347826 0.1833333333333333 0  2.973913043478261 0.1833333333333333 0  2.990434782608696 0.1833333333333333 0  3.006956521739131 0.1833333333333333 0  3.023478260869565 0.1833333333333333 0  3.04 0.1833333333333333 0  3.056521739130435 0.1833333333333333 0  3.073043478260869 0.1833333333333333 0  2.775652173913044 0.2 0  2.792173913043478 0.2 0  2.808695652173913 0.2 0  2.825217391304347 0.2 0  2.841739130434783 0.2 0  2.858260869565217 0.2 0  2.874782608695652 0.2 0  2.891304347826087 0.2 0  2.907826086956522 0.2 0  2.924347826086957 0.2 0  2.940869565217391 0.2 0  2.957391304347826 0.2 0  2.973913043478261 0.2 0  2.990434782608696 0.2 0  3.006956521739131 0.2 0  3.023478260869565 0.2 0  3.04 0.2 0  3.056521739130435 0.
[...]
<PointData  Vectors="Displacement"> 
<DataArray  type="Float64"  Name="Displacement"  NumberOfComponents="3" format="ascii">3.1910158089413842e-04 3.0550474625020557e-03 0.0000000000000000e+00  3.2090549441840890e-04 3.0802154332585890e-03 0.0000000000000000e+00  2.9505690099240105e-04 3.0797757418390506e-03 0.0000000000000000e+00  2.9431803285662634e-04 3.0546109339760806e-03 0.0000000000000000e+00  3.2265972978571302e-04 3.1064349289087905e-03 0.0000000000000000e+00  2.9582195748874816e-04 3.1060001609876640e-03 0.0000000000000000e+00  3.2435716907628888e-04 3.1335869144733697e-03 0.0000000000000000e+00  2.9662886699136250e-04 3.1331563515519766e-03 0.0000000000000000e+00  3.2600083322159541e-04 3.1615674073198759e-03 0.0000000000000000e+00  2.9747717635486369e-04 3.1611387714468335e-03 0.0000000000000000e+00  3.2759333774887449e-04 3.1902904336369659e-03 0.0000000000000000e+00  2.9836434378186215e-04 3.1898626974064619e-03 0.0000000000000000e+00  3.2913405291535019e-04 3.2196701735816412e-03 0.0000000000000000e+00  2.9929173893254669e-04 3.2192438693107554e-03 0.0000000000000000e+00  3.3062138495219346e-04 3.2496125184538821e-03 0.0000000000000000e+00  3.0026149662015441e-04 3.2491883787563259e-03 0.0000000000000000e+00  3.3205500727636700e-04 3.2800197848608047e-03 0.0000000000000000e+00  3.0127387560973263e-04 3.2795976104339794e-03 0.0000000000000000e+00  3.3343492536538097e-04 3.3107969465237322e-03 0.0000000000000000e+00  3.0232828463061328e-04 3.3103769023051476e-03 0.0000000000000000e+00  3.3476076283922216e-04 3.3418488462413354e-03 0.0000000000000000e+00  3.0342410615254379e-04 3.3414318678009580e-03 0.0000000000000000e+00  3.3603167864220421e-04 3.3730767783193894e-03 0.0000000000000000e+00  3.0456011725118321e-04 3.3726667918814904e-03 0.0000000000000000e+00  3.3725504044277533e-04 3.4043817808074289e-03 0.0000000000000000e+00  3.0572887153525251e-04 3.4039748442068287e-03 0.0000000000000000e+00  3.3843511068700844e-04 3.4357082024263014e-03 0.0000000000000000e+00  3.0691860360975706e-04 3.4353027743935145e-03 0.0000000000000000e+00  3.3956984786449412e-04 3.4669989984841385e-03 0.0000000000000000e+00  3.0813147303716197e-04 3.4665956826836698e-03 0.0000000000000000e+00  3.4065646781213685e-04 3.4981787840349422e-03 0.0000000000000000e+00  3.0937461072428452e-04 3.4977776380099744e-03 0.0000000000000000e+00  3.4169331206070275e-04 3.5291649961700531e-03 0.0000000000000000e+00  3.1065203894426976e-04 3.5287656494421382e-03 0.0000000000000000e+00  3.4267896892319912e-04 3.5598721659769578e-03 0.0000000000000000e+00  3.1196645084653784e-04 3.5594745595185855e-03 0.0000000000000000e+00  3.4361165353637239e-04 3.5902095624045153e-03 0.0000000000000000e+00  3.1332049791337049e-04 3.5898149041266344e-03 0.0000000000000000e+00  3.4449128512029342e-04 3.6200797018529169e-03 0.0000000000000000e+00  3.1471485544651339e-04 3.6196889371825458e-03 0.0000000000000000e+00  3.4532062822398242e-04 3.6493898595621323e-03 0.0000000000000000e+00  3.1614571919609785e-04 3.6490021894366484e-03 0.0000000000000000e+00  3.4610210535472358e-04 3.6780616024139462e-03 0.0000000000000000e+00  3.1760805723714410e-04 3.6776762821436430e-03 0.0000000000000000e+00  3.4683593257992163e-04 3.7060213332683572e-03 0.0000000000000000e+00  3.1910053892270600e-04 3.7056383101894655e-03 0.0000000000000000e+00  3.4752118033668801e-04 3.7331915312556405e-03 0.0000000000000000e+00  3.2062473971976861e-04 3.7328109207741419e-03 0.0000000000000000e+00  3.4815696973384083e-04 3.7594904725629904e-03 0.0000000000000000e+00  3.2218246994260671e-04 3.7591123353937468e-03 0.0000000000000000e+00  2.6978956904596355e-04 3.0794940560972973e-03 0.0000000000000000e+00  2.6933689527760727e-04 3.1057569917662346e-03 0.0000000000000000e+00  2.6918373391586009e-04 3.1329167370889427e-03 0.0000000000000000e+00  2.6921765273944169e-04 3.1608750195985932e-03 0.0000000000000000e+00  2.6936652292152688e-04 3.1895718687120519e-03 0.0000000000000000e+00  2.6962934973715489e-04 3.2189283899318345e-03 0.0000000000000000e+00  2.7004194577385973e-04 3.2488633532250784e-03 0.0000000000000000e+00  2.7059613413590785e-04 3.2792604219285242e-03 0.0000000000000000e+00  2.7127887116144134e-04 3.3100258916869663e-03 0.0000000000000000e+00  2.7209761458599002e-04 3.3410671076548322e-03 0.0000000000000000e+00  2.7307169622886406e-04 3.3722885901394922e-03 0.0000000000000000e+00  2.7429448347904799e-04 3.4035883943751596e-03 0.0000000000000000e+00  2.7546678443294561e-04 3.4349071175247821e-03 0.0000000000000000e+00  2.7665775486302715e-04 3.4661833934661432e-03 0.0000000000000000e+00  2.7799079872208737e-04 3.4973519583587779e-03 0.0000000000000000e+00  2.7945591457204062e-04 3.5283261209525709e-03 0.0000000000000000e+00  2.8104173397793187e-04 3.5590203576459155e-03 0.0000000000000000e+00  2.8275966910537337e-04 3.5893453510111063e-03 0.0000000000000000e+00  2.8465091094890974e-04 3.6192038643827590e-03 0.0000000000000000e+00  2.8670076735627897e-04 3.6485015294404049e-03 0.0000000000000000e+00  2.8883607634028760e-04 3.6771604031762936e-03 0.0000000000000000e+00  2.9104767593134991e-04 3.7051078373803435e-03 0.0000000000000000e+00  2.9336491074947102e-04 3.7322662958954372e-03 0.0000000000000000e+00  2.9580311374590985e-04 3.7585534443391488e-03 0.0000000000000000e+00  2.4720148659727924e-04 3.1084668752043203e-03 0.0000000000000000e+00  2.4658434956133815e-04 3.1353583634395389e-03 0.0000000000000000e+00  2.4616066040393042e-04 3.1630214834140438e-03 0.0000000000000000e+00  2.4591336760309591e-04 3.1913907724278388e-03 0.0000000000000000e+00  2.4583936008101647e-04 3.2203794194064911e-03 0.0000000000000000e+00  2.4594634478301776e-04 3.2498996717358324e-03 0.0000000000000000e+00  2.4624128697640755e-04 3.2798595658988078e-03 0.0000000000000000e+00  2.4672448985247388e-04 3.3101687808618769e-03 0.0000000000000000e+00  2.4739850366634704e-04 3.3407359709671761e-03 0.0000000000000000e+00  2.4826619813401817e-04 3.3714721397752148e-03 0.0000000000000000e+00  2.4932284151563979e-04 3.4022917692153902e-03 0.0000000000000000e+00  2.5053337806549975e-04 3.4331732137425227e-03 0.0000000000000000e+00  2.5188615131833719e-04 3.4640004349776009e-03 0.0000000000000000e+00  2.5340235135285074e-04 3.4946960470240403e-03 0.0000000000000000e+00  2.5509684556846563e-04 3.5252023338274768e-03 0.0000000000000000e+00  2.5697260209025234e-04 3.5554424291695443e-03 0.0000000000000000e+00  2.5903178625424558e-04 3.5853316377059707e-03 0.0000000000000000e+00  2.6127467994465817e-04 3.6147838927960440e-03 0.0000000000000000e+00  2.6368851624689624e-04 3.6437282401708309e-03 0.0000000000000000e+00  2.6624606384317785e-04 3.6720997069217272e-03 0.0000000000000000e+00  2.6892161142937223e-04 3.6998188103780352e-03 0.0000000000000000e+00  2.7169622108202675e-04 3.7268062237021810e-03 0.0000000000000000e+00  2.7455458754475394e-04 3.7529792031541650e-03 0.0000000000000000e+00  2.7748029390332326e-04 3.7782580493624924e-03 0.0000000000000000e+00  2.2394665797458453e-04 3.1378033257308795e-03 0.0000000000000000e+00  2.2319274575588021e-04 3.1651860608151814e-03 0.0000000000000000e+00  2.2263133807808619e-04 3.1932263763305652e-03 0.0000000000000000e+00  2.2227421555608791e-04 3.2218459398931512e-03 0.0000000000000000e+00  2.2213154956226034e-04 3.2509603882366097e-03 0.0000000000000000e+00  2.2221253082628438e-04 3.2804842920856692e-03 0.0000000000000000e+00  2.2252367537949489e-04 3.3103338314748420e-03 0.0000000000000000e+00  2.2306895721531787e-04 3.3404252473455734e-03 0.0000000000000000e+00  2.2384877982967985e-04 3.3706787287935561e-03 0.0000000000000000e+00  2.2485829577282464e-04 3.4010228219943173e-03 0.0000000000000000e+00  2.2608963193651322e-04 3.4314110784631952e-03 0.0000000000000000e+00  2.2754344823701025e-04 3.4617549943458015e-03 0.0000000000000000e+00  2.2921788949317235e-04 3.4919754728294557e-03 0.0000000000000000e+00  2.3111443319050306e-04 3.5220103020024160e-03 0.0000000000000000e+00  2.3323481927639122e-04 3.5517921525969301e-03 0.0000000000000000e+00  2.3557638866129616e-04 3.5812480638016792e-03 0.0000000000000000e+00  2.3813041391690593e-04 3.6103066005217796e-03 0.0000000000000000e+00  2.4087970774741891e-04 3.6389069064744297e-03 0.0000000000000000e+00  2.4379876454116940e-04 3.6669924952492938e-03 0.0000000000000000e+00  2.4685378681478000e-04 3.6944984695457509e-03 0.0000000000000000e+00  2.5000146462909287e-04 3.7213555016209353e-03 0.0000000000000000e+00  2.5320233545430610e-04 3.7474714508368757e-03 0.0000000000000000e+00  2.5641840896253724e-04 3.7727637605277698e-03 0.0000000000000000e+00  2.0023580837474225e-04 3.1673230817585562e-03 0.0000000000000000e+00  1.9941844339260855e-04 3.1950487789028088e-03 0.0000000000000000e+00  1.9882607112866558e-04 3.2233084861614087e-03 0.0000000000000000e+00  1.9847538928275066e-04 3.2520245233883631e-03 0.0000000000000000e+00  1.9837967615249000e-04 3.2811172698075457e-03 0.0000000000000000e+00  1.9854921892850739e-04 3.3105088488626371e-03 0.0000000000000000e+00  1.9899101170093593e-04 3.3401235142470169e-03 0.0000000000000000e+00  1.9970804581726566e-04 3.3698899081458164e-03 0.0000000000000000e+00  2.0069965428579333e-04 3.3997434814074883e-03 0.0000000000000000e+00  2.0196421868742001e-04 3.4296287693782110e-03 0.0000000000000000e+00  2.0350244673273890e-04 3.4594729532763640e-03 0.0000000000000000e+00  2.0531042068355608e-04 3.4892060561476884e-03 0.0000000000000000e+00  2.0738302642962379e-04 3.5187655332077359e-03 0.0000000000000000e+00  2.0971570773460748e-04 3.5480890320801579e-03 0.0000000000000000e+00  2.1230146539455604e-04 3.5771137402712044e-03 0.0000000000000000e+00  2.1512828287498117e-04 3.6057807542074507e-03 0.0000000000000000e+00  2.1817692842883194e-04 3.6340403946744375e-03 0.0000000000000000e+00  2.2141835641960957e-04 3.6618490834578405e-03 0.0000000000000000e+00  2.2480889036406094e-04 3.6891616219016307e-03 0.0000000000000000e+00  2.2828586310840975e-04 3.7159277757599393e-03 0.0000000000000000e+00  2.3179831012751418e-04 3.7420335430935576e-03 0.0000000000000000e+00  2.3530075853720432e-04 3.7673884685140305e-03 0.0000000000000000e+00  2.3872455131390479e-04 3.7919526189337097e-03 0.0000000000000000e+00  1.7618642969652825e-04 3.1968419114427166e-03 0.0000000000000000e+00  1.7539453468206592e-04 3.2247527268033267e-03 0.0000000000000000e+00  1.7486988434633403e-04 3.2530787682945065e-03 0.0000000000000000e+00  1.7462880261032802e-04 3.2817457836886738e-03 0.0000000000000000e+00  1.7468462757965630e-04 3.3106818808444115e-03 0.0000000000000000e+00  1.7504720607094997e-04 3.3398187985277722e-03 0.0000000000000000e+00  1.7572241124659939e-04 3.3690929147998047e-03 0.0000000000000000e+00  1.7671256869374602e-04 3.3984456375633987e-03 0.0000000000000000e+00  1.7801797210414757e-04 3.4278219815380927e-03 0.0000000000000000e+00  1.7963772844984430e-04 3.4571599215592634e-03 0.0000000000000000e+00  1.8156658307711326e-04 3.4863983099304558e-03 0.0000000000000000e+00  1.8379639627329728e-04 3.5154788681215038e-03 0.0000000000000000e+00  1.8631776173556148e-04 3.5443440789701482e-03 0.0000000000000000e+00  1.8911962037211188e-04 3.5729383153665539e-03 0.0000000000000000e+00  1.9218833278158884e-04 3.6012122181776434e-03 0.0000000000000000e+00  1.9550549654373365e-04 3.6291282734114238e-03 0.0000000000000000e+00  1.9904187909096713e-04 3.6566614364482615e-03 0.0000000000000000e+00  2.0274618894657354e-04 3.6837945763400783e-03 0.0000000000000000e+00  2.0653300270222460e-04 3.7105097021780937e-03 0.0000000000000000e+00  2.1035856606650206e-04 3.7366359349083975e-03 0.0000000000000000e+00  2.1419241372620446e-04 3.7620670513608240e-03 0.0000000000000000e+00  2.1797292035459980e-04 3.7867979253638244e-03 0.0000000000000000e+00  1.5188322902915012e-04 3.2261706509383362e-03 0.0000000000000000e+00  1.5121454274295615e-04 3.2541144606663061e-03 0.0000000000000000e+00  1.5085619029599337e-04 3.2823609276262339e-03 0.0000000000000000e+00  1.5082376152622559e-04 3.3108436821605862e-03 0.0000000000000000e+00  1.5112943526897132e-04 3.3395017013993842e-03 0.0000000000000000e+00  1.5178132554145629e-04 3.3682790846190831e-03 0.0000000000000000e+00  1.5278361647070215e-04 3.3971240576172942e-03 0.0000000000000000e+00  1.5413722934518354e-04 3.4259867660380206e-03 0.0000000000000000e+00  1.5583993206876680e-04 3.4548145120617182e-03 0.0000000000000000e+00  1.5788496840888133e-04 3.4835545320972437e-03 0.0000000000000000e+00  1.6026173613806685e-04 3.5121545807807898e-03 0.0000000000000000e+00  1.6295692958809052e-04 3.5405622644586283e-03 0.0000000000000000e+00  1.6595540810843547e-04 3.5687267327382346e-03 0.0000000000000000e+00  1.6924139214556275e-04 3.5966038886832419e-03 0.0000000000000000e+00  1.7279900065534138e-04 3.6241662602076799e-03 0.0000000000000000e+00  1.7660476619551051e-04 3.6514129409326132e-03 0.0000000000000000e+00  1.8060209938585938e-04 3.6783726920624291e-03 0.0000000000000000e+00  1.8466348291561231e-04 3.7050981948653985e-03 0.0000000000000000e+00  1.8875815425850132e-04 3.7312744076193694e-03 0.0000000000000000e+00  1.9287780127268036e-04 3.7568203931064668e-03 0.0000000000000000e+00  1.9681572106938761e-04 3.7818429188706715e-03 0.0000000000000000e+00  2.0001076734035012e-04 3.8069845652641088e-03 0.0000000000000000e+00  1.2741552661097282e-04 3.2551255687023914e-03 0.0000000000000000e+00  1.2696689732858804e-04 3.2829562414737820e-03 0.0000000000000000e+00  1.2687070758009755e-04 3.3109872601300217e-03 0.0000000000000000e+00  1.2714083408334241e-04 3.3391649259682152e-03 0.0000000000000000e+00  1.2778698095678681e-04 3.3674415635112538e-03 0.0000000000000000e+00  1.2881452280168759e-04 3.3957733815391717e-03 0.0000000000000000e+00  1.3022472291099080e-04 3.4241180554664460e-03 0.0000000000000000e+00  1.3201461151902868e-04 3.4524320573793739e-03 0.0000000000000000e+00  1.3417630764690820e-04 3.4806711552451790e-03 0.0000000000000000e+00  1.3669721366864766e-04 3.5087901447197895e-03 0.0000000000000000e+00  1.3956066209250650e-04 3.5367420911765865e-03 0.0000000000000000e+00  1.4274686777190912e-04 3.5644793412171753e-03 0.0000000000000000e+00  1.4623500316786746e-04 3.5919582751430478e-03 0.0000000000000000e+00  1.5000643070256655e-04 3.6191526863918870e-03 0.0000000000000000e+00  1.5404632702776359e-04 3.6460861342175310e-03 0.0000000000000000e+00  1.5829937441959416e-04 3.6728723460181878e-03 0.0000000000000000e+00  1.6253973774593128e-04 3.6997353535667349e-03 0.0000000000000000e+00  1.6677302270396821e-04 3.7260541070166155e-03 0.0000000000000000e+00  1.7084304892721236e-04 3.7518585806112152e-03 0.0000000000000000e+00  1.7417796156375811e-04 3.7780368249523489e-03 0.0000000000000000e+00  1.7366919620337190e-04 3.8066193449912775e-03 0.0000000000000000e+00  1.0273996772088587e-04 3.3111068513031060e-03 0.0000000000000000e+00  1.0299632278980392e-04 3.3388023511304022e-03 0.0000000000000000e+00  1.0365434383493438e-04 3.3665742501002914e-03 0.0000000000000000e+00  1.0472036779771310e-04 3.3943878201399113e-03 0.0000000000000000e+00  1.0619625673853695e-04 3.4222096079014200e-03 0.0000000000000000e+00  1.0807920235793769e-04 3.4500055228550400e-03 0.0000000000000000e+00  1.1036125999255420e-04 3.4777402896513927e-03 0.0000000000000000e+00  1.1302916053415456e-04 3.5053766489392207e-03 0.0000000000000000e+00  1.1606451095509650e-04 3.5328738170814582e-03 0.0000000000000000e+00  1.1944407594851838e-04 3.5601873504937068e-03 0.0000000000000000e+00  1.2313999206066910e-04 3.5872716123325240e-03 0.0000000000000000e+00  1.2712082767802672e-04 3.6140932774674614e-03 0.0000000000000000e+00  1.3134878815255653e-04 3.6406730954627489e-03 0.0000000000000000e+00  1.3577443838796172e-04 3.6672647879391509e-03 0.0000000000000000e+00  1.4000067400596962e-04 3.6945617520367942e-03 0.0000000000000000e+00  1.4404394235757170e-04 3.7211792784531033e-03 0.0000000000000000e+00  1.4746806798203820e-04 3.7480795467474469e-03 0.0000000000000000e+00  1.4694642047300357e-04 3.7775681282087867e-03 0.0000000000000000e+00  1.4665134063639992e-04 3.8062839638906979e-03 0.0000000000000000e+00  1.4646965493695163e-04 3.8342056317852802e-03 0.0000000000000000e+00  7.8623797656236644e-05 3.3384083062415037e-03 0.0000000000000000e+00  7.9311765111471155e-05 3.3656714871928509e-03 0.0000000000000000e+00  8.0429250172238406e-05 3.3929616363376973e-03 0.0000000000000000e+00  8.1979415128308352e-05 3.4202549004563845e-03 0.0000000000000000e+00  8.3960885572035559e-05 3.4475268735295055e-03 0.0000000000000000e+00  8.6367407853822175e-05 3.4747515415367212e-03 0.0000000000000000e+00  8.9187533023823794e-05 3.5019002052568324e-03 0.0000000000000000e+00  9.2405027538872774e-05 3.5289385559536851e-03 0.0000000000000000e+00  9.5999041812287045e-05 3.5558256842844580e-03 0.0000000000000000e+00  9.9942348462247053e-05 3.5825159505357279e-03 0.0000000000000000e+00  1.0418800654126207e-04 3.6089703753142246e-03 0.0000000000000000e+00  1.0864165847212916e-04 3.6352203466417750e-03 0.0000000000000000e+00  1.1298556610943546e-04 3.6615754767672730e-03 0.0000000000000000e+00  1.1656612728853188e-04 3.6899355726805194e-03 0.0000000000000000e+00  1.1968200826751202e-04 3.7175686176124981e-03 0.0000000000000000e+00  1.1923983665320416e-04 3.7476793557490364e-03 0.0000000000000000e+00  1.1894597755945626e-04 3.7772509536509653e-03 0.0000000000000000e+00  1.1877264290120496e-04 3.8060516149650081e-03 0.0000000000000000e+00  1.1877711407249050e-04 3.8341487135128542e-03 0.0000000000000000e+00  1.1888635408900886e-04 3.8613907245681504e-03 0.0000000000000000e+00  5.4702762072323146e-05 3.3647283807687590e-03 0.0000000000000000e+00  5.5883170226746924e-05 3.3914902275902301e-03 0.0000000000000000e+00  5.7513540295270366e-05 3.4182488504319653e-03 0.0000000000000000e+00  5.9595445064279303e-05 3.4449895330604121e-03 0.0000000000000000e+00  6.2126501148406256e-05 3.4716953946826233e-03 0.0000000000000000e+00  6.5100349477391711e-05 3.4983460748322305e-03 0.0000000000000000e+00  6.8509349389839506e-05 3.5249117930235010e-03 0.0000000000000000e+00  7.2347715835961745e-05 3.5513513166243247e-03 0.0000000000000000e+00  7.6612659621313385e-05 3.5776143052039032e-03 0.0000000000000000e+00  8.1285856634059767e-05 3.6036773026169701e-03 0.0000000000000000e+00  8.6189824486473422e-05 3.6296328485126844e-03 0.0000000000000000e+00  9.0602898888238431e-05 3.6563958000202434e-03 0.0000000000000000e+00  9.0708035310612899e-05 3.6869026750620229e-03 0.0000000000000000e+00  9.0458450512777711e-05 3.7173028782538234e-03 0.0000000000000000e+00  9.0257021102359172e-05 3.7474052662536594e-03 0.0000000000000000e+00  9.0135850905661676e-05 3.7770382503335693e-03 0.0000000000000000e+00  9.0159228162608614e-05 3.8059844972731620e-03 0.0000000000000000e+00  9.0260168830318832e-05 3.8341871831940751e-03 0.0000000000000000e+00  9.0548021312212358e-05 3.8616214110113681e-03 0.0000000000000000e+00  9.0201672021471280e-05 3.8849167687844358e-03 0.0000000000000000e+00  3.1039688675756096e-05 3.3899720116189864e-03 0.0000000000000000e+00  3.2749961851000649e-05 3.4161908292520741e-03 0.0000000000000000e+00  3.4924840222990298e-05 3.4423935755785473e-03 0.0000000000000000e+00  3.7565611340003343e-05 3.4685728324749887e-03 0.0000000000000000e+00  4.0669018432432446e-05 3.4947185169869003e-03 0.0000000000000000e+00  4.4229560889268244e-05 3.5208057321103737e-03 0.0000000000000000e+00  4.8241096999793737e-05 3.5467988660538756e-03 0.0000000000000000e+00  5.2673904930618641e-05 3.5726699934218601e-03 0.0000000000000000e+00  5.7355931489858285e-05 3.5985299780654529e-03 0.0000000000000000e+00  6.1507040842853872e-05 3.6252033140488954e-03 0.0000000000000000e+00  6.1196873201857787e-05 3.6559781911856318e-03 0.0000000000000000e+00  6.0997845639995730e-05 3.6866090907737951e-03 0.0000000000000000e+00  6.0828737488557481e-05 3.7170549578061066e-03 0.0000000000000000e+00  6.0712991401395776e-05 3.7472110292235952e-03 0.0000000000000000e+00  6.0680816336337316e-05 3.7769275326633581e-03 0.0000000000000000e+