<?xml version="1.0"?>
<VTKFile type="UnstructuredGrid"  version="0.1"  >
<UnstructuredGrid>
<Piece  NumberOfPoints="640" NumberOfCells="1181">
<Points>
<DataArray  type="Float64"  NumberOfComponents="3"  format="ascii">2.973913043478261 0 0  2.990434782608696 0 0  2.990434782608696 0.01666666666666667 0  2.973913043478261 0.01666666666666667 0  3.006956521739131 0 0  3.006956521739131 0.01666666666666667 0  3.023478260869565 0 0  3.023478260869565 0.01666666666666667 0  3.04 0 0  3.04 0.01666666666666667 0  3.056521739130435 0 0  3.056521739130435 0.01666666666666667 0  3.073043478260869 0 0  3.073043478260869 0.01666666666666667 0  3.089565217391304 0 0  3.089565217391304 0.01666666666666667 0  3.106086956521739 0 0  3.106086956521739 0.01666666666666667 0  3.122608695652174 0 0  3.122608695652174 0.01666666666666667 0  3.139130434782609 0 0  3.139130434782609 0.01666666666666667 0  3.155652173913043 0 0  3.155652173913043 0.01666666666666667 0  3.172173913043478 0 0  3.172173913043478 0.01666666666666667 0  3.188695652173913 0 0  3.188695652173913 0.01666666666666667 0  3.205217391304347 0 0  3.205217391304347 0.01666666666666667 0  3.221739130434782 0 0  3.221739130434782 0.01666666666666667 0  3.238260869565217 0 0  3.238260869565217 0.01666666666666667 0  2.990434782608696 0.03333333333333333 0  2.973913043478261 0.03333333333333333 0  3.006956521739131 0.03333333333333333 0  3.023478260869565 0.03333333333333333 0  3.04 0.03333333333333333 0  3.056521739130435 0.03333333333333333 0  3.073043478260869 0.03333333333333333 0  3.089565217391304 0.03333333333333333 0  3.106086956521739 0.03333333333333333 0  3.122608695652174 0.03333333333333333 0  3.139130434782609 0.03333333333333333 0  3.155652173913043 0.03333333333333333 0  3.172173913043478 0.03333333333333333 0  3.188695652173913 0.03333333333333333 0  3.205217391304347 0.03333333333333333 0  3.221739130434782 0.03333333333333333 0  3.238260869565217 0.03333333333333333 0  3.254782608695652 0.03333333333333333 0  2.990434782608696 0.05 0  3.006956521739131 0.05 0  3.023478260869565 0.05 0  3.04 0.05 0  3.056521739130435 0.05 0  3.073043478260869 0.05 0  3.089565217391304 0.05 0  3.106086956521739 0.05 0  3.122608695652174 0.05 0  3.139130434782609 0.05 0  3.155652173913043 0.05 0  3.172173913043478 0.05 0  3.188695652173913 0.05 0  3.205217391304347 0.05 0  3.221739130434782 0.05 0  3.238260869565217 0.05 0  3.254782608695652 0.05 0  3.271304347826087 0.05 0  3.006956521739131 0.06666666666666667 0  2.990434782608696 0.06666666666666667 0  3.023478260869565 0.06666666666666667 0  3.04 0.06666666666666667 0  3.056521739130435 0.06666666666666667 0  3.073043478260869 0.06666666666666667 0  3.089565217391304 0.06666666666666667 0  3.106086956521739 0.06666666666666667 0  3.122608695652174 0.06666666666666667 0  3.139130434782609 0.06666666666666667 0  3.155652173913043 0.06666666666666667 0  3.172173913043478 0.06666666666666667 0  3.188695652173913 0.06666666666666667 0  3.205217391304347 0.06666666666666667 0  3.221739130434782 0.06666666666666667 0  3.238260869565217 0.06666666666666667 0  3.254782608695652 0.06666666666666667 0  3.271304347826087 0.06666666666666667 0  3.287826086956521 0.06666666666666667 0  3.006956521739131 0.08333333333333333 0  3.023478260869565 0.08333333333333333 0  3.04 0.08333333333333333 0  3.056521739130435 0.08333333333333333 0  3.073043478260869 0.08333333333333333 0  3.089565217391304 0.08333333333333333 0  3.106086956521739 0.08333333333333333 0  3.122608695652174 0.08333333333333333 0  3.139130434782609 0.08333333333333333 0  3.155652173913043 0.08333333333333333 0  3.172173913043478 0.08333333333333333 0  3.188695652173913 0.08333333333333333 0  3.205217391304347 0.08333333333333333 0  3.221739130434782 0.08333333333333333 0  3.238260869565217 0.08333333333333333 0  3.254782608695652 0.08333333333333333 0  3.271304347826087 0.08333333333333333 0  3.287826086956521 0.08333333333333333 0  3.304347826086957 0.08333333333333333 0  3.023478260869565 0.1 0  3.006956521739131 0.1 0  3.04 0.1 0  3.056521739130435 0.1 0  3.073043478260869 0.1 0  3.089565217391304 0.1 0  3.106086956521739 0.1 0  3.122608695652174 0.1 0  3.139130434782609 0.1 0  3.155652173913043 0.1 0  3.172173913043478 0.1 0  3.188695652173913 0.1 0  3.205217391304347 0.1 0  3.221739130434782 0.1 0  3.238260869565217 0.1 0  3.254782608695652 0.1 0  3.271304347826087 0.1 0  3.287826086956521 0.1 0  3.304347826086957 0.1 0  3.320869565217391 0.1 0  3.023478260869565 0.1166666666666667 0  3.04 0.1166666666666667 0  3.056521739130435 0.1166666666666667 0  3.073043478260869 0.1166666666666667 0  3.089565217391304 0.1166666666666667 0  3.106086956521739 0.1166666666666667 0  3.122608695652174 0.1166666666666667 0  3.139130434782609 0.1166666666666667 0  3.155652173913043 0.1166666666666667 0  3.172173913043478 0.1166666666666667 0  3.188695652173913 0.1166666666666667 0  3.205217391304347 0.1166666666666667 0  3.221739130434782 0.1166666666666667 0  3.238260869565217 0.1166666666666667 0  3.254782608695652 0.1166666666666667 0  3.271304347826087 0.1166666666666667 0  3.287826086956521 0.1166666666666667 0  3.304347826086957 0.1166666666666667 0  3.320869565217391 0.1166666666666667 0  3.337391304347826 0.1166666666666667 0  3.04 0.1333333333333333 0  3.023478260869565 0.1333333333333333 0  3.056521739130435 0.1333333333333333 0  3.073043478260869 0.1333333333333333 0  3.089565217391304 0.1333333333333333 0  3.106086956521739 0.1333333333333333 0  3.122608695652174 0.1333333333333333 0  3.139130434782609 0.1333333333333333 0  3.155652173913043 0.1333333333333333 0  3.172173913043478 0.1333333333333333 0  3.188695652173913 0.1333333333333333 0  3.205217391304347 0.1333333333333333 0  3.221739130434782 0.1333333333333333 0  3.238260869565217 0.1333333333333333 0  3.254782608695652 0.1333333333333333 0  3.271304347826087 0.1333333333333333 0  3.287826086956521 0.1333333333333333 0  3.304347826086957 0.1333333333333333 0  3.320869565217391 0.1333333333333333 0  3.337391304347826 0.1333333333333333 0  3.353913043478261 0.1333333333333333 0  3.04 0.15 0  3.056521739130435 0.15 0  3.073043478260869 0.15 0  3.089565217391304 0.15 0  3.106086956521739 0.15 0  3.122608695652174 0.15 0  3.139130434782609 0.15 0  3.155652173913043 0.15 0  3.172173913043478 0.15 0  3.188695652173913 0.15 0  3.205217391304347 0.15 0  3.221739130434782 0.15 0  3.238260869565217 0.15 0  3.254782608695652 0.15 0  3.271304347826087 0.15 0  3.287826086956521 0.15 0  3.304347826086957 0.15 0  3.320869565217391 0.15 0  3.337391304347826 0.15 0  3.353913043478261 0.15 0  3.370434782608696 0.15 0  3.056521739130435 0.1666666666666667 0  3.073043478260869 0.1666666666666667 0  3.089565217391304 0.1666666666666667 0  3.106086956521739 0.1666666666666667 0  3.122608695652174 0.1666666666666667 0  3.139130434782609 0.1666666666666667 0  3.155652173913043 0.1666666666666667 0  3.172173913043478 0.1666666666666667 0  3.188695652173913 0.1666666666666667 0  3.205217391304347 0.1666666666666667 0  3.221739130434782 0.1666666666666667 0  3.238260869565217 0.1666666666666667 0  3.254782608695652 0.1666666666666667 0  3.271304347826087 0.1666666666666667 0  3.287826086956521 0.1666666666666667 0  3.304347826086957 0.1666666666666667 0  3.320869565217391 0.1666666666666667 0  3.337391304347826 0.1666666666666667 0  3.353913043478261 0.1666666666666667 0  3.370434782608696 0.1666666666666667 0  3.386956521739131 0.1666666666666667 0  3.073043478260869 0.1833333333333333 0  3.089565217391304 0.1833333333333333 0  3.106086956521739 0.1833333333333333 0  3.122608695652174 0.1833333333333333 0  3.139130434782609 0.1833333333333333 0  3.155652173913043 0.1833333333333333 0  3.172173913043478 0.1833333333333333 0  3.188695652173913 0.1833333333333333 0  3.205217391304347 0.1833333333333333 0  3.221739130434782 0.1833333333333333 0  3.238260869565217 0.1833333333333333 0  3.254782608695652 0.1833333333333333 0  3.271304347826087 0.1833333333333333 0  3.287826086956521 0.1833333333333333 0  3.304347826086957 0.1833333333333333 0  3.320869565217391 0.1833333333333333 0  3.337391304347826 0.1833333333333333 0  3.353913043478261 0.1833333333333333 0  3.370434782608696 0.1833333333333333 0  3.386956521739131 0.1833333333333333 0  3.403478260869565 0.1833333333333333 0  3.089565217391304 0.2 0  3.106086956521739 0.2 0  3.122608695652174 0.2 0  3.139130434782609 0.2 0  3.155652173913043 0.2 0  3.172173913043478 0.2 0  3.188695652173913 0.2 0  3.205217391304347 0.2 0  3.221739130434782 0.2 0  3.238260869565217 0.2 0  3.254782608695652 0.2 0  3.271304347826087 0.2 0  3.287826086956521 0.2 0  3.304347826086957 0.2 0  3.320869565217391 0.2 0  3.337391304347826 0.2 0  3.353913043478261 0.2 0  3.370434782608696 0.2 0  3.386956521739131 0.2 0  3.403478260869565 0.2 0  3.419999999999999 0.2 0  3.106086956521739 0.2166666666666667 0  3.122608695652174 0.2166666666666667 0  3.139130434782609 0.2166666666666667 0  3.155652173913043 0.2166666666666667 0  3.172173913043478 0.2166666666666667 0  3.188695652173913 0.2166666666666667 0  3.205217391304347 0.2166666666666667 0  3.221739130434782 0.2166666666666667 0  3.238260869565217 0.2166666666666667 0  3.254782608695652 0.2166666666666667 0  3.271304347826087 0.2166666666666667 0  3.287826086956521 0.2166666666666667 0  3.304347826086957 0.2166666666666667 0  3.320869565217391 0.2166666666666667 0  3.337391304347826 0.2166666666666667 0  3.353913043478261 0.2166666666666667 0  3.370434782608696 0.2166666666666667 0  3.386956521739131 0.2166666666666667 0  3.403478260869565 0.2166666666666667 0  3.419999999999999 0.2166666666666667 0  3.436521739130435 0.2166666666666667 0  3.122608695652174 0.2333333333333333 0  3.139130434782609 0.2333333333333333 0  3.155652173913043 0.2333333333333333 0  3.172173913043478 0.2333333333333333 0  3.188695652173913 0.2333333333333333 0  3.205217391304347 0.2333333333333333 0  3.221739130434782 0.2333333333333333 0  3.238260869565217 0.2333333333333333 0  3.254782
[...]
<PointData  Vectors="Displacement"> 
<DataArray  type="Float64"  Name="Displacement"  NumberOfComponents="3" format="ascii">5.0103113660816465e-04 6.2799464625130537e-03 0.0000000000000000e+00  5.0115838829983632e-04 6.3101029850133371e-03 0.0000000000000000e+00  4.7232115404978713e-04 6.3095623644367094e-03 0.0000000000000000e+00  4.6944627445082279e-04 6.2794239448724877e-03 0.0000000000000000e+00  5.0118342120914307e-04 6.3373155038935177e-03 0.0000000000000000e+00  4.7546648167549150e-04 6.3367494011035939e-03 0.0000000000000000e+00  5.0108240550584648e-04 6.3610231938961183e-03 0.0000000000000000e+00  4.7905662073509533e-04 6.3605100371772324e-03 0.0000000000000000e+00  5.0082632965639117e-04 6.3812908755731109e-03 0.0000000000000000e+00  4.8231060960106381e-04 6.3808080604213675e-03 0.0000000000000000e+00  5.0031056754521722e-04 6.3979111010847266e-03 0.0000000000000000e+00  4.8547134963248780e-04 6.3977319044300433e-03 0.0000000000000000e+00  4.9962593570238034e-04 6.4104974475011883e-03 0.0000000000000000e+00  4.8796658311957031e-04 6.4106821166716793e-03 0.0000000000000000e+00  4.9941188589934624e-04 6.4201766584064774e-03 0.0000000000000000e+00  4.8912527248405223e-04 6.4200758630717902e-03 0.0000000000000000e+00  4.9932066325470564e-04 6.4296294490460921e-03 0.0000000000000000e+00  4.8940618554100060e-04 6.4295314441305037e-03 0.0000000000000000e+00  5.2445121733048238e-04 6.4541623342387203e-03 0.0000000000000000e+00  5.0501272934645801e-04 6.4481073462703663e-03 0.0000000000000000e+00  5.4669435482518618e-04 6.4774024920798345e-03 0.0000000000000000e+00  5.2245619172339652e-04 6.4710757928459050e-03 0.0000000000000000e+00  5.6848378369263710e-04 6.5036280369432835e-03 0.0000000000000000e+00  5.3973997324669614e-04 6.4972788320759181e-03 0.0000000000000000e+00  5.9064096699857119e-04 6.5337968649308827e-03 0.0000000000000000e+00  5.5701447865602756e-04 6.5271887033717096e-03 0.0000000000000000e+00  6.1278444495775305e-04 6.5700923565089851e-03 0.0000000000000000e+00  5.7376208331754060e-04 6.5636076759407330e-03 0.0000000000000000e+00  6.3421477861854477e-04 6.6127586424174021e-03 0.0000000000000000e+00  5.8966503194680313e-04 6.6065519154114372e-03 0.0000000000000000e+00  6.5394430606606707e-04 6.6621879201960617e-03 0.0000000000000000e+00  6.0403708689374977e-04 6.6566616312395957e-03 0.0000000000000000e+00  6.7125370005658932e-04 6.7174095952343416e-03 0.0000000000000000e+00  6.1649858594438930e-04 6.7126808499635409e-03 0.0000000000000000e+00  4.6188151369739173e-04 6.2860824983364556e-03 0.0000000000000000e+00  4.5672796230428897e-04 6.2542130063332740e-03 0.0000000000000000e+00  4.6648509356251320e-04 6.3155359195278893e-03 0.0000000000000000e+00  4.6993245697722136e-04 6.3425910488261713e-03 0.0000000000000000e+00  4.7101623416645992e-04 6.3681397479538613e-03 0.0000000000000000e+00  4.6842147907231134e-04 6.3966750325051688e-03 0.0000000000000000e+00  4.7907698907516931e-04 6.4098472605058450e-03 0.0000000000000000e+00  4.8270228409863882e-04 6.4197239759210718e-03 0.0000000000000000e+00  4.8400050044503459e-04 6.4297328221677424e-03 0.0000000000000000e+00  4.8779665477726027e-04 6.4457031162145385e-03 0.0000000000000000e+00  4.9941548834733318e-04 6.4668358649425540e-03 0.0000000000000000e+00  5.1199001507923943e-04 6.4925990990682353e-03 0.0000000000000000e+00  5.2502539688891901e-04 6.5215670011252690e-03 0.0000000000000000e+00  5.3709911417075106e-04 6.5582081223198654e-03 0.0000000000000000e+00  5.4853077640031934e-04 6.6012350216216355e-03 0.0000000000000000e+00  5.5849461770375055e-04 6.6523001147790950e-03 0.0000000000000000e+00  5.6683481285182968e-04 6.7090760040879587e-03 0.0000000000000000e+00  5.7331366162066916e-04 6.7711751389245680e-03 0.0000000000000000e+00  4.4886467889035142e-04 6.2619714289140300e-03 0.0000000000000000e+00  4.5552501048517021e-04 6.2939369277448497e-03 0.0000000000000000e+00  4.6110050794171065e-04 6.3242099025368264e-03 0.0000000000000000e+00  4.6523589457376965e-04 6.3533431716085156e-03 0.0000000000000000e+00  4.6800664431579129e-04 6.3823112701830633e-03 0.0000000000000000e+00  4.7106754904104026e-04 6.4013004829962666e-03 0.0000000000000000e+00  4.7341334375340617e-04 6.4160680536738141e-03 0.0000000000000000e+00  4.7413618829812140e-04 6.4298489358469973e-03 0.0000000000000000e+00  4.7538084826919769e-04 6.4453107732746996e-03 0.0000000000000000e+00  4.7770868953140227e-04 6.4651028571707635e-03 0.0000000000000000e+00  4.8392757270194434e-04 6.4884700636075529e-03 0.0000000000000000e+00  4.9677329244400483e-04 6.5167916783299131e-03 0.0000000000000000e+00  5.0276403848130999e-04 6.5535600281800563e-03 0.0000000000000000e+00  5.1013898375421604e-04 6.5959877083623204e-03 0.0000000000000000e+00  5.1619699436767643e-04 6.6486843082761860e-03 0.0000000000000000e+00  5.2091796267976552e-04 6.7061899862150692e-03 0.0000000000000000e+00  5.2396470949601709e-04 6.7694373218955281e-03 0.0000000000000000e+00  5.2529383732546442e-04 6.8366060646846156e-03 0.0000000000000000e+00  4.4223056414345163e-04 6.2715291926931553e-03 0.0000000000000000e+00  4.3344830980190078e-04 6.2370392872484696e-03 0.0000000000000000e+00  4.4988067804083365e-04 6.3049128321588091e-03 0.0000000000000000e+00  4.5577698351197636e-04 6.3375823232997772e-03 0.0000000000000000e+00  4.5853884403909630e-04 6.3707800263441451e-03 0.0000000000000000e+00  4.5793157554036826e-04 6.3974978433738450e-03 0.0000000000000000e+00  4.5801865618511024e-04 6.4137381666000016e-03 0.0000000000000000e+00  4.5839090959828974e-04 6.4293498469605304e-03 0.0000000000000000e+00  4.5857566399106593e-04 6.4455248358618730e-03 0.0000000000000000e+00  4.5905561829656162e-04 6.4647395911319253e-03 0.0000000000000000e+00  4.6055957086450305e-04 6.4873222511534047e-03 0.0000000000000000e+00  4.6321925685268686e-04 6.5158352014124494e-03 0.0000000000000000e+00  4.6606093262467044e-04 6.5491818362767122e-03 0.0000000000000000e+00  4.7296227362014949e-04 6.5896478534111418e-03 0.0000000000000000e+00  4.7589738316845571e-04 6.6457255481272709e-03 0.0000000000000000e+00  4.7767754762726534e-04 6.7036606425367887e-03 0.0000000000000000e+00  4.7744457259199996e-04 6.7685845007334749e-03 0.0000000000000000e+00  4.7558175706483306e-04 6.8369908266872536e-03 0.0000000000000000e+00  4.7268015815574979e-04 6.9074139971268406e-03 0.0000000000000000e+00  4.2678236478992641e-04 6.2480759471347097e-03 0.0000000000000000e+00  4.3655196671751797e-04 6.2845210590345753e-03 0.0000000000000000e+00  4.4436319521980975e-04 6.3215070275287003e-03 0.0000000000000000e+00  4.4576476832828882e-04 6.3626305515261019e-03 0.0000000000000000e+00  4.4166997175567506e-04 6.3986425347192771e-03 0.0000000000000000e+00  4.4163559136538056e-04 6.4134690969857742e-03 0.0000000000000000e+00  4.4138033922440562e-04 6.4292214134281829e-03 0.0000000000000000e+00  4.4018643329881687e-04 6.4459504686971312e-03 0.0000000000000000e+00  4.3800568182695860e-04 6.4651389302828408e-03 0.0000000000000000e+00  4.3562351593201136e-04 6.4876485786749876e-03 0.0000000000000000e+00  4.3348199301872329e-04 6.5156254405111186e-03 0.0000000000000000e+00  4.3253033651525558e-04 6.5485586310233207e-03 0.0000000000000000e+00  4.3344631554706860e-04 6.5884128505664802e-03 0.0000000000000000e+00  4.3556580796766712e-04 6.6431449596661340e-03 0.0000000000000000e+00  4.3745366369936383e-04 6.7012348498150399e-03 0.0000000000000000e+00  4.3274969240044987e-04 6.7688241726599555e-03 0.0000000000000000e+00  4.2737004710139185e-04 6.8386757607345229e-03 0.0000000000000000e+00  4.2173426885525018e-04 6.9095144069904607e-03 0.0000000000000000e+00  4.1581622470112625e-04 6.9820403455567283e-03 0.0000000000000000e+00  4.2311447940517857e-04 6.2624218777569728e-03 0.0000000000000000e+00  4.0974440793469782e-04 6.2228350965600147e-03 0.0000000000000000e+00  4.3334692606546740e-04 6.3023965248746108e-03 0.0000000000000000e+00  4.3767740796234287e-04 6.3582528031594244e-03 0.0000000000000000e+00  4.2889314871886395e-04 6.3983335110093841e-03 0.0000000000000000e+00  4.2719426993622099e-04 6.4131412345270183e-03 0.0000000000000000e+00  4.2666593586441787e-04 6.4289550685860640e-03 0.0000000000000000e+00  4.2466529315514124e-04 6.4461574996800153e-03 0.0000000000000000e+00  4.1864287166552518e-04 6.4658754972757165e-03 0.0000000000000000e+00  4.1252118468684248e-04 6.5025157651039476e-03 0.0000000000000000e+00  4.0527480322235810e-04 6.5306516632719783e-03 0.0000000000000000e+00  3.9857849550061744e-04 6.5489757813584322e-03 0.0000000000000000e+00  3.8439903131341757e-04 6.5893382274756123e-03 0.0000000000000000e+00  3.8183495103370058e-04 6.6430557530932901e-03 0.0000000000000000e+00  3.8308256280241766e-04 6.7018166397133580e-03 0.0000000000000000e+00  3.8601468831635450e-04 6.7705124119873629e-03 0.0000000000000000e+00  3.7848806063656306e-04 6.8417860527053270e-03 0.0000000000000000e+00  3.7111639467878000e-04 6.9126259625869315e-03 0.0000000000000000e+00  3.6320304307528887e-04 6.9852651843759087e-03 0.0000000000000000e+00  3.5505111158938953e-04 7.0599710850419344e-03 0.0000000000000000e+00  4.1106271146498454e-04 6.2358338757597916e-03 0.0000000000000000e+00  4.3068329799912913e-04 6.2808020972072625e-03 0.0000000000000000e+00  4.2385665051603710e-04 6.3432334058198753e-03 0.0000000000000000e+00  4.2230664931704296e-04 6.3960029271367038e-03 0.0000000000000000e+00  4.1973800304812226e-04 6.4114983713878847e-03 0.0000000000000000e+00  4.1709623776451391e-04 6.4272501698295435e-03 0.0000000000000000e+00  4.0191458894720395e-04 6.4607156988564923e-03 0.0000000000000000e+00  3.8805063927158795e-04 6.4887908356224015e-03 0.0000000000000000e+00  3.7574265158317943e-04 6.5224598163905840e-03 0.0000000000000000e+00  3.6574975078760527e-04 6.5535364581469895e-03 0.0000000000000000e+00  3.5457166548940764e-04 6.5813378403645944e-03 0.0000000000000000e+00  3.4066625746205227e-04 6.6191025314770472e-03 0.0000000000000000e+00  3.2736086963132302e-04 6.6551370781201208e-03 0.0000000000000000e+00  3.2025382818405768e-04 6.7026008227713835e-03 0.0000000000000000e+00  3.2099930725896706e-04 6.7707034908693091e-03 0.0000000000000000e+00  3.2210897327524652e-04 6.8435433920391187e-03 0.0000000000000000e+00  3.2274180685486426e-04 6.9171462919403858e-03 0.0000000000000000e+00  3.1053552945615109e-04 6.9891871708157314e-03 0.0000000000000000e+00  3.0019997000148583e-04 7.0645578803934612e-03 0.0000000000000000e+00  2.9023895808302465e-04 7.1411594638719472e-03 0.0000000000000000e+00  3.7510403604365262e-04 6.2792805760132188e-03 0.0000000000000000e+00  3.7677025436588096e-04 6.2130102360272062e-03 0.0000000000000000e+00  3.7458970703827405e-04 6.3422417979069820e-03 0.0000000000000000e+00  3.7368792848322063e-04 6.3949854286153539e-03 0.0000000000000000e+00  3.7680342812903883e-04 6.4284695639080054e-03 0.0000000000000000e+00  3.6642762106003061e-04 6.4475017606401910e-03 0.0000000000000000e+00  3.5534195420082243e-04 6.4805510380357674e-03 0.0000000000000000e+00  3.4440448361481272e-04 6.5121576468081914e-03 0.0000000000000000e+00  3.3290667740729156e-04 6.5457865617007688e-03 0.0000000000000000e+00  3.2164976789096812e-04 6.5788606634417024e-03 0.0000000000000000e+00  3.0927425743213459e-04 6.6118862812928753e-03 0.0000000000000000e+00  2.9513141152729533e-04 6.6497371090206998e-03 0.0000000000000000e+00  2.8071580707812093e-04 6.6883488425539756e-03 0.0000000000000000e+00  2.6575058889614152e-04 6.7311036904539054e-03 0.0000000000000000e+00  2.4986003125662714e-04 6.7712161716986553e-03 0.0000000000000000e+00  2.5034435416179841e-04 6.8438539000873861e-03 0.0000000000000000e+00  2.5107682344225414e-04 6.9178072979255182e-03 0.0000000000000000e+00  2.5191666212444878e-04 6.9932452998724762e-03 0.0000000000000000e+00  2.4208384175163693e-04 7.0694827409082447e-03 0.0000000000000000e+00  2.3204755475029134e-04 7.1475441062802576e-03 0.0000000000000000e+00  2.2175836577069632e-04 7.2243181632696491e-03 0.0000000000000000e+00  3.1298878860826635e-04 6.2789040315107299e-03 0.0000000000000000e+00  3.1265186305797264e-04 6.3419087878755142e-03 0.0000000000000000e+00  3.1402849558358534e-04 6.3982016868383172e-03 0.0000000000000000e+00  3.1575737432659143e-04 6.4329254655341433e-03 0.0000000000000000e+00  3.1330050686877593e-04 6.4643995958626205e-03 0.0000000000000000e+00  3.0570130263662173e-04 6.4987775624217080e-03 0.0000000000000000e+00  2.9693058245097920e-04 6.5334150156888980e-03 0.0000000000000000e+00  2.8673993335414012e-04 6.5690354516638053e-03 0.0000000000000000e+00  2.7546884573108864e-04 6.6047453949535694e-03 0.0000000000000000e+00  2.6273548685474196e-04 6.6412456310701827e-03 0.0000000000000000e+00  2.4843104828926996e-04 6.6804739635847720e-03 0.0000000000000000e+00  2.3317460474019892e-04 6.7209911522535309e-03 0.0000000000000000e+00  2.1680647445432492e-04 6.7637313132320551e-03 0.0000000000000000e+00  1.9916227405743946e-04 6.8058078600078502e-03 0.0000000000000000e+00  1.7740538068240601e-04 6.8442807865158294e-03 0.0000000000000000e+00  1.7776828102791822e-04 6.9181246965339428e-03 0.0000000000000000e+00  1.7884556914676405e-04 6.9939464393233546e-03 0.0000000000000000e+00  1.8078278634301687e-04 7.0732359921476728e-03 0.0000000000000000e+00  1.7188299917205924e-04 7.1542288943035048e-03 0.0000000000000000e+00  1.6208260568136465e-04 7.2322811499726559e-03 0.0000000000000000e+00  1.5135288806881954e-04 7.3081509390121200e-03 0.0000000000000000e+00  2.4757175887938710e-04 6.3424611274393123e-03 0.0000000000000000e+00  2.5451790813460918e-04 6.3960944990051902e-03 0.0000000000000000e+00  2.5929784657468733e-04 6.4381881959519683e-03 0.0000000000000000e+00  2.5912494955110903e-04 6.4765409920370517e-03 0.0000000000000000e+00  2.5483616019870948e-04 6.5151255040332111e-03 0.0000000000000000e+00  2.4791599001188863e-04 6.5532115007888025e-03 0.0000000000000000e+00  2.3891495937770459e-04 6.5916477927336114e-03 0.0000000000000000e+00  2.2814352880669135e-04 6.6303003279803872e-03 0.0000000000000000e+00  2.1560437878415602e-04 6.6697440812504899e-03 0.0000000000000000e+00  2.0145172681882255e-04 6.7108558966883806e-03 0.0000000000000000e+00  1.8610508930506369e-04 6.7531624807054338e-03 0.0000000000000000e+00  1.6972263305482351e-04 6.7968988325841709e-03 0.0000000000000000e+00  1.5254618395320823e-04 6.8410035739371764e-03 0.0000000000000000e+00  1.3440467514654281e-04 6.8859133396637160e-03 0.0000000000000000e+00  1.1750558265073413e-04 6.9421222213898355e-03 0.0000000000000000e+00  1.0430999760773808e-04 6.9947083121116088e-03 0.0000000000000000e+00  1.0616530689197514e-04 7.0742265717888076e-03 0.0000000000000000e+00  1.0802375193224411e-04 7.1598663381978985e-03 0.0000000000000000e+00  1.0319813371532326e-04 7.2414094590973425e-03 0.0000000000000000e+00  9.0723531971737947e-05 7.3180302212562621e-03 0.0000000000000000e+00  7.8943083310429389e-05 7.3917502486854888e-03 0.0000000000000000e+00  1.9888636178469260e-04 6.3956786321588818e-03 0.0000000000000000e+00  2.0478276123031682e-04 6.4431297022517252e-03 0.0000000000000000e+00  2.0631858090570048e-04 6.4871969633265364e-03 0.0000000000000000e+00  2.0393891103497218e-04 6.5300225297117110e-03 0.0000000000000000e+00  1.9854070736220330e-04 6.5719173956085954e-03 0.0000000000000000e+00  1.9058455115556708e-04 6.6135785098498630e-03 0.0000000000000000e+00  1.8043589259037743e-04 6.6552912128296322e-03 0.0000000000000000e+00  1.6827456010976089e-04 6.6975373035038435e-03 0.0000000000000000e+00  1.5433489604959274e-04 6.7407992699634678e-03 0.0000000000000000e+00  1.3892966847110509e-04 6.7849821429380982e-03 0.0000000000000000e+00  1.2223269793783847e-04 6.8301774443326737e-03 0.0000000000000000e+00  1.0436495255262466e-04 6.8761004793799017e-03 0.0000000000000000e+00  8.5232084858012991e-05 6.9234731427117559e-03 0.0000000000000000e+00  6.5376036302380460e-05 6.9756400355169635e-03 0.0000000000000000e+00  4.6091214039381803e-05 7.0266871575918790e-03 0.0000000000000000e+00  2.4901824842874895e-05 7.0752960719419810e-03 0.0000000000000000e+00  2.6054919519221990e-05 7.1604509694428616e-03 0.0000000000000000e+00  2.7180755025683648e-05 7.2455019498876656e-03 0.0000000000000000e+00  2.7803123570546954e-05 7.3298646559023040e-03 0.0000000000000000e+00  1.4886714368619685e-05 7.4030159250767467e-03 0.0000000000000000e+00  3.8783456426997322e-06 7.4739534560033455e-03 0.0000000000000000e+00  1.5349932012093988e-04 6.4486609845938467e-03 0.0000000000000000e+00  1.5559949718268410e-04 6.4973728080757335e-03 0.0000000000000000e+00  1.5420454847036392e-04 6.5442784233008637e-03 0.0000000000000000e+00  1.4975459868273925e-04 6.5899287241237428e-03 0.0000000000000000e+00  1.4258480770362115e-04 6.6349531007225309e-03 0.0000000000000000e+00  1.3299685828176830e-04 6.6797625614907243e-03 0.0000000000000000e+00  1.2121956941434626e-04 6.7247864686717212e-03 0.0000000000000000e+00  1.0749162921727420e-04 6.7703668922904385e-03 0.0000000000000000e+00  9.2057695518231634e-05 6.8165727640882431e-03 0.0000000000000000e+00  7.5073182062172729e-05 6.8635077252471588e-03 0.0000000000000000e+00  5.6626269281522010e-05 6.9111938164524225e-03 0.0000000000000000e+00  3.6721997097453069e-05 6.9601444429684958e-03 0.0000000000000000e+00  1.5633612694732424e-05 7.0113808174302921e-03 0.0000000000000000e+00  -6.1836486439272740e-06 7.0623527272971201e-03 0.0000000000000000e+00  -2.9797187848543499e-05 7.1123423398143414e-03 0.0000000000000000e+00  -5.6415450393655180e-05 7.1612122814691953e-03 0.0000000000000000e+00  -5.5685216160531741e-05 7.2459110331719373e-03 0.0000000000000000e+00  -5.4754932167462514e-05 7.3305176390115051e-03 0.0000000000000000e+00  -5.3938898134998574e-05 7.4149074536446914e-03 0.0000000000000000e+00  -6.3427253349968569e-05 7.4853882568296504e-03 0.0000000000000000e+00  -7.1614105543025921e-05 7.5533022890949151e-03 0.0000000000000000e+00  1.0713757787595869e-04 6.5078522959218900e-03 0.0000000000000000e+00  1.0610875226164001e-04 6.5584628522307948e-03 0.0000000000000000e+00  1.0216299083334779e-04 6.6076651427585840e-03 0.0000000000000000e+00  9.5500715332746912e-05 6.6559927951150982e-03 0.0000000000000000e+00  8.6343280956893570e-05 6.7038609321066764e-03 0.0000000000000000e+00  7.4899313135679674e-05 6.7516458383664359e-03 0.0000000000000000e+00  6.1383833275544883e-05 6.7996327058991793e-03 0.0000000000000000e+00  4.6002299667622942e-05 6.8479613778839998e-03 0.0000000000000000e+00  2.8907735439736965e-05 6.8967620822623851e-03 0.0000000000000000e+00  1.0211306507569113e-05 6.9461524534205066e-03 0.0000000000000000e+00  -9.9974268193267482e-06 6.9964394311368980e-03 0.0000000000000000e+00  -3.1515617690224082e-05 7.0479018816984066e-03 0.0000000000000000e+00  -5.4158060465377807e-05 7.0994256781741500e-03 0.0000000000000000e+00  -7.8436715141685364e-05 7.1506451226016031e-03 0.0000000000000000e+00  -1.0523897414037030e-04 7.2011984397699494e-03 0.0000000000000000e+00  -1.3700398765768767e-04 7.2476002999003744e-03 0.0000000000000000e+00  -1.3717820639057779e-04 7.3309338453346256e-03 0.0000000000000000e+00  -1.3577885374639896e-04 7.4156829618787449e-03 0.0000000000000000e+00  -1.3428272637201920e-04 7.4960306292755751e-03 0.0000000000000000e+00  -1.3901831790786228e-04 7.5639982228083600e-03 0.0000000000000000e+00  -1.4483520951146645e-04 7.6307791753134893e-03 0.0000000000000000e+00  5.9865719782857195e-05 6.5729416087606848e-03 0.0000000000000000e+00  5.6107637157410264e-05 6.6254381891881790e-03 0.0000000000000000e+00  4.9720916767686496e-05 6.6769211395697444e-03 0.0000000000000000e+00  4.0854973394763155e-05 6.7277533910996123e-03 0.0000000000000000e+00  2.9678980644426200e-05 6.7782529139698037e-03 0.0000000000000000e+00  1.6377096190851172e-05 6.8286649864965380e-03 0.0000000000000000e+00  1.1319544948221944e-06 6.8791489449598888e-03 0.0000000000000000e+00  -1.5895369153679501e-05 6.9298404351104490e-03 0.0000000000000000e+00  -3.4556326164544144e-05 6.9808643115630859e-03 0.0000000000000000e+00  -5.4691077292479907e-05 7.0323899067186351e-0