<?xml version="1.0"?>
<VTKFile type="UnstructuredGrid"  version="0.1"  >
<UnstructuredGrid>
<Piece  NumberOfPoints="608" NumberOfCells="1117">
<Points>
<DataArray  type="Float64"  NumberOfComponents="3"  format="ascii">0.08260869565217391 0 0  0.09913043478260869 0 0  0.09913043478260869 0.01666666666666667 0  0.1156521739130435 0 0  0.1156521739130435 0.01666666666666667 0  0.1321739130434783 0 0  0.1321739130434783 0.01666666666666667 0  0.148695652173913 0 0  0.148695652173913 0.01666666666666667 0  0.1652173913043478 0 0  0.1652173913043478 0.01666666666666667 0  0.1817391304347826 0 0  0.1817391304347826 0.01666666666666667 0  0.1982608695652174 0 0  0.1982608695652174 0.01666666666666667 0  0.2147826086956522 0 0  0.2147826086956522 0.01666666666666667 0  0.2313043478260869 0 0  0.2313043478260869 0.01666666666666667 0  0.2478260869565218 0 0  0.2478260869565218 0.01666666666666667 0  0.2643478260869565 0 0  0.2643478260869565 0.01666666666666667 0  0.2808695652173913 0 0  0.2808695652173913 0.01666666666666667 0  0.2973913043478261 0 0  0.2973913043478261 0.01666666666666667 0  0.3139130434782609 0 0  0.3139130434782609 0.01666666666666667 0  0.3304347826086956 0 0  0.3304347826086956 0.01666666666666667 0  0.3469565217391304 0 0  0.3469565217391304 0.01666666666666667 0  0.3634782608695652 0 0  0.3634782608695652 0.01666666666666667 0  0.3799999999999999 0 0  0.3799999999999999 0.01666666666666667 0  0.3965217391304348 0 0  0.3965217391304348 0.01666666666666667 0  0.4130434782608696 0 0  0.4130434782608696 0.01666666666666667 0  0.4295652173913043 0.01666666666666667 0  0.1156521739130435 0.03333333333333333 0  0.1321739130434783 0.03333333333333333 0  0.148695652173913 0.03333333333333333 0  0.1652173913043478 0.03333333333333333 0  0.1817391304347826 0.03333333333333333 0  0.1982608695652174 0.03333333333333333 0  0.2147826086956522 0.03333333333333333 0  0.2313043478260869 0.03333333333333333 0  0.2478260869565218 0.03333333333333333 0  0.2643478260869565 0.03333333333333333 0  0.2808695652173913 0.03333333333333333 0  0.2973913043478261 0.03333333333333333 0  0.3139130434782609 0.03333333333333333 0  0.3304347826086956 0.03333333333333333 0  0.3469565217391304 0.03333333333333333 0  0.3634782608695652 0.03333333333333333 0  0.3799999999999999 0.03333333333333333 0  0.3965217391304348 0.03333333333333333 0  0.4130434782608696 0.03333333333333333 0  0.4295652173913043 0.03333333333333333 0  0.4460869565217391 0.03333333333333333 0  0.1321739130434783 0.05 0  0.148695652173913 0.05 0  0.1652173913043478 0.05 0  0.1817391304347826 0.05 0  0.1982608695652174 0.05 0  0.2147826086956522 0.05 0  0.2313043478260869 0.05 0  0.2478260869565218 0.05 0  0.2643478260869565 0.05 0  0.2808695652173913 0.05 0  0.2973913043478261 0.05 0  0.3139130434782609 0.05 0  0.3304347826086956 0.05 0  0.3469565217391304 0.05 0  0.3634782608695652 0.05 0  0.3799999999999999 0.05 0  0.3965217391304348 0.05 0  0.4130434782608696 0.05 0  0.4295652173913043 0.05 0  0.4460869565217391 0.05 0  0.4626086956521739 0.05 0  0.148695652173913 0.06666666666666667 0  0.1652173913043478 0.06666666666666667 0  0.1817391304347826 0.06666666666666667 0  0.1982608695652174 0.06666666666666667 0  0.2147826086956522 0.06666666666666667 0  0.2313043478260869 0.06666666666666667 0  0.2478260869565218 0.06666666666666667 0  0.2643478260869565 0.06666666666666667 0  0.2808695652173913 0.06666666666666667 0  0.2973913043478261 0.06666666666666667 0  0.3139130434782609 0.06666666666666667 0  0.3304347826086956 0.06666666666666667 0  0.3469565217391304 0.06666666666666667 0  0.3634782608695652 0.06666666666666667 0  0.3799999999999999 0.06666666666666667 0  0.3965217391304348 0.06666666666666667 0  0.4130434782608696 0.06666666666666667 0  0.4295652173913043 0.06666666666666667 0  0.4460869565217391 0.06666666666666667 0  0.4626086956521739 0.06666666666666667 0  0.4791304347826086 0.06666666666666667 0  0.1652173913043478 0.08333333333333333 0  0.1817391304347826 0.08333333333333333 0  0.1982608695652174 0.08333333333333333 0  0.2147826086956522 0.08333333333333333 0  0.2313043478260869 0.08333333333333333 0  0.2478260869565218 0.08333333333333333 0  0.2643478260869565 0.08333333333333333 0  0.2808695652173913 0.08333333333333333 0  0.2973913043478261 0.08333333333333333 0  0.3139130434782609 0.08333333333333333 0  0.3304347826086956 0.08333333333333333 0  0.3469565217391304 0.08333333333333333 0  0.3634782608695652 0.08333333333333333 0  0.3799999999999999 0.08333333333333333 0  0.3965217391304348 0.08333333333333333 0  0.4130434782608696 0.08333333333333333 0  0.4295652173913043 0.08333333333333333 0  0.4460869565217391 0.08333333333333333 0  0.4626086956521739 0.08333333333333333 0  0.4791304347826086 0.08333333333333333 0  0.4956521739130435 0.08333333333333333 0  0.1817391304347826 0.1 0  0.1982608695652174 0.1 0  0.2147826086956522 0.1 0  0.2313043478260869 0.1 0  0.2478260869565218 0.1 0  0.2643478260869565 0.1 0  0.2808695652173913 0.1 0  0.2973913043478261 0.1 0  0.3139130434782609 0.1 0  0.3304347826086956 0.1 0  0.3469565217391304 0.1 0  0.3634782608695652 0.1 0  0.3799999999999999 0.1 0  0.3965217391304348 0.1 0  0.4130434782608696 0.1 0  0.4295652173913043 0.1 0  0.4460869565217391 0.1 0  0.4626086956521739 0.1 0  0.4791304347826086 0.1 0  0.4956521739130435 0.1 0  0.5121739130434783 0.1 0  0.1982608695652174 0.1166666666666667 0  0.2147826086956522 0.1166666666666667 0  0.2313043478260869 0.1166666666666667 0  0.2478260869565218 0.1166666666666667 0  0.2643478260869565 0.1166666666666667 0  0.2808695652173913 0.1166666666666667 0  0.2973913043478261 0.1166666666666667 0  0.3139130434782609 0.1166666666666667 0  0.3304347826086956 0.1166666666666667 0  0.3469565217391304 0.1166666666666667 0  0.3634782608695652 0.1166666666666667 0  0.3799999999999999 0.1166666666666667 0  0.3965217391304348 0.1166666666666667 0  0.4130434782608696 0.1166666666666667 0  0.4295652173913043 0.1166666666666667 0  0.4460869565217391 0.1166666666666667 0  0.4626086956521739 0.1166666666666667 0  0.4791304347826086 0.1166666666666667 0  0.4956521739130435 0.1166666666666667 0  0.5121739130434783 0.1166666666666667 0  0.528695652173913 0.1166666666666667 0  0.2147826086956522 0.1333333333333333 0  0.2313043478260869 0.1333333333333333 0  0.2478260869565218 0.1333333333333333 0  0.2643478260869565 0.1333333333333333 0  0.2808695652173913 0.1333333333333333 0  0.2973913043478261 0.1333333333333333 0  0.3139130434782609 0.1333333333333333 0  0.3304347826086956 0.1333333333333333 0  0.3469565217391304 0.1333333333333333 0  0.3634782608695652 0.1333333333333333 0  0.3799999999999999 0.1333333333333333 0  0.3965217391304348 0.1333333333333333 0  0.4130434782608696 0.1333333333333333 0  0.4295652173913043 0.1333333333333333 0  0.4460869565217391 0.1333333333333333 0  0.4626086956521739 0.1333333333333333 0  0.4791304347826086 0.1333333333333333 0  0.4956521739130435 0.1333333333333333 0  0.5121739130434783 0.1333333333333333 0  0.528695652173913 0.1333333333333333 0  0.5452173913043478 0.1333333333333333 0  0.2313043478260869 0.15 0  0.2478260869565218 0.15 0  0.2643478260869565 0.15 0  0.2808695652173913 0.15 0  0.2973913043478261 0.15 0  0.3139130434782609 0.15 0  0.3304347826086956 0.15 0  0.3469565217391304 0.15 0  0.3634782608695652 0.15 0  0.3799999999999999 0.15 0  0.3965217391304348 0.15 0  0.4130434782608696 0.15 0  0.4295652173913043 0.15 0  0.4460869565217391 0.15 0  0.4626086956521739 0.15 0  0.4791304347826086 0.15 0  0.4956521739130435 0.15 0  0.5121739130434783 0.15 0  0.528695652173913 0.15 0  0.5452173913043478 0.15 0  0.5617391304347825 0.15 0  0.2478260869565218 0.1666666666666667 0  0.2643478260869565 0.1666666666666667 0  0.2808695652173913 0.1666666666666667 0  0.2973913043478261 0.1666666666666667 0  0.3139130434782609 0.1666666666666667 0  0.3304347826086956 0.1666666666666667 0  0.3469565217391304 0.1666666666666667 0  0.3634782608695652 0.1666666666666667 0  0.3799999999999999 0.1666666666666667 0  0.3965217391304348 0.1666666666666667 0  0.4130434782608696 0.1666666666666667 0  0.4295652173913043 0.1666666666666667 0  0.4460869565217391 0.1666666666666667 0  0.4626086956521739 0.1666666666666667 0  0.4791304347826086 0.1666666666666667 0  0.4956521739130435 0.1666666666666667 0  0.5121739130434783 0.1666666666666667 0  0.528695652173913 0.1666666666666667 0  0.5452173913043478 0.1666666666666667 0  0.5617391304347825 0.1666666666666667 0  0.5782608695652174 0.1666666666666667 0  0.2643478260869565 0.1833333333333333 0  0.2808695652173913 0.1833333333333333 0  0.2973913043478261 0.1833333333333333 0  0.3139130434782609 0.1833333333333333 0  0.3304347826086956 0.1833333333333333 0  0.3469565217391304 0.1833333333333333 0  0.3634782608695652 0.1833333333333333 0  0.3799999999999999 0.1833333333333333 0  0.3965217391304348 0.1833333333333333 0  0.4130434782608696 0.1833333333333333 0  0.4295652173913043 0.1833333333333333 0  0.4460869565217391 0.1833333333333333 0  0.4626086956521739 0.1833333333333333 0  0.4791304347826086 0.1833333333333333 0  0.4956521739130435 0.1833333333333333 0  0.5121739130434783 0.1833333333333333 0  0.528695652173913 0.1833333333333333 0  0.5452173913043478 0.1833333333333333 0  0.5617391304347825 0.1833333333333333 0  0.5782608695652174 0.1833333333333333 0  0.2808695652173913 0.2 0  0.2973913043478261 0.2 0  0.3139130434782609 0.2 0  0.3304347826086956 0.2 0  0.3469565217391304 0.2 0  0.3634782608695652 0.2 0  0.3799999999999999 0.2 0  0.3965217391304348 0.2 0  0.4130434782608696 0.2 0  0.4295652173913043 0.2 0  0.4460869565217391 0.2 0  0.4626086956521739 0.2 0  0.4791304347826086 0.2 0  0.4956521739130435 0.2 0  0.5121739130434783 0.2 0  0.528695652173913 0.2 0  0.5452173913043478 0.2 0  0.5617391304347825 0.2 0  0.5782608695652174 0.2 0  0.2973913043478261 0.2166666666666667 0  0.3139130434782609 0.2166666666666667 0  0.3304347826086956 0.2166666666666667 0  0.3469565217391304 0.2166666666666667 0  0.36347826086956
[...]
<PointData  Vectors="Displacement"> 
<DataArray  type="Float64"  Name="Displacement"  NumberOfComponents="3" format="ascii">3.6031580843258190e-05 4.0846916134116250e-05 0.0000000000000000e+00  4.3175523020406870e-05 5.7174507686753042e-05 0.0000000000000000e+00  2.4967354930630439e-05 5.5307169001989294e-05 0.0000000000000000e+00  5.0315500047039578e-05 7.6917712077525277e-05 0.0000000000000000e+00  2.8850551759091002e-05 7.5070935108605374e-05 0.0000000000000000e+00  5.7279585039274782e-05 1.0011635591530786e-04 0.0000000000000000e+00  3.2565567960801773e-05 9.8342322537511051e-05 0.0000000000000000e+00  6.3972809917143880e-05 1.2657223274652437e-04 0.0000000000000000e+00  3.6115269527117065e-05 1.2487846566376461e-04 0.0000000000000000e+00  7.0352048720165333e-05 1.5610840681952212e-04 0.0000000000000000e+00  3.9491821120110781e-05 1.5450735386362131e-04 0.0000000000000000e+00  7.6415065011870690e-05 1.8853522730803466e-04 0.0000000000000000e+00  4.2684846943691639e-05 1.8702131922044803e-04 0.0000000000000000e+00  8.2216074591970106e-05 2.2369653990205607e-04 0.0000000000000000e+00  4.5722350323670328e-05 2.2222024287551776e-04 0.0000000000000000e+00  8.7775933992073873e-05 2.6160222893187042e-04 0.0000000000000000e+00  4.8651235043710412e-05 2.6013194639747225e-04 0.0000000000000000e+00  9.2943952886467656e-05 3.0229253843881698e-04 0.0000000000000000e+00  5.1464012381376937e-05 3.0089928235629268e-04 0.0000000000000000e+00  9.7528936581337705e-05 3.4533734606312518e-04 0.0000000000000000e+00  5.4166462212793440e-05 3.4407458577381274e-04 0.0000000000000000e+00  1.0144371806503606e-04 3.9002734748715828e-04 0.0000000000000000e+00  5.6792014429652915e-05 3.8889262393069628e-04 0.0000000000000000e+00  1.0466537347443922e-04 4.3570020029006727e-04 0.0000000000000000e+00  5.9355843072052569e-05 4.3469201310822645e-04 0.0000000000000000e+00  1.0718776752619903e-04 4.8171025776011766e-04 0.0000000000000000e+00  6.1862221904917318e-05 4.8082993282380437e-04 0.0000000000000000e+00  1.0900618531318889e-04 5.2740644886096219e-04 0.0000000000000000e+00  6.4310623943399130e-05 5.2666537688710014e-04 0.0000000000000000e+00  1.1010434949569915e-04 5.7209443546840937e-04 0.0000000000000000e+00  6.6683216548500416e-05 5.7155411233202774e-04 0.0000000000000000e+00  1.1053927014429709e-04 6.1508067419429897e-04 0.0000000000000000e+00  6.8833050949070764e-05 6.1474693715010199e-04 0.0000000000000000e+00  1.1049104058920531e-04 6.5596115332179248e-04 0.0000000000000000e+00  7.0658023421436286e-05 6.5576609399734063e-04 0.0000000000000000e+00  1.1022469593026199e-04 6.9465331072015332e-04 0.0000000000000000e+00  7.2241384292225458e-05 6.9448719280731030e-04 0.0000000000000000e+00  1.0984859311697323e-04 7.3153558464341632e-04 0.0000000000000000e+00  7.3599091953718617e-05 7.3140076172818736e-04 0.0000000000000000e+00  1.0932355242580995e-04 7.6682461878342786e-04 0.0000000000000000e+00  7.4732841723910585e-05 7.6676322321070074e-04 0.0000000000000000e+00  7.5630683167207828e-05 8.0054319407697912e-04 0.0000000000000000e+00  7.7618812426029033e-06 7.4211706939373914e-05 0.0000000000000000e+00  8.2244384079027250e-06 9.7596965601230937e-05 0.0000000000000000e+00  8.6381910587868293e-06 1.2418948898683770e-04 0.0000000000000000e+00  9.0192854296965759e-06 1.5388344139117020e-04 0.0000000000000000e+00  9.3695171554076680e-06 1.8647428124743138e-04 0.0000000000000000e+00  9.6655415680160030e-06 2.2164352676921445e-04 0.0000000000000000e+00  9.9188001625979699e-06 2.5941078468079621e-04 0.0000000000000000e+00  1.0226807393969741e-05 3.0013258761495804e-04 0.0000000000000000e+00  1.0969135999885491e-05 3.4332315327860534e-04 0.0000000000000000e+00  1.2283162117224848e-05 3.8807905235402356e-04 0.0000000000000000e+00  1.4181345619057649e-05 4.3379499411675895e-04 0.0000000000000000e+00  1.6670050330634650e-05 4.7984580925938749e-04 0.0000000000000000e+00  1.9751352486490440e-05 5.2559607854007746e-04 0.0000000000000000e+00  2.3434717569618640e-05 5.7043943869485286e-04 0.0000000000000000e+00  2.7746122963014552e-05 6.1393492139646499e-04 0.0000000000000000e+00  3.1491327750902224e-05 6.5511456902787293e-04 0.0000000000000000e+00  3.4898024598164140e-05 6.9376452191812301e-04 0.0000000000000000e+00  3.7902410185809225e-05 7.3069460184849709e-04 0.0000000000000000e+00  4.0582192752416159e-05 7.6615310163776005e-04 0.0000000000000000e+00  4.3065571937627509e-05 8.0013585249221711e-04 0.0000000000000000e+00  4.5202134946152863e-05 8.3235898037841100e-04 0.0000000000000000e+00  -1.6032733026995628e-05 9.7920676482040508e-05 0.0000000000000000e+00  -1.8813529202992179e-05 1.2446354285527026e-04 0.0000000000000000e+00  -2.1319791008343191e-05 1.5417487029767613e-04 0.0000000000000000e+00  -2.3647348922297999e-05 1.8666099993102465e-04 0.0000000000000000e+00  -2.5320279760957234e-05 2.2162703289759327e-04 0.0000000000000000e+00  -2.7039460400374773e-05 2.5914014393550511e-04 0.0000000000000000e+00  -3.0013414670351962e-05 2.9992397040614114e-04 0.0000000000000000e+00  -3.2184554544957584e-05 3.4305829302478644e-04 0.0000000000000000e+00  -3.2528261924826051e-05 3.8762738555162316e-04 0.0000000000000000e+00  -3.1559341470609900e-05 4.3312897704123694e-04 0.0000000000000000e+00  -2.9346020963283779e-05 4.7896069352540443e-04 0.0000000000000000e+00  -2.5887341369355209e-05 5.2449289998368045e-04 0.0000000000000000e+00  -2.1243852485792752e-05 5.6911885891242216e-04 0.0000000000000000e+00  -1.5433447143006957e-05 6.1237972176866504e-04 0.0000000000000000e+00  -8.2404078939063283e-06 6.5373327710581994e-04 0.0000000000000000e+00  -7.6333929723368294e-07 6.9275649744116583e-04 0.0000000000000000e+00  3.2160622976843411e-06 7.2961916986688210e-04 0.0000000000000000e+00  6.8462335754990728e-06 7.6503816143578120e-04 0.0000000000000000e+00  1.0788516828091599e-05 7.9910656791467953e-04 0.0000000000000000e+00  1.4982186633369835e-05 8.3189142331239465e-04 0.0000000000000000e+00  1.7949346164535256e-05 8.6216969044066263e-04 0.0000000000000000e+00  -4.4172986155051970e-05 1.2528817603999265e-04 0.0000000000000000e+00  -5.0927628167287903e-05 1.5498057199260992e-04 0.0000000000000000e+00  -5.6413190272918220e-05 1.8743590284839645e-04 0.0000000000000000e+00  -4.8014621159396303e-05 2.2382222537640784e-04 0.0000000000000000e+00  -4.3596719760411917e-05 2.6157535025652599e-04 0.0000000000000000e+00  -4.2375934817338833e-05 3.0122705494267779e-04 0.0000000000000000e+00  -4.2112747357863197e-05 3.4249618595932045e-04 0.0000000000000000e+00  -4.1657034281438492e-05 3.8494304350216693e-04 0.0000000000000000e+00  -4.0564702652113597e-05 4.2831680203555032e-04 0.0000000000000000e+00  -3.8686457753848839e-05 4.7207042404083088e-04 0.0000000000000000e+00  -3.6008188930726930e-05 5.1567051015407358e-04 0.0000000000000000e+00  -3.2647753570026862e-05 5.5864558508629601e-04 0.0000000000000000e+00  -2.8880424708206268e-05 6.0063446702645837e-04 0.0000000000000000e+00  -2.5234500116693615e-05 6.4138376502553601e-04 0.0000000000000000e+00  -2.2798506629816025e-05 6.8112510628497961e-04 0.0000000000000000e+00  -2.3388450040849907e-05 7.2087346551945319e-04 0.0000000000000000e+00  -2.8684826882956886e-05 7.6377733818844360e-04 0.0000000000000000e+00  -2.1533888291811739e-05 7.9775200323828810e-04 0.0000000000000000e+00  -1.5926597765118250e-05 8.3038521463822538e-04 0.0000000000000000e+00  -9.2287356500844642e-06 8.6162148808880974e-04 0.0000000000000000e+00  -6.7165045866137502e-06 8.9084480193900870e-04 0.0000000000000000e+00  -4.7504275487225667e-05 1.6111130420963795e-04 0.0000000000000000e+00  -5.0406985646828334e-05 1.9194078579358085e-04 0.0000000000000000e+00  -5.0853063260040234e-05 2.2449319204970197e-04 0.0000000000000000e+00  -5.0052273133454420e-05 2.6155768169400977e-04 0.0000000000000000e+00  -4.9585285561918967e-05 3.0057994871368068e-04 0.0000000000000000e+00  -4.9346486034561778e-05 3.4073968908845433e-04 0.0000000000000000e+00  -4.8961176810184137e-05 3.8177652767170712e-04 0.0000000000000000e+00  -4.8172790913279740e-05 4.2351872061017408e-04 0.0000000000000000e+00  -4.6846052095354240e-05 4.6562025570242687e-04 0.0000000000000000e+00  -4.4988763229532435e-05 5.0769186771222911e-04 0.0000000000000000e+00  -4.2728202970658857e-05 5.4939058078815181e-04 0.0000000000000000e+00  -4.0307604659078048e-05 5.9047406466748243e-04 0.0000000000000000e+00  -3.8083769905022982e-05 6.3084638351501815e-04 0.0000000000000000e+00  -3.6478843495063807e-05 6.7072311915853950e-04 0.0000000000000000e+00  -3.5700148501729590e-05 7.1058929726404787e-04 0.0000000000000000e+00  -3.5047592675561879e-05 7.5061127994171650e-04 0.0000000000000000e+00  -3.2722866369940832e-05 7.8432277342912473e-04 0.0000000000000000e+00  -3.0683264924148487e-05 8.1828779328763925e-04 0.0000000000000000e+00  -3.0311822214561831e-05 8.5213362227910621e-04 0.0000000000000000e+00  -3.3031227494120563e-05 8.9021080170426287e-04 0.0000000000000000e+00  -2.9305404848690923e-05 9.1954794045556916e-04 0.0000000000000000e+00  -4.9466448331476927e-05 1.9559863710330005e-04 0.0000000000000000e+00  -5.1721172184229536e-05 2.2738308837647479e-04 0.0000000000000000e+00  -5.3277063873673764e-05 2.6253073602496067e-04 0.0000000000000000e+00  -5.4136473150814174e-05 3.0002761276964532e-04 0.0000000000000000e+00  -5.4582499844993141e-05 3.3885422955188974e-04 0.0000000000000000e+00  -5.4679762346673510e-05 3.7856071970751430e-04 0.0000000000000000e+00  -5.4390906295006137e-05 4.1890644971456092e-04 0.0000000000000000e+00  -5.3679410824770699e-05 4.5961799497843363e-04 0.0000000000000000e+00  -5.2575580092454999e-05 5.0040746970958147e-04 0.0000000000000000e+00  -5.1184838639234768e-05 5.4101914553127876e-04 0.0000000000000000e+00  -4.9673316025826226e-05 5.8127165516010755e-04 0.0000000000000000e+00  -4.8236081146376020e-05 6.2108742537848296e-04 0.0000000000000000e+00  -4.7026140937060098e-05 6.6052523824550863e-04 0.0000000000000000e+00  -4.6014164061369555e-05 6.9963357845987230e-04 0.0000000000000000e+00  -4.4886461375394456e-05 7.3792523464641781e-04 0.0000000000000000e+00  -4.3528054401610333e-05 7.7291720397015178e-04 0.0000000000000000e+00  -4.2953186985160584e-05 8.0762712256890197e-04 0.0000000000000000e+00  -4.3176394905253966e-05 8.4271851482007590e-04 0.0000000000000000e+00  -4.4086861369401402e-05 8.7935515955044790e-04 0.0000000000000000e+00  -4.5038649594303293e-05 9.1238598029130943e-04 0.0000000000000000e+00  -4.8399342257176988e-05 9.5034430646270211e-04 0.0000000000000000e+00  -5.2561129077265898e-05 2.3006362227854672e-04 0.0000000000000000e+00  -5.5102395522416606e-05 2.6383092057208525e-04 0.0000000000000000e+00  -5.6968072725493739e-05 2.9973386031225009e-04 0.0000000000000000e+00  -5.8210124876479410e-05 3.3711425384742947e-04 0.0000000000000000e+00  -5.8950566955701689e-05 3.7548936094287922e-04 0.0000000000000000e+00  -5.9259490870526148e-05 4.1454801164789265e-04 0.0000000000000000e+00  -5.9177033017973331e-05 4.5402591951219511e-04 0.0000000000000000e+00  -5.8760075642397029e-05 4.9368100067174450e-04 0.0000000000000000e+00  -5.8098559648685235e-05 5.3330377588184797e-04 0.0000000000000000e+00  -5.7308149267192411e-05 5.7273588674273252e-04 0.0000000000000000e+00  -5.6505457058156630e-05 6.1187928484162301e-04 0.0000000000000000e+00  -5.5766966612035044e-05 6.5068263948098181e-04 0.0000000000000000e+00  -5.5084368085156318e-05 6.8902627583407674e-04 0.0000000000000000e+00  -5.4398661321668851e-05 7.2648240288500181e-04 0.0000000000000000e+00  -5.3868217550955393e-05 7.6217850188244020e-04 0.0000000000000000e+00  -5.4028542677597621e-05 7.9752067851995628e-04 0.0000000000000000e+00  -5.4827082668028668e-05 8.3309537079085468e-04 0.0000000000000000e+00  -5.6093192931090794e-05 8.6935914933368268e-04 0.0000000000000000e+00  -5.7751994493259278e-05 9.0490538757712329e-04 0.0000000000000000e+00  -6.0493218954360432e-05 9.4346225981784633e-04 0.0000000000000000e+00  -6.6115851710050102e-05 9.7927409488928049e-04 0.0000000000000000e+00  -5.6242798946831349e-05 2.6494318078153803e-04 0.0000000000000000e+00  -5.8733403529796358e-05 2.9949272192793388e-04 0.0000000000000000e+00  -6.0627669623320024e-05 3.3551009187192144e-04 0.0000000000000000e+00  -6.1987980514827603e-05 3.7260101006710635e-04 0.0000000000000000e+00  -6.2894062548265895e-05 4.1045000175284410e-04 0.0000000000000000e+00  -6.3416371360204392e-05 4.4879509560096122e-04 0.0000000000000000e+00  -6.3627470898873937e-05 4.8741225511083160e-04 0.0000000000000000e+00  -6.3610888602745852e-05 5.2611199322467645e-04 0.0000000000000000e+00  -6.3458474473974272e-05 5.6474230074866276e-04 0.0000000000000000e+00  -6.3257679380271422e-05 6.0318617184704855e-04 0.0000000000000000e+00  -6.3074526662105433e-05 6.4134141144229736e-04 0.0000000000000000e+00  -6.2948010486195226e-05 6.7905759137636612e-04 0.0000000000000000e+00  -6.2934854151867851e-05 7.1606392941939796e-04 0.0000000000000000e+00  -6.3227585653220062e-05 7.5209181534532834e-04 0.0000000000000000e+00  -6.4144133515380936e-05 7.8784600977227330e-04 0.0000000000000000e+00  -6.5731080181467637e-05 8.2376615182464148e-04 0.0000000000000000e+00  -6.7998514135072090e-05 8.6021942936694528e-04 0.0000000000000000e+00  -7.1125310052169317e-05 8.9722903526366399e-04 0.0000000000000000e+00  -7.5635768050297898e-05 9.3721360424090644e-04 0.0000000000000000e+00  -8.0976510837610960e-05 9.8421387564204374e-04 0.0000000000000000e+00  -8.1676844294588895e-05 1.0023882033341318e-03 0.0000000000000000e+00  -5.9746899132616519e-05 2.9912112138716520e-04 0.0000000000000000e+00  -6.2119119954010652e-05 3.3393175701458035e-04 0.0000000000000000e+00  -6.3995324944502051e-05 3.6984078783647973e-04 0.0000000000000000e+00  -6.5434009667758223e-05 4.0656709370385607e-04 0.0000000000000000e+00  -6.6504674537612058e-05 4.4386425201079855e-04 0.0000000000000000e+00  -6.7281874432623107e-05 4.8152044224689762e-04 0.0000000000000000e+00  -6.7844939038430127e-05 5.1935585306798083e-04 0.0000000000000000e+00  -6.8275834907500767e-05 5.5722040682295627e-04 0.0000000000000000e+00  -6.8653844566193316e-05 5.9498798930617523e-04 0.0000000000000000e+00  -6.9051011230596761e-05 6.3254190852144484e-04 0.0000000000000000e+00  -6.9537997203296089e-05 6.6974861116413987e-04 0.0000000000000000e+00  -7.0214126080227465e-05 7.0645425460792060e-04 0.0000000000000000e+00  -7.1251175985994345e-05 7.4260460330242951e-04 0.0000000000000000e+00  -7.2853633542963684e-05 7.7858548917709124e-04 0.0000000000000000e+00  -7.5087746862536302e-05 8.1472319262028815e-04 0.0000000000000000e+00  -7.7962075210402817e-05 8.5135014244847973e-04 0.0000000000000000e+00  -8.1459235496589142e-05 8.8883812006726123e-04 0.0000000000000000e+00  -8.5394948930431007e-05 9.2852160005259016e-04 0.0000000000000000e+00  -8.8812396613257335e-05 9.7123649538628310e-04 0.0000000000000000e+00  -9.3722533583057629e-05 1.0049472371739688e-03 0.0000000000000000e+00  -9.3790450913615686e-05 1.0198389477711954e-03 0.0000000000000000e+00  -6.2848427129741317e-05 3.3227330829717778e-04 0.0000000000000000e+00  -6.5124189911509094e-05 3.6712301434473879e-04 0.0000000000000000e+00  -6.7004178734978855e-05 4.0282642642618170e-04 0.0000000000000000e+00  -6.8546502470719848e-05 4.3916116156017451e-04 0.0000000000000000e+00  -6.9819266379066418e-05 4.7592976851650747e-04 0.0000000000000000e+00  -7.0896188779912187e-05 5.1296085944636382e-04 0.0000000000000000e+00  -7.1853767529311068e-05 5.5010742231566625e-04 0.0000000000000000e+00  -7.2769018615321870e-05 5.8724241891578918e-04 0.0000000000000000e+00  -7.3719625122110357e-05 6.2425134735275662e-04 0.0000000000000000e+00  -7.4790737698695459e-05 6.6102562723053908e-04 0.0000000000000000e+00  -7.6091179213097609e-05 6.9747900367886579e-04 0.0000000000000000e+00  -7.7766016463402907e-05 7.3362456856842010e-04 0.0000000000000000e+00  -7.9964002364600549e-05 7.6969150662132993e-04 0.0000000000000000e+00  -8.2764372789778372e-05 8.0592175466903508e-04 0.0000000000000000e+00  -8.6208846679570230e-05 8.4259553808030462e-04 0.0000000000000000e+00  -9.0316134628080284e-05 8.8008479661944288e-04 0.0000000000000000e+00  -9.5032425386148758e-05 9.1914524001692908e-04 0.0000000000000000e+00  -1.0006530130626887e-04 9.6046730436144295e-04 0.0000000000000000e+00  -1.0452479455578593e-04 1.0065382809588091e-03 0.0000000000000000e+00  -1.0392298813566754e-04 1.0212039164354981e-03 0.0000000000000000e+00  -1.0348052552712178e-04 1.0331917407682780e-03 0.0000000000000000e+00  -6.5473957413312585e-05 3.6436440603013968e-04 0.0000000000000000e+00  -6.7700314705547543e-05 3.9914827441753041e-04 0.0000000000000000e+00  -6.9629364669794572e-05 4.3460851370392603e-04 0.0000000000000000e+00  -7.1319962742635219e-05 4.7056395165483974e-04 0.0000000000000000e+00  -7.2838479196963668e-05 5.0685305444666466e-04 0.0000000000000000e+00  -7.4255775353440943e-05 5.4333427870331740e-04 0.0000000000000000e+00  -7.5645778349952888e-05 5.7988438424673374e-04 0.0000000000000000e+00  -7.7086399210999300e-05 6.1639628748539352e-04 0.0000000000000000e+00  -7.8663974287237844e-05 6.5278093896148338e-04 0.0000000000000000e+00  -8.0480111505275189e-05 6.8898470912578491e-04 0.0000000000000000e+00  -8.2651696991682162e-05 7.2503214819305811e-04 0.0000000000000000e+00  -8.5287603085740593e-05 7.6106391487784761e-04 0.0000000000000000e+00  -8.8452635003883988e-05 7.9725113696759928e-04 0.0000000000000000e+00  -9.2171665023212072e-05 8.3380062792789977e-04 0.0000000000000000e+00  -9.6417454711105773e-05 8.7097284889849807e-04 0.0000000000000000e+00  -1.0105131165548972e-04 9.0912750936000971e-04 0.0000000000000000e+00  -1.0569006295277400e-04 9.4841900314344366e-04 0.0000000000000000e+00  -1.0954722043345147e-04 9.8852207317108544e-04 0.0000000000000000e+00  -1.1207578983274061e-04 1.0223360939336471e-03 0.0000000000000000e+00  -1.1133020089662290e-04 1.0338527327105581e-03 0.0000000000000000e+00  -6.7590568864976807e-05 3.9545696476679545e-04 0.0000000000000000e+00  -6.9821456689819474e-05 4.3012986616834729e-04 0.0000000000000000e+00  -7.1849249079393595e-05 4.6534669701231614e-04 0.0000000000000000e+00  -7.3731972276886758e-05 5.0095668698780941e-04 0.0000000000000000e+00  -7.5533311106834044e-05 5.3682531258280697e-04 0.0000000000000000e+00  -7.7321214565833742e-05 5.7283487679507170e-04 0.0000000000000000e+00  -7.9168089046521091e-05 6.0888540946562697e-04 0.0000000000000000e+00  -8.1152448805859296e-05 6.4489910373215177e-04 0.0000000000000000e+00  -8.3360081476914274e-05 6.8083323424057793e-04 0.0000000000000000e+00  -8.5879154164244910e-05 7.1670158645233443e-04 0.0000000000000000e+00  -8.8783079842028449e-05 7.5258401805114851e-04 0.0000000000000000e+00  -9.2108522377923164e-05 7.8858587362947276e-04 0.0000000000000000e+00  -9.5847048610435154e-05 8.2482931553570294e-04 0.0000000000000000e+00  -9.9925278254208916e-05 8.6143937217805745e-04 0.0000000000000000e+00  -1.0416240997879287e-04 8.9849815286236043e-04 0.0000000000000000e+00  -1.0821554246448757e-04 9.3580610277458178e-04 0.0000000000000000e+00  -1.1160839853457110e-04 9.7247303336552102e-04 0.0000000000000000e+00  -1.1421223510675036e-04 1.0052665873915270e-03 0.0000000000000000e+00  -1.1711429770232316e-04 1.0346094297260882e-03 0.0000000000000000e+00  -6.9175316889449862e-05 4.2565358895670921e-04 0.0000000000000000e+00  -7.1461164545611971e-05 4.6020439579599084e-04 0.0000000000000000e+00  -7.3629746967362702e-05 4.9519663609872062e-04 0.0000000000000000e+00  -7.5736154743010717e-05 5.3050298096114507e-04 0.0000000000000000e+00  -7.7839685268911817e-05 5.6601102515992812e-04 0.0000000000000000e+00  -8.0003060536198856e-05 6.0162548308766313e-04 0.0000000000000000e+00  -8.2291904525694270e-05 6.3727249495614435e-04 0.0000000000000000e+00  -8.4772810944074906e-05 6.7290762748270885e-04 0.0000000000000000e+00  -8.7506929626235310e-05 7.0852507953868727e-04 0.0000000000000000e+00  -9.0536971676584966e-05 7.4415650916056847e-04 0.0000000000000000e+00  -9.3871959623857641e-05 7.7984711858645648e-04 0.000000000000000