<?xml version="1.0"?>
<VTKFile type="UnstructuredGrid"  version="0.1"  >
<UnstructuredGrid>
<Piece  NumberOfPoints="640" NumberOfCells="1181">
<Points>
<DataArray  type="Float64"  NumberOfComponents="3"  format="ascii">2.973913043478261 0 0  2.990434782608696 0 0  2.990434782608696 0.01666666666666667 0  2.973913043478261 0.01666666666666667 0  3.006956521739131 0 0  3.006956521739131 0.01666666666666667 0  3.023478260869565 0 0  3.023478260869565 0.01666666666666667 0  3.04 0 0  3.04 0.01666666666666667 0  3.056521739130435 0 0  3.056521739130435 0.01666666666666667 0  3.073043478260869 0 0  3.073043478260869 0.01666666666666667 0  3.089565217391304 0 0  3.089565217391304 0.01666666666666667 0  3.106086956521739 0 0  3.106086956521739 0.01666666666666667 0  3.122608695652174 0 0  3.122608695652174 0.01666666666666667 0  3.139130434782609 0 0  3.139130434782609 0.01666666666666667 0  3.155652173913043 0 0  3.155652173913043 0.01666666666666667 0  3.172173913043478 0 0  3.172173913043478 0.01666666666666667 0  3.188695652173913 0 0  3.188695652173913 0.01666666666666667 0  3.205217391304347 0 0  3.205217391304347 0.01666666666666667 0  3.221739130434782 0 0  3.221739130434782 0.01666666666666667 0  3.238260869565217 0 0  3.238260869565217 0.01666666666666667 0  2.990434782608696 0.03333333333333333 0  2.973913043478261 0.03333333333333333 0  3.006956521739131 0.03333333333333333 0  3.023478260869565 0.03333333333333333 0  3.04 0.03333333333333333 0  3.056521739130435 0.03333333333333333 0  3.073043478260869 0.03333333333333333 0  3.089565217391304 0.03333333333333333 0  3.106086956521739 0.03333333333333333 0  3.122608695652174 0.03333333333333333 0  3.139130434782609 0.03333333333333333 0  3.155652173913043 0.03333333333333333 0  3.172173913043478 0.03333333333333333 0  3.188695652173913 0.03333333333333333 0  3.205217391304347 0.03333333333333333 0  3.221739130434782 0.03333333333333333 0  3.238260869565217 0.03333333333333333 0  3.254782608695652 0.03333333333333333 0  2.990434782608696 0.05 0  3.006956521739131 0.05 0  3.023478260869565 0.05 0  3.04 0.05 0  3.056521739130435 0.05 0  3.073043478260869 0.05 0  3.089565217391304 0.05 0  3.106086956521739 0.05 0  3.122608695652174 0.05 0  3.139130434782609 0.05 0  3.155652173913043 0.05 0  3.172173913043478 0.05 0  3.188695652173913 0.05 0  3.205217391304347 0.05 0  3.221739130434782 0.05 0  3.238260869565217 0.05 0  3.254782608695652 0.05 0  3.271304347826087 0.05 0  3.006956521739131 0.06666666666666667 0  2.990434782608696 0.06666666666666667 0  3.023478260869565 0.06666666666666667 0  3.04 0.06666666666666667 0  3.056521739130435 0.06666666666666667 0  3.073043478260869 0.06666666666666667 0  3.089565217391304 0.06666666666666667 0  3.106086956521739 0.06666666666666667 0  3.122608695652174 0.06666666666666667 0  3.139130434782609 0.06666666666666667 0  3.155652173913043 0.06666666666666667 0  3.172173913043478 0.06666666666666667 0  3.188695652173913 0.06666666666666667 0  3.205217391304347 0.06666666666666667 0  3.221739130434782 0.06666666666666667 0  3.238260869565217 0.06666666666666667 0  3.254782608695652 0.06666666666666667 0  3.271304347826087 0.06666666666666667 0  3.287826086956521 0.06666666666666667 0  3.006956521739131 0.08333333333333333 0  3.023478260869565 0.08333333333333333 0  3.04 0.08333333333333333 0  3.056521739130435 0.08333333333333333 0  3.073043478260869 0.08333333333333333 0  3.089565217391304 0.08333333333333333 0  3.106086956521739 0.08333333333333333 0  3.122608695652174 0.08333333333333333 0  3.139130434782609 0.08333333333333333 0  3.155652173913043 0.08333333333333333 0  3.172173913043478 0.08333333333333333 0  3.188695652173913 0.08333333333333333 0  3.205217391304347 0.08333333333333333 0  3.221739130434782 0.08333333333333333 0  3.238260869565217 0.08333333333333333 0  3.254782608695652 0.08333333333333333 0  3.271304347826087 0.08333333333333333 0  3.287826086956521 0.08333333333333333 0  3.304347826086957 0.08333333333333333 0  3.023478260869565 0.1 0  3.006956521739131 0.1 0  3.04 0.1 0  3.056521739130435 0.1 0  3.073043478260869 0.1 0  3.089565217391304 0.1 0  3.106086956521739 0.1 0  3.122608695652174 0.1 0  3.139130434782609 0.1 0  3.155652173913043 0.1 0  3.172173913043478 0.1 0  3.188695652173913 0.1 0  3.205217391304347 0.1 0  3.221739130434782 0.1 0  3.238260869565217 0.1 0  3.254782608695652 0.1 0  3.271304347826087 0.1 0  3.287826086956521 0.1 0  3.304347826086957 0.1 0  3.320869565217391 0.1 0  3.023478260869565 0.1166666666666667 0  3.04 0.1166666666666667 0  3.056521739130435 0.1166666666666667 0  3.073043478260869 0.1166666666666667 0  3.089565217391304 0.1166666666666667 0  3.106086956521739 0.1166666666666667 0  3.122608695652174 0.1166666666666667 0  3.139130434782609 0.1166666666666667 0  3.155652173913043 0.1166666666666667 0  3.172173913043478 0.1166666666666667 0  3.188695652173913 0.1166666666666667 0  3.205217391304347 0.1166666666666667 0  3.221739130434782 0.1166666666666667 0  3.238260869565217 0.1166666666666667 0  3.254782608695652 0.1166666666666667 0  3.271304347826087 0.1166666666666667 0  3.287826086956521 0.1166666666666667 0  3.304347826086957 0.1166666666666667 0  3.320869565217391 0.1166666666666667 0  3.337391304347826 0.1166666666666667 0  3.04 0.1333333333333333 0  3.023478260869565 0.1333333333333333 0  3.056521739130435 0.1333333333333333 0  3.073043478260869 0.1333333333333333 0  3.089565217391304 0.1333333333333333 0  3.106086956521739 0.1333333333333333 0  3.122608695652174 0.1333333333333333 0  3.139130434782609 0.1333333333333333 0  3.155652173913043 0.1333333333333333 0  3.172173913043478 0.1333333333333333 0  3.188695652173913 0.1333333333333333 0  3.205217391304347 0.1333333333333333 0  3.221739130434782 0.1333333333333333 0  3.238260869565217 0.1333333333333333 0  3.254782608695652 0.1333333333333333 0  3.271304347826087 0.1333333333333333 0  3.287826086956521 0.1333333333333333 0  3.304347826086957 0.1333333333333333 0  3.320869565217391 0.1333333333333333 0  3.337391304347826 0.1333333333333333 0  3.353913043478261 0.1333333333333333 0  3.04 0.15 0  3.056521739130435 0.15 0  3.073043478260869 0.15 0  3.089565217391304 0.15 0  3.106086956521739 0.15 0  3.122608695652174 0.15 0  3.139130434782609 0.15 0  3.155652173913043 0.15 0  3.172173913043478 0.15 0  3.188695652173913 0.15 0  3.205217391304347 0.15 0  3.221739130434782 0.15 0  3.238260869565217 0.15 0  3.254782608695652 0.15 0  3.271304347826087 0.15 0  3.287826086956521 0.15 0  3.304347826086957 0.15 0  3.320869565217391 0.15 0  3.337391304347826 0.15 0  3.353913043478261 0.15 0  3.370434782608696 0.15 0  3.056521739130435 0.1666666666666667 0  3.073043478260869 0.1666666666666667 0  3.089565217391304 0.1666666666666667 0  3.106086956521739 0.1666666666666667 0  3.122608695652174 0.1666666666666667 0  3.139130434782609 0.1666666666666667 0  3.155652173913043 0.1666666666666667 0  3.172173913043478 0.1666666666666667 0  3.188695652173913 0.1666666666666667 0  3.205217391304347 0.1666666666666667 0  3.221739130434782 0.1666666666666667 0  3.238260869565217 0.1666666666666667 0  3.254782608695652 0.1666666666666667 0  3.271304347826087 0.1666666666666667 0  3.287826086956521 0.1666666666666667 0  3.304347826086957 0.1666666666666667 0  3.320869565217391 0.1666666666666667 0  3.337391304347826 0.1666666666666667 0  3.353913043478261 0.1666666666666667 0  3.370434782608696 0.1666666666666667 0  3.386956521739131 0.1666666666666667 0  3.073043478260869 0.1833333333333333 0  3.089565217391304 0.1833333333333333 0  3.106086956521739 0.1833333333333333 0  3.122608695652174 0.1833333333333333 0  3.139130434782609 0.1833333333333333 0  3.155652173913043 0.1833333333333333 0  3.172173913043478 0.1833333333333333 0  3.188695652173913 0.1833333333333333 0  3.205217391304347 0.1833333333333333 0  3.221739130434782 0.1833333333333333 0  3.238260869565217 0.1833333333333333 0  3.254782608695652 0.1833333333333333 0  3.271304347826087 0.1833333333333333 0  3.287826086956521 0.1833333333333333 0  3.304347826086957 0.1833333333333333 0  3.320869565217391 0.1833333333333333 0  3.337391304347826 0.1833333333333333 0  3.353913043478261 0.1833333333333333 0  3.370434782608696 0.1833333333333333 0  3.386956521739131 0.1833333333333333 0  3.403478260869565 0.1833333333333333 0  3.089565217391304 0.2 0  3.106086956521739 0.2 0  3.122608695652174 0.2 0  3.139130434782609 0.2 0  3.155652173913043 0.2 0  3.172173913043478 0.2 0  3.188695652173913 0.2 0  3.205217391304347 0.2 0  3.221739130434782 0.2 0  3.238260869565217 0.2 0  3.254782608695652 0.2 0  3.271304347826087 0.2 0  3.287826086956521 0.2 0  3.304347826086957 0.2 0  3.320869565217391 0.2 0  3.337391304347826 0.2 0  3.353913043478261 0.2 0  3.370434782608696 0.2 0  3.386956521739131 0.2 0  3.403478260869565 0.2 0  3.419999999999999 0.2 0  3.106086956521739 0.2166666666666667 0  3.122608695652174 0.2166666666666667 0  3.139130434782609 0.2166666666666667 0  3.155652173913043 0.2166666666666667 0  3.172173913043478 0.2166666666666667 0  3.188695652173913 0.2166666666666667 0  3.205217391304347 0.2166666666666667 0  3.221739130434782 0.2166666666666667 0  3.238260869565217 0.2166666666666667 0  3.254782608695652 0.2166666666666667 0  3.271304347826087 0.2166666666666667 0  3.287826086956521 0.2166666666666667 0  3.304347826086957 0.2166666666666667 0  3.320869565217391 0.2166666666666667 0  3.337391304347826 0.2166666666666667 0  3.353913043478261 0.2166666666666667 0  3.370434782608696 0.2166666666666667 0  3.386956521739131 0.2166666666666667 0  3.403478260869565 0.2166666666666667 0  3.419999999999999 0.2166666666666667 0  3.436521739130435 0.2166666666666667 0  3.122608695652174 0.2333333333333333 0  3.139130434782609 0.2333333333333333 0  3.155652173913043 0.2333333333333333 0  3.172173913043478 0.2333333333333333 0  3.188695652173913 0.2333333333333333 0  3.205217391304347 0.2333333333333333 0  3.221739130434782 0.2333333333333333 0  3.238260869565217 0.2333333333333333 0  3.254782
[...]
<PointData  Vectors="Displacement"> 
<DataArray  type="Float64"  Name="Displacement"  NumberOfComponents="3" format="ascii">4.1520221842479614e-04 5.8044865765834860e-03 0.0000000000000000e+00  4.1548354782172561e-04 5.8267743872089349e-03 0.0000000000000000e+00  3.9398057209548220e-04 5.8263858667754976e-03 0.0000000000000000e+00  3.9173258726047489e-04 5.8040683635097647e-03 0.0000000000000000e+00  4.1574644905733774e-04 5.8470171921116898e-03 0.0000000000000000e+00  3.9617095418895517e-04 5.8467076919584198e-03 0.0000000000000000e+00  4.1599727389876709e-04 5.8652906434983878e-03 0.0000000000000000e+00  3.9809036348014250e-04 5.8651477139873547e-03 0.0000000000000000e+00  4.1635594923724434e-04 5.8822591629946741e-03 0.0000000000000000e+00  3.9923584345563661e-04 5.8820838213984655e-03 0.0000000000000000e+00  4.1689570943133586e-04 5.8987617042729904e-03 0.0000000000000000e+00  4.0008932105210234e-04 5.8985491430827023e-03 0.0000000000000000e+00  4.1757312160359034e-04 5.9152362992026912e-03 0.0000000000000000e+00  4.0081064740956436e-04 5.9149878953847655e-03 0.0000000000000000e+00  4.1827846540734830e-04 5.9319198849711492e-03 0.0000000000000000e+00  4.0146418974962923e-04 5.9316670163382422e-03 0.0000000000000000e+00  4.1887410229966799e-04 5.9488168846183994e-03 0.0000000000000000e+00  4.0205966894883488e-04 5.9486072887630697e-03 0.0000000000000000e+00  4.1920073533939717e-04 5.9657362176585623e-03 0.0000000000000000e+00  4.0254216690933752e-04 5.9656929377121960e-03 0.0000000000000000e+00  4.1928237091759323e-04 5.9824871151175517e-03 0.0000000000000000e+00  4.0271711823465538e-04 5.9825723250815956e-03 0.0000000000000000e+00  4.3118043849136727e-04 6.0067001753073817e-03 0.0000000000000000e+00  4.0940569097434296e-04 6.0037572536236067e-03 0.0000000000000000e+00  4.4124222780201651e-04 6.0310052225977422e-03 0.0000000000000000e+00  4.1729728984495041e-04 6.0281540892226041e-03 0.0000000000000000e+00  4.5040443685026772e-04 6.0564819911864730e-03 0.0000000000000000e+00  4.2482460041579480e-04 6.0538326114028592e-03 0.0000000000000000e+00  4.5901794536317857e-04 6.0831645024016978e-03 0.0000000000000000e+00  4.3190311589257031e-04 6.0806198068636503e-03 0.0000000000000000e+00  4.6705806516788537e-04 6.1115720552053863e-03 0.0000000000000000e+00  4.3838907031894605e-04 6.1092261707626459e-03 0.0000000000000000e+00  4.7442733504034917e-04 6.1416005043966613e-03 0.0000000000000000e+00  4.4428181214845259e-04 6.1394679619152836e-03 0.0000000000000000e+00  3.7190235971273602e-04 5.8255952231812324e-03 0.0000000000000000e+00  3.6715817412136064e-04 5.8033248808742150e-03 0.0000000000000000e+00  3.7674470026850853e-04 5.8458975137906074e-03 0.0000000000000000e+00  3.8105667381365164e-04 5.8645607010412498e-03 0.0000000000000000e+00  3.8303529814251501e-04 5.8818410787650939e-03 0.0000000000000000e+00  3.8378134590986681e-04 5.8983061120948792e-03 0.0000000000000000e+00  3.8430680046627763e-04 5.9146852236155074e-03 0.0000000000000000e+00  3.8483392098627212e-04 5.9313475311890077e-03 0.0000000000000000e+00  3.8541438685390004e-04 5.9482846479089087e-03 0.0000000000000000e+00  3.8608631667370685e-04 5.9655008567915504e-03 0.0000000000000000e+00  3.8676058243954699e-04 5.9829460970033969e-03 0.0000000000000000e+00  3.8788360543209953e-04 6.0020017558912063e-03 0.0000000000000000e+00  3.9428725175775261e-04 6.0260395065744911e-03 0.0000000000000000e+00  4.0048617441523169e-04 6.0517977164122033e-03 0.0000000000000000e+00  4.0624077652181488e-04 6.0785048896509425e-03 0.0000000000000000e+00  4.1113147330373205e-04 6.1073536548313257e-03 0.0000000000000000e+00  4.1550491809279181e-04 6.1377867383626350e-03 0.0000000000000000e+00  4.1944379677340640e-04 6.1697060987387685e-03 0.0000000000000000e+00  3.5710109349069633e-04 5.8217649048057912e-03 0.0000000000000000e+00  3.6071353257821555e-04 5.8425681726993594e-03 0.0000000000000000e+00  3.6380575413353207e-04 5.8620667772847461e-03 0.0000000000000000e+00  3.6606364897859089e-04 5.8806023795123724e-03 0.0000000000000000e+00  3.6772720290006555e-04 5.8982185590289267e-03 0.0000000000000000e+00  3.6793130970967490e-04 5.9144594062029319e-03 0.0000000000000000e+00  3.6813734256438321e-04 5.9310481025777670e-03 0.0000000000000000e+00  3.6850513025041525e-04 5.9479064154848976e-03 0.0000000000000000e+00  3.6907415505933402e-04 5.9651119341283905e-03 0.0000000000000000e+00  3.6991306892483441e-04 5.9829751478889352e-03 0.0000000000000000e+00  3.7116865970622813e-04 6.0024038477806043e-03 0.0000000000000000e+00  3.7313887808239089e-04 6.0247121080590918e-03 0.0000000000000000e+00  3.7673494155915127e-04 6.0496767078180693e-03 0.0000000000000000e+00  3.8311018249540056e-04 6.0770657540470075e-03 0.0000000000000000e+00  3.8513341874683415e-04 6.1060869439620996e-03 0.0000000000000000e+00  3.8768576174605775e-04 6.1365889395035940e-03 0.0000000000000000e+00  3.9019208389856559e-04 6.1686788898798490e-03 0.0000000000000000e+00  3.9258106887679481e-04 6.2018477970030590e-03 0.0000000000000000e+00  3.4511441472096269e-04 5.8403124023123833e-03 0.0000000000000000e+00  3.4219910086922276e-04 5.8190480886440603e-03 0.0000000000000000e+00  3.4756183332471140e-04 5.8604568047406934e-03 0.0000000000000000e+00  3.4938285154314613e-04 5.8796825059500265e-03 0.0000000000000000e+00  3.5074724875984025e-04 5.8975537194689790e-03 0.0000000000000000e+00  3.5105259936687929e-04 5.9142474105526319e-03 0.0000000000000000e+00  3.5109729509892368e-04 5.9308760964022775e-03 0.0000000000000000e+00  3.5113225087693705e-04 5.9476603141723613e-03 0.0000000000000000e+00  3.5116713773352992e-04 5.9647971500537455e-03 0.0000000000000000e+00  3.5121946948237089e-04 5.9827459815882666e-03 0.0000000000000000e+00  3.5148916341291240e-04 6.0023363474358644e-03 0.0000000000000000e+00  3.5217325432983942e-04 6.0245348739949387e-03 0.0000000000000000e+00  3.5357125968317699e-04 6.0490456223704359e-03 0.0000000000000000e+00  3.5565484678064442e-04 6.0763794597959546e-03 0.0000000000000000e+00  3.5733011042807591e-04 6.1053089813331522e-03 0.0000000000000000e+00  3.5978774965507112e-04 6.1358363061014953e-03 0.0000000000000000e+00  3.6117404372938488e-04 6.1680757249261151e-03 0.0000000000000000e+00  3.6263475006094952e-04 6.2011966489366995e-03 0.0000000000000000e+00  3.6390283167930180e-04 6.2356734830274945e-03 0.0000000000000000e+00  3.2984839878434744e-04 5.8388052799255687e-03 0.0000000000000000e+00  3.3189917785724898e-04 5.8595754960956148e-03 0.0000000000000000e+00  3.3312631304044778e-04 5.8794752926571931e-03 0.0000000000000000e+00  3.3417952807283008e-04 5.8976180179955585e-03 0.0000000000000000e+00  3.3411363123161231e-04 5.9141874544233822e-03 0.0000000000000000e+00  3.3402462410664477e-04 5.9308061159996962e-03 0.0000000000000000e+00  3.3376074533061120e-04 5.9476120162862906e-03 0.0000000000000000e+00  3.3318035381911721e-04 5.9648217842836046e-03 0.0000000000000000e+00  3.3192961590698244e-04 5.9828660400224149e-03 0.0000000000000000e+00  3.3027634050095773e-04 6.0023068463406406e-03 0.0000000000000000e+00  3.2918221742776201e-04 6.0246178894519413e-03 0.0000000000000000e+00  3.2874146285743474e-04 6.0490924079335357e-03 0.0000000000000000e+00  3.2890753172765922e-04 6.0760639635001352e-03 0.0000000000000000e+00  3.2958414729978235e-04 6.1050788071660804e-03 0.0000000000000000e+00  3.3065483273582831e-04 6.1354838288980125e-03 0.0000000000000000e+00  3.3188994531117296e-04 6.1676672493687678e-03 0.0000000000000000e+00  3.3299431580929829e-04 6.2006786732185749e-03 0.0000000000000000e+00  3.3341555223284023e-04 6.2354823900602251e-03 0.0000000000000000e+00  3.3382251583141692e-04 6.2706365964606556e-03 0.0000000000000000e+00  3.1663404387538487e-04 5.8590367680557403e-03 0.0000000000000000e+00  3.1508212341695082e-04 5.8379084323646174e-03 0.0000000000000000e+00  3.1812111704784552e-04 5.8804125768479078e-03 0.0000000000000000e+00  3.1814185978188390e-04 5.8971590752263025e-03 0.0000000000000000e+00  3.1777626896019583e-04 5.9141462284628644e-03 0.0000000000000000e+00  3.1755822034481500e-04 5.9307501427552454e-03 0.0000000000000000e+00  3.1721602734744098e-04 5.9475304823318580e-03 0.0000000000000000e+00  3.1662061485779786e-04 5.9648544602124796e-03 0.0000000000000000e+00  3.1448160517566877e-04 5.9832376638754041e-03 0.0000000000000000e+00  3.0927203437734220e-04 6.0030297708650376e-03 0.0000000000000000e+00  3.0410831581367706e-04 6.0249955184334359e-03 0.0000000000000000e+00  3.0237640348291655e-04 6.0494146634267965e-03 0.0000000000000000e+00  3.0102210709794143e-04 6.0761147731697588e-03 0.0000000000000000e+00  3.0044744345475953e-04 6.1050796283082399e-03 0.0000000000000000e+00  3.0043470125956130e-04 6.1355226157512712e-03 0.0000000000000000e+00  3.0081962993740060e-04 6.1675983665614546e-03 0.0000000000000000e+00  3.0157970722212191e-04 6.2007600673165625e-03 0.0000000000000000e+00  3.0264277013935099e-04 6.2354500282115694e-03 0.0000000000000000e+00  3.0306712089484613e-04 6.2706058021778817e-03 0.0000000000000000e+00  3.0238637650902310e-04 6.3069965227661650e-03 0.0000000000000000e+00  3.0303523521076807e-04 5.8591586610328766e-03 0.0000000000000000e+00  3.0280009271538202e-04 5.8787088351720442e-03 0.0000000000000000e+00  3.0224806409894764e-04 5.8968028898438813e-03 0.0000000000000000e+00  3.0186976503270751e-04 5.9139977641326676e-03 0.0000000000000000e+00  3.0157400408472055e-04 5.9306645695220263e-03 0.0000000000000000e+00  3.0127753551284237e-04 5.9473472692026337e-03 0.0000000000000000e+00  3.0070224566813993e-04 5.9646416617434262e-03 0.0000000000000000e+00  2.9633847691200966e-04 5.9901305179721276e-03 0.0000000000000000e+00  2.9032589375472715e-04 6.0126718528539522e-03 0.0000000000000000e+00  2.8412519021127109e-04 6.0341413389008733e-03 0.0000000000000000e+00  2.7742320328378412e-04 6.0500778615638975e-03 0.0000000000000000e+00  2.7134787320549312e-04 6.0765057555617940e-03 0.0000000000000000e+00  2.6973106797251032e-04 6.1052438425098941e-03 0.0000000000000000e+00  2.6898065627770177e-04 6.1356097050520308e-03 0.0000000000000000e+00  2.6864553577645643e-04 6.1676733760799600e-03 0.0000000000000000e+00  2.6873324743639213e-04 6.2008969121721868e-03 0.0000000000000000e+00  2.6915879701060164e-04 6.2354668384487178e-03 0.0000000000000000e+00  2.6983821914192395e-04 6.2711075857148132e-03 0.0000000000000000e+00  2.7043958306394953e-04 6.3074935115903256e-03 0.0000000000000000e+00  2.6916077443780566e-04 6.3445678588637698e-03 0.0000000000000000e+00  2.8627869955242797e-04 5.8782313795240852e-03 0.0000000000000000e+00  2.8692024966863063e-04 5.8589195469289828e-03 0.0000000000000000e+00  2.8584527634141699e-04 5.8965297732950922e-03 0.0000000000000000e+00  2.8555324959762861e-04 5.9139212881997487e-03 0.0000000000000000e+00  2.8536909837715413e-04 5.9306443859639783e-03 0.0000000000000000e+00  2.8528663310242996e-04 5.9470671615016544e-03 0.0000000000000000e+00  2.8085827135333150e-04 5.9727777965809742e-03 0.0000000000000000e+00  2.7445828552455771e-04 5.9988654628459525e-03 0.0000000000000000e+00  2.6817426496390188e-04 6.0230359052683459e-03 0.0000000000000000e+00  2.6171349609258688e-04 6.0455284081597600e-03 0.0000000000000000e+00  2.5498997450653537e-04 6.0659075879385222e-03 0.0000000000000000e+00  2.4780003823231364e-04 6.0902893490869863e-03 0.0000000000000000e+00  2.4210992915119360e-04 6.1154536900472770e-03 0.0000000000000000e+00  2.3616483563915900e-04 6.1357979320693246e-03 0.0000000000000000e+00  2.3521221008484917e-04 6.1677722590354773e-03 0.0000000000000000e+00  2.3477048137421005e-04 6.2009826529114426e-03 0.0000000000000000e+00  2.3465234674582437e-04 6.2355806926306882e-03 0.0000000000000000e+00  2.3484999112039387e-04 6.2712318113670599e-03 0.0000000000000000e+00  2.3532429312345782e-04 6.3077456638118614e-03 0.0000000000000000e+00  2.3601212580401910e-04 6.3452946211494847e-03 0.0000000000000000e+00  2.3473671974889981e-04 6.3829420218665155e-03 0.0000000000000000e+00  2.6888473411419884e-04 5.8779301139443522e-03 0.0000000000000000e+00  2.6856756962362848e-04 5.8963966127857214e-03 0.0000000000000000e+00  2.6845591968765320e-04 5.9140064671908809e-03 0.0000000000000000e+00  2.6843846107260367e-04 5.9307857793053842e-03 0.0000000000000000e+00  2.6459456211233448e-04 5.9550149748445191e-03 0.0000000000000000e+00  2.5780559155753083e-04 5.9823001623208116e-03 0.0000000000000000e+00  2.5074261715132747e-04 6.0091580169202054e-03 0.0000000000000000e+00  2.4379959309766077e-04 6.0342110191068058e-03 0.0000000000000000e+00  2.3689757535623734e-04 6.0578309327841712e-03 0.0000000000000000e+00  2.2985270124102001e-04 6.0803855013225354e-03 0.0000000000000000e+00  2.2264649921820961e-04 6.1044403465567425e-03 0.0000000000000000e+00  2.1618025031528302e-04 6.1287042032116840e-03 0.0000000000000000e+00  2.1019956412496310e-04 6.1517087791457346e-03 0.0000000000000000e+00  2.0443460122677261e-04 6.1781052418734784e-03 0.0000000000000000e+00  1.9963314640180586e-04 6.2010919115275103e-03 0.0000000000000000e+00  1.9909159525056746e-04 6.2356310736069514e-03 0.0000000000000000e+00  1.9895192192183895e-04 6.2713490270498648e-03 0.0000000000000000e+00  1.9905239811259578e-04 6.3079215322219360e-03 0.0000000000000000e+00  1.9936636415519434e-04 6.3453851614731684e-03 0.0000000000000000e+00  1.9983494964938717e-04 6.3835066849575513e-03 0.0000000000000000e+00  2.0011764395792876e-04 6.4218611931980462e-03 0.0000000000000000e+00  2.5036682791326677e-04 5.8964590162976054e-03 0.0000000000000000e+00  2.5042046255332713e-04 5.9141772965528141e-03 0.0000000000000000e+00  2.5052808326523658e-04 5.9313010204274834e-03 0.0000000000000000e+00  2.4245696407923254e-04 5.9640773048089488e-03 0.0000000000000000e+00  2.3350644914670672e-04 5.9931698012207534e-03 0.0000000000000000e+00  2.2522169115926768e-04 6.0205293180703758e-03 0.0000000000000000e+00  2.1755988914073438e-04 6.0462512295459099e-03 0.0000000000000000e+00  2.1019423398388411e-04 6.0707268896668101e-03 0.0000000000000000e+00  2.0290414035781479e-04 6.0944725354630420e-03 0.0000000000000000e+00  1.9565982888709039e-04 6.1186504823347093e-03 0.0000000000000000e+00  1.8882110261025711e-04 6.1428271648685572e-03 0.0000000000000000e+00  1.8229534594270240e-04 6.1666867692629669e-03 0.0000000000000000e+00  1.7589979736795517e-04 6.1917049531047133e-03 0.0000000000000000e+00  1.6986330110626240e-04 6.2150885840959041e-03 0.0000000000000000e+00  1.6238006799585152e-04 6.2355742688072610e-03 0.0000000000000000e+00  1.6218826761866024e-04 6.2714196307165444e-03 0.0000000000000000e+00  1.6202375712090467e-04 6.3080160821032778e-03 0.0000000000000000e+00  1.6204829299749820e-04 6.3455291539431437e-03 0.0000000000000000e+00  1.6223240735116143e-04 6.3836324134276517e-03 0.0000000000000000e+00  1.6254145110340633e-04 6.4221390722921136e-03 0.0000000000000000e+00  1.6289404615939812e-04 6.4611009468336453e-03 0.0000000000000000e+00  2.3143284007886086e-04 5.9145479288871183e-03 0.0000000000000000e+00  2.2380092104870615e-04 5.9437120923602430e-03 0.0000000000000000e+00  2.1393710659125647e-04 5.9757510809539133e-03 0.0000000000000000e+00  2.0517217634569447e-04 6.0053388189366189e-03 0.0000000000000000e+00  1.9693636367220570e-04 6.0329013043008200e-03 0.0000000000000000e+00  1.8917732746300960e-04 6.0589925345310340e-03 0.0000000000000000e+00  1.8170686639719451e-04 6.0840410010249172e-03 0.0000000000000000e+00  1.7437569339468550e-04 6.1084834642412180e-03 0.0000000000000000e+00  1.6716412732316544e-04 6.1329093588376746e-03 0.0000000000000000e+00  1.6021948154971980e-04 6.1572395912548074e-03 0.0000000000000000e+00  1.5352546630613569e-04 6.1814777810138147e-03 0.0000000000000000e+00  1.4705490927684306e-04 6.2061104840904760e-03 0.0000000000000000e+00  1.4090784341345614e-04 6.2300927639953900e-03 0.0000000000000000e+00  1.3460125023822376e-04 6.2537573671362263e-03 0.0000000000000000e+00  1.2867819548895843e-04 6.2823885533340035e-03 0.0000000000000000e+00  1.2419399478328185e-04 6.3080532469513458e-03 0.0000000000000000e+00  1.2414907715227333e-04 6.3456101300368387e-03 0.0000000000000000e+00  1.2421073007220091e-04 6.3837602248607832e-03 0.0000000000000000e+00  1.2439014239659207e-04 6.4223227063066714e-03 0.0000000000000000e+00  1.2467062534563070e-04 6.4613059739534601e-03 0.0000000000000000e+00  1.2504696528002604e-04 6.5006747957353627e-03 0.0000000000000000e+00  1.9268617890447995e-04 5.9576282831131011e-03 0.0000000000000000e+00  1.8315274570261452e-04 5.9887803103701063e-03 0.0000000000000000e+00  1.7463075274375662e-04 6.0180331290888185e-03 0.0000000000000000e+00  1.6670164516200607e-04 6.0456994917927349e-03 0.0000000000000000e+00  1.5911832147801243e-04 6.0720882305548840e-03 0.0000000000000000e+00  1.5174834493670916e-04 6.0975662317782758e-03 0.0000000000000000e+00  1.4450846903917982e-04 6.1224826288444525e-03 0.0000000000000000e+00  1.3738989528816158e-04 6.1471859448030946e-03 0.0000000000000000e+00  1.3045693261322001e-04 6.1717353620932185e-03 0.0000000000000000e+00  1.2371390468251937e-04 6.1962190995983827e-03 0.0000000000000000e+00  1.1715879352227437e-04 6.2208356552854146e-03 0.0000000000000000e+00  1.1079483345085446e-04 6.2452718977228060e-03 0.0000000000000000e+00  1.0440008130438235e-04 6.2699779562642652e-03 0.0000000000000000e+00  9.8103525855751825e-05 6.2966859486389120e-03 0.0000000000000000e+00  9.2442197275275021e-05 6.3222677218686884e-03 0.0000000000000000e+00  8.5703431082694175e-05 6.3456333504115815e-03 0.0000000000000000e+00  8.5718127012861500e-05 6.3838156958054360e-03 0.0000000000000000e+00  8.5821558227290026e-05 6.4224421149714451e-03 0.0000000000000000e+00  8.5995499824332157e-05 6.4614796387257520e-03 0.0000000000000000e+00  8.6238846803177123e-05 6.5007926236962813e-03 0.0000000000000000e+00  8.6532035503329176e-05 6.5402527674823536e-03 0.0000000000000000e+00  1.5052471851698950e-04 6.0021430300897126e-03 0.0000000000000000e+00  1.4260836078422337e-04 6.0310555770731033e-03 0.0000000000000000e+00  1.3507042195910158e-04 6.0587372324201081e-03 0.0000000000000000e+00  1.2776471912925191e-04 6.0853677897923985e-03 0.0000000000000000e+00  1.2059650062666363e-04 6.1111939966417839e-03 0.0000000000000000e+00  1.1352123858501256e-04 6.1364779870258634e-03 0.0000000000000000e+00  1.0653928247468088e-04 6.1614579652734631e-03 0.0000000000000000e+00  9.9683354833029090e-05 6.1862418793167942e-03 0.0000000000000000e+00  9.2963358979781038e-05 6.2109399617329307e-03 0.0000000000000000e+00  8.6383258034069307e-05 6.2356786665215573e-03 0.0000000000000000e+00  7.9935790323122619e-05 6.2604294502435764e-03 0.0000000000000000e+00  7.3548044470262577e-05 6.2855200727615738e-03 0.0000000000000000e+00  6.7327744711267494e-05 6.3115387500896356e-03 0.0000000000000000e+00  6.1528687927914840e-05 6.3373173636870166e-03 0.0000000000000000e+00  5.5729504482294014e-05 6.3631975043626325e-03 0.0000000000000000e+00  5.0481362430234099e-05 6.3940984485564871e-03 0.0000000000000000e+00  4.6910412755407113e-05 6.4225262068668635e-03 0.0000000000000000e+00  4.7053041355713150e-05 6.4616218992698529e-03 0.0000000000000000e+00  4.7216593432519010e-05 6.5009370582463626e-03 0.0000000000000000e+00  4.7399511452908967e-05 6.5403326128311680e-03 0.0000000000000000e+00  4.7582296019444870e-05 6.5796916731364462e-03 0.0000000000000000e+00  1.0972975612106744e-04 6.0441879384665938e-03 0.0000000000000000e+00  1.0250951485661305e-04 6.0719169293057167e-03 0.0000000000000000e+00  9.5457710092263016e-05 6.0987561421360168e-03 0.0000000000000000e+00  8.8505025645891654e-05 6.1248756389325164e-03 0.0000000000000000e+00  8.1618462538207581e-05 6.1504678664611413e-03 0.0000000000000000e+00  7.4797211488030534e-05 6.1757115787442638e-03 0.0000000000000000e+00  6.8058815380781114e-05 6.2007268234310605e-03 0.0000000000000000e+00  6.1413337386528888e-05 6.2256279101444460e-03 0.0000000000000000e+00  5.4867045413602134e-05 6.2505263255392329e-03 0.0000000000000000e+00  4.8418434243516758e-05 6.2754923211534178e-03 0.0000000000000000e+