<?xml version="1.0"?>
<VTKFile type="UnstructuredGrid"  version="0.1"  >
<UnstructuredGrid>
<Piece  NumberOfPoints="611" NumberOfCells="1123">
<Points>
<DataArray  type="Float64"  NumberOfComponents="3"  format="ascii">1.883478260869565 0.01666666666666667 0  1.9 0.01666666666666667 0  1.9 0.03333333333333333 0  1.883478260869565 0.03333333333333333 0  1.916521739130435 0.03333333333333333 0  1.9 0.05 0  1.883478260869565 0.05 0  1.916521739130435 0.05 0  1.933043478260869 0.05 0  1.9 0.06666666666666667 0  1.883478260869565 0.06666666666666667 0  1.916521739130435 0.06666666666666667 0  1.933043478260869 0.06666666666666667 0  1.949565217391304 0.06666666666666667 0  1.9 0.08333333333333333 0  1.883478260869565 0.08333333333333333 0  1.916521739130435 0.08333333333333333 0  1.933043478260869 0.08333333333333333 0  1.949565217391304 0.08333333333333333 0  1.966086956521739 0.08333333333333333 0  1.9 0.1 0  1.883478260869565 0.1 0  1.916521739130435 0.1 0  1.933043478260869 0.1 0  1.949565217391304 0.1 0  1.966086956521739 0.1 0  1.982608695652174 0.1 0  1.9 0.1166666666666667 0  1.883478260869565 0.1166666666666667 0  1.916521739130435 0.1166666666666667 0  1.933043478260869 0.1166666666666667 0  1.949565217391304 0.1166666666666667 0  1.966086956521739 0.1166666666666667 0  1.982608695652174 0.1166666666666667 0  1.999130434782608 0.1166666666666667 0  1.9 0.1333333333333333 0  1.883478260869565 0.1333333333333333 0  1.916521739130435 0.1333333333333333 0  1.933043478260869 0.1333333333333333 0  1.949565217391304 0.1333333333333333 0  1.966086956521739 0.1333333333333333 0  1.982608695652174 0.1333333333333333 0  1.999130434782608 0.1333333333333333 0  2.015652173913043 0.1166666666666667 0  2.015652173913043 0.1333333333333333 0  2.032173913043478 0.1166666666666667 0  2.032173913043478 0.1333333333333333 0  2.048695652173913 0.1166666666666667 0  2.048695652173913 0.1333333333333333 0  2.065217391304348 0.1166666666666667 0  2.065217391304348 0.1333333333333333 0  2.081739130434782 0.1166666666666667 0  2.081739130434782 0.1333333333333333 0  2.098260869565217 0.1333333333333333 0  1.9 0.15 0  1.883478260869565 0.15 0  1.916521739130435 0.15 0  1.933043478260869 0.15 0  1.949565217391304 0.15 0  1.966086956521739 0.15 0  1.982608695652174 0.15 0  1.999130434782608 0.15 0  2.015652173913043 0.15 0  2.032173913043478 0.15 0  2.048695652173913 0.15 0  2.065217391304348 0.15 0  2.081739130434782 0.15 0  2.098260869565217 0.15 0  2.114782608695652 0.15 0  1.9 0.1666666666666667 0  1.883478260869565 0.1666666666666667 0  1.916521739130435 0.1666666666666667 0  1.933043478260869 0.1666666666666667 0  1.949565217391304 0.1666666666666667 0  1.966086956521739 0.1666666666666667 0  1.982608695652174 0.1666666666666667 0  1.999130434782608 0.1666666666666667 0  2.015652173913043 0.1666666666666667 0  2.032173913043478 0.1666666666666667 0  2.048695652173913 0.1666666666666667 0  2.065217391304348 0.1666666666666667 0  2.081739130434782 0.1666666666666667 0  2.098260869565217 0.1666666666666667 0  2.114782608695652 0.1666666666666667 0  2.131304347826087 0.1666666666666667 0  1.9 0.1833333333333333 0  1.883478260869565 0.1833333333333333 0  1.916521739130435 0.1833333333333333 0  1.933043478260869 0.1833333333333333 0  1.949565217391304 0.1833333333333333 0  1.966086956521739 0.1833333333333333 0  1.982608695652174 0.1833333333333333 0  1.999130434782608 0.1833333333333333 0  2.015652173913043 0.1833333333333333 0  2.032173913043478 0.1833333333333333 0  2.048695652173913 0.1833333333333333 0  2.065217391304348 0.1833333333333333 0  2.081739130434782 0.1833333333333333 0  2.098260869565217 0.1833333333333333 0  2.114782608695652 0.1833333333333333 0  2.131304347826087 0.1833333333333333 0  2.147826086956522 0.1833333333333333 0  1.9 0.2 0  1.883478260869565 0.2 0  1.916521739130435 0.2 0  1.933043478260869 0.2 0  1.949565217391304 0.2 0  1.966086956521739 0.2 0  1.982608695652174 0.2 0  1.999130434782608 0.2 0  2.015652173913043 0.2 0  2.032173913043478 0.2 0  2.048695652173913 0.2 0  2.065217391304348 0.2 0  2.081739130434782 0.2 0  2.098260869565217 0.2 0  2.114782608695652 0.2 0  2.131304347826087 0.2 0  2.147826086956522 0.2 0  2.164347826086956 0.2 0  1.9 0.2166666666666667 0  1.883478260869565 0.2166666666666667 0  1.916521739130435 0.2166666666666667 0  1.933043478260869 0.2166666666666667 0  1.949565217391304 0.2166666666666667 0  1.966086956521739 0.2166666666666667 0  1.982608695652174 0.2166666666666667 0  1.999130434782608 0.2166666666666667 0  2.015652173913043 0.2166666666666667 0  2.032173913043478 0.2166666666666667 0  2.048695652173913 0.2166666666666667 0  2.065217391304348 0.2166666666666667 0  2.081739130434782 0.2166666666666667 0  2.098260869565217 0.2166666666666667 0  2.114782608695652 0.2166666666666667 0  2.131304347826087 0.2166666666666667 0  2.147826086956522 0.2166666666666667 0  2.164347826086956 0.2166666666666667 0  2.180869565217391 0.2166666666666667 0  1.9 0.2333333333333333 0  1.883478260869565 0.2333333333333333 0  1.916521739130435 0.2333333333333333 0  1.933043478260869 0.2333333333333333 0  1.949565217391304 0.2333333333333333 0  1.966086956521739 0.2333333333333333 0  1.982608695652174 0.2333333333333333 0  1.999130434782608 0.2333333333333333 0  2.015652173913043 0.2333333333333333 0  2.032173913043478 0.2333333333333333 0  2.048695652173913 0.2333333333333333 0  2.065217391304348 0.2333333333333333 0  2.081739130434782 0.2333333333333333 0  2.098260869565217 0.2333333333333333 0  2.114782608695652 0.2333333333333333 0  2.131304347826087 0.2333333333333333 0  2.147826086956522 0.2333333333333333 0  2.164347826086956 0.2333333333333333 0  2.180869565217391 0.2333333333333333 0  2.197391304347826 0.2333333333333333 0  1.9 0.25 0  1.916521739130435 0.25 0  1.933043478260869 0.25 0  1.949565217391304 0.25 0  1.966086956521739 0.25 0  1.982608695652174 0.25 0  1.999130434782608 0.25 0  2.015652173913043 0.25 0  2.032173913043478 0.25 0  2.048695652173913 0.25 0  2.065217391304348 0.25 0  2.081739130434782 0.25 0  2.098260869565217 0.25 0  2.114782608695652 0.25 0  2.131304347826087 0.25 0  2.147826086956522 0.25 0  2.164347826086956 0.25 0  2.180869565217391 0.25 0  2.197391304347826 0.25 0  2.213913043478261 0.25 0  1.916521739130435 0.2666666666666667 0  1.9 0.2666666666666667 0  1.933043478260869 0.2666666666666667 0  1.949565217391304 0.2666666666666667 0  1.966086956521739 0.2666666666666667 0  1.982608695652174 0.2666666666666667 0  1.999130434782608 0.2666666666666667 0  2.015652173913043 0.2666666666666667 0  2.032173913043478 0.2666666666666667 0  2.048695652173913 0.2666666666666667 0  2.065217391304348 0.2666666666666667 0  2.081739130434782 0.2666666666666667 0  2.098260869565217 0.2666666666666667 0  2.114782608695652 0.2666666666666667 0  2.131304347826087 0.2666666666666667 0  2.147826086956522 0.2666666666666667 0  2.164347826086956 0.2666666666666667 0  2.180869565217391 0.2666666666666667 0  2.197391304347826 0.2666666666666667 0  2.213913043478261 0.2666666666666667 0  2.230434782608695 0.25 0  2.230434782608695 0.2666666666666667 0  2.24695652173913 0.2666666666666667 0  1.916521739130435 0.2833333333333333 0  1.9 0.2833333333333333 0  1.933043478260869 0.2833333333333333 0  1.949565217391304 0.2833333333333333 0  1.966086956521739 0.2833333333333333 0  1.982608695652174 0.2833333333333333 0  1.999130434782608 0.2833333333333333 0  2.015652173913043 0.2833333333333333 0  2.032173913043478 0.2833333333333333 0  2.048695652173913 0.2833333333333333 0  2.065217391304348 0.2833333333333333 0  2.081739130434782 0.2833333333333333 0  2.098260869565217 0.2833333333333333 0  2.114782608695652 0.2833333333333333 0  2.131304347826087 0.2833333333333333 0  2.147826086956522 0.2833333333333333 0  2.164347826086956 0.2833333333333333 0  2.180869565217391 0.2833333333333333 0  2.197391304347826 0.2833333333333333 0  2.213913043478261 0.2833333333333333 0  2.230434782608695 0.2833333333333333 0  2.24695652173913 0.2833333333333333 0  2.263478260869565 0.2833333333333333 0  1.916521739130435 0.3 0  1.9 0.3 0  1.933043478260869 0.3 0  1.949565217391304 0.3 0  1.966086956521739 0.3 0  1.982608695652174 0.3 0  1.999130434782608 0.3 0  2.015652173913043 0.3 0  2.032173913043478 0.3 0  2.048695652173913 0.3 0  2.065217391304348 0.3 0  2.081739130434782 0.3 0  2.098260869565217 0.3 0  2.114782608695652 0.3 0  2.131304347826087 0.3 0  2.147826086956522 0.3 0  2.164347826086956 0.3 0  2.180869565217391 0.3 0  2.197391304347826 0.3 0  2.213913043478261 0.3 0  2.230434782608695 0.3 0  2.24695652173913 0.3 0  2.263478260869565 0.3 0  2.28 0.3 0  1.916521739130435 0.3166666666666667 0  1.9 0.3166666666666667 0  1.933043478260869 0.3166666666666667 0  1.949565217391304 0.3166666666666667 0  1.966086956521739 0.3166666666666667 0  1.982608695652174 0.3166666666666667 0  1.999130434782608 0.3166666666666667 0  2.015652173913043 0.3166666666666667 0  2.032173913043478 0.3166666666666667 0  2.048695652173913 0.3166666666666667 0  2.065217391304348 0.3166666666666667 0  2.081739130434782 0.3166666666666667 0  2.098260869565217 0.3166666666666667 0  2.114782608695652 0.3166666666666667 0  2.131304347826087 0.3166666666666667 0  2.147826086956522 0.3166666666666667 0  2.164347826086956 0.3166666666666667 0  2.180869565217391 0.3166666666666667 0  2.197391304347826 0.3166666666666667 0  2.213913043478261 0.3166666666666667 0  2.230434782608695 0.3166666666666667 0  2.24695652173913 0.3166666666666667 0  2.263478260869565 0.3166666666666667 0  2.28 0.3166666666666667 0  2.296521739130434 0.3166666666666667 0  1.916521739130435 0.3333333333333333 0  1.9 0.3333333333333333 0  1.933043478260869 0.3333333333333333 0  1.949565217391304 0.3333333333333333 0  1.966086956521739 0.3333333333333333 0  1.982608695652174 0.3333333333333333 0  1.999130434782608 0.3333333333333333 0  2.015652173913043 0.3333333333333333 0  2.032173913043478 0.3333333333333333 0  2.048695652173913 0.3333333333333333 0  2.06521739
[...]
<PointData  Vectors="Displacement"> 
<DataArray  type="Float64"  Name="Displacement"  NumberOfComponents="3" format="ascii">3.6242477767793092e-04 4.9375751388454946e-03 0.0000000000000000e+00  3.6438827777061456e-04 5.0047462309124819e-03 0.0000000000000000e+00  3.0008156308844518e-04 5.0039900561655009e-03 0.0000000000000000e+00  2.9634110041627267e-04 4.9367082315325047e-03 0.0000000000000000e+00  3.0353391652134860e-04 5.0683997035507944e-03 0.0000000000000000e+00  2.3261000851168957e-04 5.0026494164119081e-03 0.0000000000000000e+00  2.3251647341766037e-04 4.9210173823705248e-03 0.0000000000000000e+00  2.4414459325259187e-04 5.0677765311226801e-03 0.0000000000000000e+00  2.4729498682500399e-04 5.1295598392130616e-03 0.0000000000000000e+00  1.8875585533031615e-04 4.9827965644491136e-03 0.0000000000000000e+00  1.8404037694781509e-04 4.9044617164856856e-03 0.0000000000000000e+00  1.9313995190373343e-04 5.0527686368538934e-03 0.0000000000000000e+00  1.9265446662554799e-04 5.1271590367875704e-03 0.0000000000000000e+00  1.9204113917174444e-04 5.1895131045263578e-03 0.0000000000000000e+00  1.4568847139644485e-04 4.9639361181431666e-03 0.0000000000000000e+00  1.3983425146232885e-04 4.8872920820838828e-03 0.0000000000000000e+00  1.5099146255392740e-04 5.0374249641813047e-03 0.0000000000000000e+00  1.5416694721056651e-04 5.1128990828661503e-03 0.0000000000000000e+00  1.5517792959126905e-04 5.1854787231200086e-03 0.0000000000000000e+00  1.4326822739182195e-04 5.2522831714569744e-03 0.0000000000000000e+00  1.0408594280509038e-04 4.9457764099554730e-03 0.0000000000000000e+00  9.8021225169426401e-05 4.8700196749083859e-03 0.0000000000000000e+00  1.0936783374659334e-04 5.0211654055348654e-03 0.0000000000000000e+00  1.1233727042400073e-04 5.0990531851680745e-03 0.0000000000000000e+00  1.1139465202505728e-04 5.1804539969196413e-03 0.0000000000000000e+00  1.0668287553535828e-04 5.2831444164317043e-03 0.0000000000000000e+00  1.0389408233066004e-04 5.3108083866280588e-03 0.0000000000000000e+00  6.5254293032168296e-05 4.9273040121392952e-03 0.0000000000000000e+00  5.8704030590848952e-05 4.8525406885083326e-03 0.0000000000000000e+00  7.1631683107693111e-05 5.0031878903287258e-03 0.0000000000000000e+00  7.7204422199354594e-05 5.0823086276601493e-03 0.0000000000000000e+00  8.1539325249909667e-05 5.1664760549550055e-03 0.0000000000000000e+00  8.3836131638249903e-05 5.2578699047505237e-03 0.0000000000000000e+00  7.9340594765437119e-05 5.3182308086170268e-03 0.0000000000000000e+00  7.8043526779317769e-05 5.3421105522808536e-03 0.0000000000000000e+00  2.8813180627726328e-05 4.9078590726443000e-03 0.0000000000000000e+00  2.1674669303805053e-05 4.8346212767218623e-03 0.0000000000000000e+00  3.6465645927288169e-05 4.9828732720570857e-03 0.0000000000000000e+00  4.4620843162110291e-05 5.0613734370626232e-03 0.0000000000000000e+00  5.3717019674183514e-05 5.1455172757004517e-03 0.0000000000000000e+00  6.4204115979754199e-05 5.2382973968111840e-03 0.0000000000000000e+00  6.6836758300600773e-05 5.3273891557194149e-03 0.0000000000000000e+00  6.5860366810574234e-05 5.3424622784319581e-03 0.0000000000000000e+00  7.9010918303747514e-05 5.3539385725983818e-03 0.0000000000000000e+00  6.6149820366745801e-05 5.3505139432420837e-03 0.0000000000000000e+00  8.6947601796137248e-05 5.3860924241462653e-03 0.0000000000000000e+00  6.5800126018459651e-05 5.3533150524290715e-03 0.0000000000000000e+00  9.3354362965741096e-05 5.4225716375488203e-03 0.0000000000000000e+00  7.3144130348066125e-05 5.3887073844779074e-03 0.0000000000000000e+00  9.9514505626473954e-05 5.4630129251492807e-03 0.0000000000000000e+00  7.9621530327999128e-05 5.4254494937008560e-03 0.0000000000000000e+00  1.0611554668145074e-04 5.5090152574529937e-03 0.0000000000000000e+00  8.6877613466259551e-05 5.4665013525887450e-03 0.0000000000000000e+00  9.5668969284451563e-05 5.5138434979076509e-03 0.0000000000000000e+00  -5.8128568244913917e-06 4.8873480948959771e-03 0.0000000000000000e+00  -1.3371243046315839e-05 4.8161659979368649e-03 0.0000000000000000e+00  2.6241507297470717e-06 4.9605157165719038e-03 0.0000000000000000e+00  1.2052032807564461e-05 5.0370374250747136e-03 0.0000000000000000e+00  2.2968860602395124e-05 5.1189322481637592e-03 0.0000000000000000e+00  3.6691047976483299e-05 5.2104382645132294e-03 0.0000000000000000e+00  5.9587555853965758e-05 5.3298446465135860e-03 0.0000000000000000e+00  6.0821424208285611e-05 5.3439202567815269e-03 0.0000000000000000e+00  6.1238246696377762e-05 5.3500538991446992e-03 0.0000000000000000e+00  6.1499138465381524e-05 5.3528960458536197e-03 0.0000000000000000e+00  6.1527216200006122e-05 5.3544100777921638e-03 0.0000000000000000e+00  6.6986609493402795e-05 5.3862856162341446e-03 0.0000000000000000e+00  7.4316708525655936e-05 5.4214251679972096e-03 0.0000000000000000e+00  8.3698942459004458e-05 5.4623911882884556e-03 0.0000000000000000e+00  9.5730588456412077e-05 5.5100468642050983e-03 0.0000000000000000e+00  -3.8519581454857517e-05 4.8658121923325550e-03 0.0000000000000000e+00  -4.6451515359277646e-05 4.7971270656586712e-03 0.0000000000000000e+00  -2.9464773642717066e-05 4.9364529346538942e-03 0.0000000000000000e+00  -1.9146477482438712e-05 5.0100646124221302e-03 0.0000000000000000e+00  -7.1020663766519309e-06 5.0880519809693592e-03 0.0000000000000000e+00  7.8367526819067418e-06 5.1726194401122529e-03 0.0000000000000000e+00  2.8834938438504980e-05 5.2668055121073637e-03 0.0000000000000000e+00  5.8601586464640411e-05 5.3448055249505000e-03 0.0000000000000000e+00  5.9450711197786557e-05 5.3504250334577043e-03 0.0000000000000000e+00  6.0416179603423217e-05 5.3527903029965346e-03 0.0000000000000000e+00  6.0737567418900899e-05 5.3522245871065553e-03 0.0000000000000000e+00  6.0766486981617792e-05 5.3462775908992245e-03 0.0000000000000000e+00  6.8313905095336428e-05 5.3742013486611697e-03 0.0000000000000000e+00  7.8103239113202932e-05 5.4083037480906308e-03 0.0000000000000000e+00  9.0601220729671068e-05 5.4479310912755249e-03 0.0000000000000000e+00  1.0793347210907210e-04 5.4934803533755808e-03 0.0000000000000000e+00  -6.9073180699264099e-05 4.8432333757186139e-03 0.0000000000000000e+00  -7.7488506275762213e-05 4.7774316056615916e-03 0.0000000000000000e+00  -5.9270214628321368e-05 4.9108139498732304e-03 0.0000000000000000e+00  -4.7890010468449435e-05 4.9808385622517777e-03 0.0000000000000000e+00  -3.4465549242069627e-05 5.0540471728241308e-03 0.0000000000000000e+00  -1.8026630941575722e-05 5.1310366598265426e-03 0.0000000000000000e+00  3.2007135248127451e-06 5.2107905768731177e-03 0.0000000000000000e+00  3.0374781215767339e-05 5.2822962230495239e-03 0.0000000000000000e+00  6.1738852919273062e-05 5.3512961509330432e-03 0.0000000000000000e+00  6.2777728647655246e-05 5.3527579965334682e-03 0.0000000000000000e+00  6.5016422279486947e-05 5.3526148333288602e-03 0.0000000000000000e+00  6.7444208482906747e-05 5.3430343644238426e-03 0.0000000000000000e+00  6.8746405241767181e-05 5.3242968286411202e-03 0.0000000000000000e+00  8.0030867546385863e-05 5.3523859627868080e-03 0.0000000000000000e+00  9.1963365087935754e-05 5.3831451733939578e-03 0.0000000000000000e+00  1.1077117959568518e-04 5.4155726264826596e-03 0.0000000000000000e+00  1.3222012035647869e-04 5.4708020239293571e-03 0.0000000000000000e+00  -9.7465626711733740e-05 4.8195809054877815e-03 0.0000000000000000e+00  -1.0650441225100521e-04 4.7570051790283337e-03 0.0000000000000000e+00  -8.6752996859307529e-05 4.8836764044431560e-03 0.0000000000000000e+00  -7.4137207078317261e-05 4.9496562280331750e-03 0.0000000000000000e+00  -5.9178332041685761e-05 5.0177565960383818e-03 0.0000000000000000e+00  -4.1147468922860642e-05 5.0877318707975294e-03 0.0000000000000000e+00  -1.9095931533007391e-05 5.1577970124969752e-03 0.0000000000000000e+00  7.2243489167667414e-06 5.2223596130208270e-03 0.0000000000000000e+00  3.6057567224578021e-05 5.2800717852348258e-03 0.0000000000000000e+00  6.3023179846951035e-05 5.3124835284851565e-03 0.0000000000000000e+00  8.3127793512016598e-05 5.3532201744003706e-03 0.0000000000000000e+00  8.8270227761360140e-05 5.3437538380802767e-03 0.0000000000000000e+00  9.2972504607398472e-05 5.3255199117003653e-03 0.0000000000000000e+00  9.5354330048739555e-05 5.2966671244137325e-03 0.0000000000000000e+00  1.0248481555197158e-04 5.3180943325654472e-03 0.0000000000000000e+00  1.2095241713108601e-04 5.3293829622840334e-03 0.0000000000000000e+00  1.4244237637543316e-04 5.3823868467233723e-03 0.0000000000000000e+00  1.6343548198288613e-04 5.4497889619750210e-03 0.0000000000000000e+00  -1.2389968331834878e-04 4.7948684448028403e-03 0.0000000000000000e+00  -1.3365003835069623e-04 4.7358106258761391e-03 0.0000000000000000e+00  -1.1219492437141298e-04 4.8551557535648640e-03 0.0000000000000000e+00  -9.8280400110396909e-05 4.9168083349219478e-03 0.0000000000000000e+00  -8.1746698759995246e-05 4.9797434141826457e-03 0.0000000000000000e+00  -6.2020106478523324e-05 5.0433650729945663e-03 0.0000000000000000e+00  -3.8485613433694345e-05 5.1060006934618568e-03 0.0000000000000000e+00  -1.0966408523785766e-05 5.1643977754319195e-03 0.0000000000000000e+00  1.9795555289461103e-05 5.2164754760002452e-03 0.0000000000000000e+00  5.2264249628551370e-05 5.2564335320208107e-03 0.0000000000000000e+00  8.4481912107697848e-05 5.2981016142303371e-03 0.0000000000000000e+00  1.2438443731051498e-04 5.3472499998221488e-03 0.0000000000000000e+00  1.2831904454944324e-04 5.3262602220025051e-03 0.0000000000000000e+00  1.3222968614019003e-04 5.2979495930348388e-03 0.0000000000000000e+00  1.3438173530576453e-04 5.2640893819049560e-03 0.0000000000000000e+00  1.3524970674501163e-04 5.2288734297802359e-03 0.0000000000000000e+00  1.5737507614686907e-04 5.2897356660642205e-03 0.0000000000000000e+00  1.7632250380569367e-04 5.3561661065713462e-03 0.0000000000000000e+00  1.9571871827992973e-04 5.4315241612805827e-03 0.0000000000000000e+00  -1.4871506372407433e-04 4.7691819603715210e-03 0.0000000000000000e+00  -1.5917070290875028e-04 4.7138712106063914e-03 0.0000000000000000e+00  -1.3606755275044415e-04 4.8254410441498268e-03 0.0000000000000000e+00  -1.2097283543527298e-04 4.8826302578256226e-03 0.0000000000000000e+00  -1.0307557795951145e-04 4.9404973010075334e-03 0.0000000000000000e+00  -8.1945801623245989e-05 4.9983593872586444e-03 0.0000000000000000e+00  -5.7200112026824064e-05 5.0548500654028408e-03 0.0000000000000000e+00  -2.8781037271260010e-05 5.1079131045520297e-03 0.0000000000000000e+00  2.8007723088528566e-06 5.1559424542310748e-03 0.0000000000000000e+00  3.6525820346531909e-05 5.1970887920028156e-03 0.0000000000000000e+00  7.1325242490749078e-05 5.2369454804882523e-03 0.0000000000000000e+00  1.0951228190092078e-04 5.2763400830006506e-03 0.0000000000000000e+00  1.5274691356390206e-04 5.3070763108317787e-03 0.0000000000000000e+00  1.7076152070442461e-04 5.2983824624575852e-03 0.0000000000000000e+00  1.7261065685992208e-04 5.2642436106474129e-03 0.0000000000000000e+00  1.7387792367696750e-04 5.2294231523650932e-03 0.0000000000000000e+00  1.7491034531441553e-04 5.1955822931572682e-03 0.0000000000000000e+00  1.9204166683530036e-04 5.2611966046018695e-03 0.0000000000000000e+00  2.0842476582113591e-04 5.3333361364746746e-03 0.0000000000000000e+00  2.2952633397148675e-04 5.4086269386774350e-03 0.0000000000000000e+00  -1.7227902056941993e-04 4.7426735133431408e-03 0.0000000000000000e+00  -1.5885006764045946e-04 4.7947798762801386e-03 0.0000000000000000e+00  -1.4282170659554060e-04 4.8474839749857723e-03 0.0000000000000000e+00  -1.2390698259140913e-04 4.9004692414812588e-03 0.0000000000000000e+00  -1.0180445574618609e-04 4.9530953665052561e-03 0.0000000000000000e+00  -7.6297919056044828e-05 5.0043083382736850e-03 0.0000000000000000e+00  -4.7421693868369024e-05 5.0527544668015276e-03 0.0000000000000000e+00  -1.5577120906278594e-05 5.0973474381348438e-03 0.0000000000000000e+00  1.8545771391281292e-05 5.1374211465655024e-03 0.0000000000000000e+00  5.4362282892210185e-05 5.1750688441694103e-03 0.0000000000000000e+00  9.2585289019704039e-05 5.2097987082216531e-03 0.0000000000000000e+00  1.3331117870779224e-04 5.2370271111450281e-03 0.0000000000000000e+00  1.7287839881623701e-04 5.2495105696776755e-03 0.0000000000000000e+00  2.1025729914158432e-04 5.2646024234950500e-03 0.0000000000000000e+00  2.1104812812754918e-04 5.2295807762941697e-03 0.0000000000000000e+00  2.1205140479663354e-04 5.1961452321512740e-03 0.0000000000000000e+00  2.1368643605317497e-04 5.1664543319965076e-03 0.0000000000000000e+00  2.2457682171237695e-04 5.2357615656676232e-03 0.0000000000000000e+00  2.4365975952036803e-04 5.2965137969624024e-03 0.0000000000000000e+00  2.6351534784758036e-04 5.3945924914027580e-03 0.0000000000000000e+00  -1.8093422690639312e-04 4.7634433717556367e-03 0.0000000000000000e+00  -1.9491190197290352e-04 4.7155373654103249e-03 0.0000000000000000e+00  -1.6428139450722244e-04 4.8117163575121793e-03 0.0000000000000000e+00  -1.4473365475733060e-04 4.8600411010437201e-03 0.0000000000000000e+00  -1.2209079079646544e-04 4.9078727994033731e-03 0.0000000000000000e+00  -9.6244325388680066e-05 4.9544214547361269e-03 0.0000000000000000e+00  -6.7269176401675123e-05 4.9987695350274391e-03 0.0000000000000000e+00  -3.5464819444959565e-05 5.0401790718374940e-03 0.0000000000000000e+00  -1.2648733442887049e-06 5.0782848941388140e-03 0.0000000000000000e+00  3.5035208910372338e-05 5.1136952706150457e-03 0.0000000000000000e+00  7.3706870852837232e-05 5.1456942377950312e-03 0.0000000000000000e+00  1.1475564905902775e-04 5.1719428805453126e-03 0.0000000000000000e+00  1.5701534157828000e-04 5.1905703404653090e-03 0.0000000000000000e+00  1.9958892301807980e-04 5.2088480525204579e-03 0.0000000000000000e+00  2.4591372753698335e-04 5.2298069796121553e-03 0.0000000000000000e+00  2.4617600393990040e-04 5.1962966501373237e-03 0.0000000000000000e+00  2.4724602704887666e-04 5.1669641255684025e-03 0.0000000000000000e+00  2.5062546150529040e-04 5.1466550109548065e-03 0.0000000000000000e+00  2.6145628353674755e-04 5.1742924785371860e-03 0.0000000000000000e+00  2.7552968101534307e-04 5.2809070510227672e-03 0.0000000000000000e+00  2.8098152413294297e-04 5.5099501759670998e-03 0.0000000000000000e+00  2.8622648691254028e-04 5.4018811154681167e-03 0.0000000000000000e+00  2.9729372929827174e-04 5.5280717090666820e-03 0.0000000000000000e+00  -2.0259928554154459e-04 4.7316999655606044e-03 0.0000000000000000e+00  -2.1685389726858382e-04 4.6879867754162927e-03 0.0000000000000000e+00  -1.8565503426350510e-04 4.7756385666216060e-03 0.0000000000000000e+00  -1.6585962960624599e-04 4.8195256208619667e-03 0.0000000000000000e+00  -1.4308827985258312e-04 4.8629264740463933e-03 0.0000000000000000e+00  -1.1730170008082001e-04 4.9052604184658061e-03 0.0000000000000000e+00  -8.8593927363024341e-05 4.9458902886643100e-03 0.0000000000000000e+00  -5.7198339304661472e-05 4.9842897714334677e-03 0.0000000000000000e+00  -2.3413789038997623e-05 5.0201545774338878e-03 0.0000000000000000e+00  1.2549710764225849e-05 5.0534966021007800e-03 0.0000000000000000e+00  5.0702188103613350e-05 5.0836922541670328e-03 0.0000000000000000e+00  9.0878407524655317e-05 5.1095809982592980e-03 0.0000000000000000e+00  1.3244473365994080e-04 5.1308295258264839e-03 0.0000000000000000e+00  1.7506814980662342e-04 5.1507076625756923e-03 0.0000000000000000e+00  2.2058676341175500e-04 5.1709350623236035e-03 0.0000000000000000e+00  2.7343996320775140e-04 5.1956900712889177e-03 0.0000000000000000e+00  2.7342660867938880e-04 5.1674737590516780e-03 0.0000000000000000e+00  2.7402649829822063e-04 5.1466964849895720e-03 0.0000000000000000e+00  2.7701128550115843e-04 5.1502320327930290e-03 0.0000000000000000e+00  2.7991930619224712e-04 5.1662427080259258e-03 0.0000000000000000e+00  2.8472240477556441e-04 5.2965403737549139e-03 0.0000000000000000e+00  2.8912304517295198e-04 5.4227313810194131e-03 0.0000000000000000e+00  3.0344472068994109e-04 5.5441202879592810e-03 0.0000000000000000e+00  -2.2401340621035543e-04 4.6998023519100275e-03 0.0000000000000000e+00  -2.3825472776532137e-04 4.6602381689284473e-03 0.0000000000000000e+00  -2.0711544054824324e-04 4.7395230440414682e-03 0.0000000000000000e+00  -1.8744657282056279e-04 4.7791810259421308e-03 0.0000000000000000e+00  -1.6493820587100438e-04 4.8184512427141809e-03 0.0000000000000000e+00  -1.3960025596527640e-04 4.8569195023605901e-03 0.0000000000000000e+00  -1.1154572914491253e-04 4.8941411139659377e-03 0.0000000000000000e+00  -8.0985053410198733e-05 4.9297292720519130e-03 0.0000000000000000e+00  -4.8177241377571132e-05 4.9634069020544642e-03 0.0000000000000000e+00  -1.3356460549421173e-05 4.9949905156140865e-03 0.0000000000000000e+00  2.3284228768356780e-05 5.0240298032429125e-03 0.0000000000000000e+00  6.1381983152513137e-05 5.0499898245077576e-03 0.0000000000000000e+00  1.0027648564624170e-04 5.0729930077072346e-03 0.0000000000000000e+00  1.3930866826790609e-04 5.0946311728851104e-03 0.0000000000000000e+00  1.7826922839007516e-04 5.1156991540028838e-03 0.0000000000000000e+00  2.1648667803837078e-04 5.1359027498979861e-03 0.0000000000000000e+00  2.4893634724178616e-04 5.1412367148495168e-03 0.0000000000000000e+00  2.7352794481892489e-04 5.1475537982182780e-03 0.0000000000000000e+00  2.7298752644564877e-04 5.1506470543158699e-03 0.0000000000000000e+00  2.7457029706681925e-04 5.1687485529197550e-03 0.0000000000000000e+00  2.7787265371631093e-04 5.1979612854668109e-03 0.0000000000000000e+00  2.7218186447160479e-04 5.3213887378906052e-03 0.0000000000000000e+00  2.8613222499350048e-04 5.4214373988988561e-03 0.0000000000000000e+00  3.0252366169258160e-04 5.5816233712960113e-03 0.0000000000000000e+00  -2.4524148038076912e-04 4.6679830303618689e-03 0.0000000000000000e+00  -2.5917298767828156e-04 4.6325023736604274e-03 0.0000000000000000e+00  -2.2872271111493370e-04 4.7036069202778591e-03 0.0000000000000000e+00  -2.0953830275296614e-04 4.7392228516746305e-03 0.0000000000000000e+00  -1.8766135276683846e-04 4.7746115422152907e-03 0.0000000000000000e+00  -1.6314009588486652e-04 4.8094979011440260e-03 0.0000000000000000e+00  -1.3611071470771816e-04 4.8435831154192499e-03 0.0000000000000000e+00  -1.0678795430391288e-04 4.8765873053776597e-03 0.0000000000000000e+00  -7.5432617800911305e-05 4.9082723542421564e-03 0.0000000000000000e+00  -4.2316155561153998e-05 4.9384248252091478e-03 0.0000000000000000e+00  -7.7318364059949055e-06 4.9667508330952506e-03 0.0000000000000000e+00  2.7901309297818188e-05 4.9930402644470205e-03 0.0000000000000000e+00  6.4003860494265229e-05 5.0175342160577001e-03 0.0000000000000000e+00  1.0000633799668856e-04 5.0410992963218137e-03 0.0000000000000000e+00  1.3555121779243275e-04 5.0641629922290538e-03 0.0000000000000000e+00  1.7017494435584297e-04 5.0861805081136502e-03 0.0000000000000000e+00  2.0236552171050545e-04 5.1029364261782400e-03 0.0000000000000000e+00  2.2939983933828649e-04 5.1214848336044285e-03 0.0000000000000000e+00  2.5325434180424779e-04 5.1503977606713871e-03 0.0000000000000000e+00  2.5294617548470195e-04 5.1689821553876731e-03 0.0000000000000000e+00  2.5371722757385612e-04 5.1982747158557377e-03 0.0000000000000000e+00  2.5592025950103657e-04 5.2357758100730579e-03 0.0000000000000000e+00  2.5752893528543193e-04 5.2779213547075573e-03 0.0000000000000000e+00  2.7528199871689206e-04 5.4633183588827221e-03 0.0000000000000000e+00  2.8058061819588760e-04 5.6659412838087802e-03 0.0000000000000000e+00  -2.6625393302854092e-04 4.6364548870914306e-03 0.0000000000000000e+00  -2.7957902534498828e-04 4.6049811467649276e-03 0.0000000000000000e+00  -2.5043903469080967e-04 4.6680974541327917e-03 0.0000000000000000e+00  -2.3207973662285689e-04 4.6998318213892255e-03 0.0000000000000000e+00  -2.1117823355467350e-04 4.7315428042430949e-03 0.0000000000000000e+00  -1.8781353343804471e-04 4.7630808731689758e-03 0.0000000000000000e+00  -1.6214821148444986e-04 4.7942707779440475e-03 0.0000000000000000e+00  -1.3441537128911849e-04 4.8249241627639633e-03 0.0000000000000000e+00  -1.0489031804483905e-04 4.8548487956412778e-0