<?xml version="1.0"?>
<VTKFile type="UnstructuredGrid"  version="0.1"  >
<UnstructuredGrid>
<Piece  NumberOfPoints="640" NumberOfCells="1181">
<Points>
<DataArray  type="Float64"  NumberOfComponents="3"  format="ascii">2.973913043478261 0 0  2.990434782608696 0 0  2.990434782608696 0.01666666666666667 0  2.973913043478261 0.01666666666666667 0  3.006956521739131 0 0  3.006956521739131 0.01666666666666667 0  3.023478260869565 0 0  3.023478260869565 0.01666666666666667 0  3.04 0 0  3.04 0.01666666666666667 0  3.056521739130435 0 0  3.056521739130435 0.01666666666666667 0  3.073043478260869 0 0  3.073043478260869 0.01666666666666667 0  3.089565217391304 0 0  3.089565217391304 0.01666666666666667 0  3.106086956521739 0 0  3.106086956521739 0.01666666666666667 0  3.122608695652174 0 0  3.122608695652174 0.01666666666666667 0  3.139130434782609 0 0  3.139130434782609 0.01666666666666667 0  3.155652173913043 0 0  3.155652173913043 0.01666666666666667 0  3.172173913043478 0 0  3.172173913043478 0.01666666666666667 0  3.188695652173913 0 0  3.188695652173913 0.01666666666666667 0  3.205217391304347 0 0  3.205217391304347 0.01666666666666667 0  3.221739130434782 0 0  3.221739130434782 0.01666666666666667 0  3.238260869565217 0 0  3.238260869565217 0.01666666666666667 0  2.990434782608696 0.03333333333333333 0  2.973913043478261 0.03333333333333333 0  3.006956521739131 0.03333333333333333 0  3.023478260869565 0.03333333333333333 0  3.04 0.03333333333333333 0  3.056521739130435 0.03333333333333333 0  3.073043478260869 0.03333333333333333 0  3.089565217391304 0.03333333333333333 0  3.106086956521739 0.03333333333333333 0  3.122608695652174 0.03333333333333333 0  3.139130434782609 0.03333333333333333 0  3.155652173913043 0.03333333333333333 0  3.172173913043478 0.03333333333333333 0  3.188695652173913 0.03333333333333333 0  3.205217391304347 0.03333333333333333 0  3.221739130434782 0.03333333333333333 0  3.238260869565217 0.03333333333333333 0  3.254782608695652 0.03333333333333333 0  2.990434782608696 0.05 0  3.006956521739131 0.05 0  3.023478260869565 0.05 0  3.04 0.05 0  3.056521739130435 0.05 0  3.073043478260869 0.05 0  3.089565217391304 0.05 0  3.106086956521739 0.05 0  3.122608695652174 0.05 0  3.139130434782609 0.05 0  3.155652173913043 0.05 0  3.172173913043478 0.05 0  3.188695652173913 0.05 0  3.205217391304347 0.05 0  3.221739130434782 0.05 0  3.238260869565217 0.05 0  3.254782608695652 0.05 0  3.271304347826087 0.05 0  3.006956521739131 0.06666666666666667 0  2.990434782608696 0.06666666666666667 0  3.023478260869565 0.06666666666666667 0  3.04 0.06666666666666667 0  3.056521739130435 0.06666666666666667 0  3.073043478260869 0.06666666666666667 0  3.089565217391304 0.06666666666666667 0  3.106086956521739 0.06666666666666667 0  3.122608695652174 0.06666666666666667 0  3.139130434782609 0.06666666666666667 0  3.155652173913043 0.06666666666666667 0  3.172173913043478 0.06666666666666667 0  3.188695652173913 0.06666666666666667 0  3.205217391304347 0.06666666666666667 0  3.221739130434782 0.06666666666666667 0  3.238260869565217 0.06666666666666667 0  3.254782608695652 0.06666666666666667 0  3.271304347826087 0.06666666666666667 0  3.287826086956521 0.06666666666666667 0  3.006956521739131 0.08333333333333333 0  3.023478260869565 0.08333333333333333 0  3.04 0.08333333333333333 0  3.056521739130435 0.08333333333333333 0  3.073043478260869 0.08333333333333333 0  3.089565217391304 0.08333333333333333 0  3.106086956521739 0.08333333333333333 0  3.122608695652174 0.08333333333333333 0  3.139130434782609 0.08333333333333333 0  3.155652173913043 0.08333333333333333 0  3.172173913043478 0.08333333333333333 0  3.188695652173913 0.08333333333333333 0  3.205217391304347 0.08333333333333333 0  3.221739130434782 0.08333333333333333 0  3.238260869565217 0.08333333333333333 0  3.254782608695652 0.08333333333333333 0  3.271304347826087 0.08333333333333333 0  3.287826086956521 0.08333333333333333 0  3.304347826086957 0.08333333333333333 0  3.023478260869565 0.1 0  3.006956521739131 0.1 0  3.04 0.1 0  3.056521739130435 0.1 0  3.073043478260869 0.1 0  3.089565217391304 0.1 0  3.106086956521739 0.1 0  3.122608695652174 0.1 0  3.139130434782609 0.1 0  3.155652173913043 0.1 0  3.172173913043478 0.1 0  3.188695652173913 0.1 0  3.205217391304347 0.1 0  3.221739130434782 0.1 0  3.238260869565217 0.1 0  3.254782608695652 0.1 0  3.271304347826087 0.1 0  3.287826086956521 0.1 0  3.304347826086957 0.1 0  3.320869565217391 0.1 0  3.023478260869565 0.1166666666666667 0  3.04 0.1166666666666667 0  3.056521739130435 0.1166666666666667 0  3.073043478260869 0.1166666666666667 0  3.089565217391304 0.1166666666666667 0  3.106086956521739 0.1166666666666667 0  3.122608695652174 0.1166666666666667 0  3.139130434782609 0.1166666666666667 0  3.155652173913043 0.1166666666666667 0  3.172173913043478 0.1166666666666667 0  3.188695652173913 0.1166666666666667 0  3.205217391304347 0.1166666666666667 0  3.221739130434782 0.1166666666666667 0  3.238260869565217 0.1166666666666667 0  3.254782608695652 0.1166666666666667 0  3.271304347826087 0.1166666666666667 0  3.287826086956521 0.1166666666666667 0  3.304347826086957 0.1166666666666667 0  3.320869565217391 0.1166666666666667 0  3.337391304347826 0.1166666666666667 0  3.04 0.1333333333333333 0  3.023478260869565 0.1333333333333333 0  3.056521739130435 0.1333333333333333 0  3.073043478260869 0.1333333333333333 0  3.089565217391304 0.1333333333333333 0  3.106086956521739 0.1333333333333333 0  3.122608695652174 0.1333333333333333 0  3.139130434782609 0.1333333333333333 0  3.155652173913043 0.1333333333333333 0  3.172173913043478 0.1333333333333333 0  3.188695652173913 0.1333333333333333 0  3.205217391304347 0.1333333333333333 0  3.221739130434782 0.1333333333333333 0  3.238260869565217 0.1333333333333333 0  3.254782608695652 0.1333333333333333 0  3.271304347826087 0.1333333333333333 0  3.287826086956521 0.1333333333333333 0  3.304347826086957 0.1333333333333333 0  3.320869565217391 0.1333333333333333 0  3.337391304347826 0.1333333333333333 0  3.353913043478261 0.1333333333333333 0  3.04 0.15 0  3.056521739130435 0.15 0  3.073043478260869 0.15 0  3.089565217391304 0.15 0  3.106086956521739 0.15 0  3.122608695652174 0.15 0  3.139130434782609 0.15 0  3.155652173913043 0.15 0  3.172173913043478 0.15 0  3.188695652173913 0.15 0  3.205217391304347 0.15 0  3.221739130434782 0.15 0  3.238260869565217 0.15 0  3.254782608695652 0.15 0  3.271304347826087 0.15 0  3.287826086956521 0.15 0  3.304347826086957 0.15 0  3.320869565217391 0.15 0  3.337391304347826 0.15 0  3.353913043478261 0.15 0  3.370434782608696 0.15 0  3.056521739130435 0.1666666666666667 0  3.073043478260869 0.1666666666666667 0  3.089565217391304 0.1666666666666667 0  3.106086956521739 0.1666666666666667 0  3.122608695652174 0.1666666666666667 0  3.139130434782609 0.1666666666666667 0  3.155652173913043 0.1666666666666667 0  3.172173913043478 0.1666666666666667 0  3.188695652173913 0.1666666666666667 0  3.205217391304347 0.1666666666666667 0  3.221739130434782 0.1666666666666667 0  3.238260869565217 0.1666666666666667 0  3.254782608695652 0.1666666666666667 0  3.271304347826087 0.1666666666666667 0  3.287826086956521 0.1666666666666667 0  3.304347826086957 0.1666666666666667 0  3.320869565217391 0.1666666666666667 0  3.337391304347826 0.1666666666666667 0  3.353913043478261 0.1666666666666667 0  3.370434782608696 0.1666666666666667 0  3.386956521739131 0.1666666666666667 0  3.073043478260869 0.1833333333333333 0  3.089565217391304 0.1833333333333333 0  3.106086956521739 0.1833333333333333 0  3.122608695652174 0.1833333333333333 0  3.139130434782609 0.1833333333333333 0  3.155652173913043 0.1833333333333333 0  3.172173913043478 0.1833333333333333 0  3.188695652173913 0.1833333333333333 0  3.205217391304347 0.1833333333333333 0  3.221739130434782 0.1833333333333333 0  3.238260869565217 0.1833333333333333 0  3.254782608695652 0.1833333333333333 0  3.271304347826087 0.1833333333333333 0  3.287826086956521 0.1833333333333333 0  3.304347826086957 0.1833333333333333 0  3.320869565217391 0.1833333333333333 0  3.337391304347826 0.1833333333333333 0  3.353913043478261 0.1833333333333333 0  3.370434782608696 0.1833333333333333 0  3.386956521739131 0.1833333333333333 0  3.403478260869565 0.1833333333333333 0  3.089565217391304 0.2 0  3.106086956521739 0.2 0  3.122608695652174 0.2 0  3.139130434782609 0.2 0  3.155652173913043 0.2 0  3.172173913043478 0.2 0  3.188695652173913 0.2 0  3.205217391304347 0.2 0  3.221739130434782 0.2 0  3.238260869565217 0.2 0  3.254782608695652 0.2 0  3.271304347826087 0.2 0  3.287826086956521 0.2 0  3.304347826086957 0.2 0  3.320869565217391 0.2 0  3.337391304347826 0.2 0  3.353913043478261 0.2 0  3.370434782608696 0.2 0  3.386956521739131 0.2 0  3.403478260869565 0.2 0  3.419999999999999 0.2 0  3.106086956521739 0.2166666666666667 0  3.122608695652174 0.2166666666666667 0  3.139130434782609 0.2166666666666667 0  3.155652173913043 0.2166666666666667 0  3.172173913043478 0.2166666666666667 0  3.188695652173913 0.2166666666666667 0  3.205217391304347 0.2166666666666667 0  3.221739130434782 0.2166666666666667 0  3.238260869565217 0.2166666666666667 0  3.254782608695652 0.2166666666666667 0  3.271304347826087 0.2166666666666667 0  3.287826086956521 0.2166666666666667 0  3.304347826086957 0.2166666666666667 0  3.320869565217391 0.2166666666666667 0  3.337391304347826 0.2166666666666667 0  3.353913043478261 0.2166666666666667 0  3.370434782608696 0.2166666666666667 0  3.386956521739131 0.2166666666666667 0  3.403478260869565 0.2166666666666667 0  3.419999999999999 0.2166666666666667 0  3.436521739130435 0.2166666666666667 0  3.122608695652174 0.2333333333333333 0  3.139130434782609 0.2333333333333333 0  3.155652173913043 0.2333333333333333 0  3.172173913043478 0.2333333333333333 0  3.188695652173913 0.2333333333333333 0  3.205217391304347 0.2333333333333333 0  3.221739130434782 0.2333333333333333 0  3.238260869565217 0.2333333333333333 0  3.254782
[...]
<PointData  Vectors="Displacement"> 
<DataArray  type="Float64"  Name="Displacement"  NumberOfComponents="3" format="ascii">3.0941464985418272e-04 4.3258605058871247e-03 0.0000000000000000e+00  3.0967938581652515e-04 4.3447970370961682e-03 0.0000000000000000e+00  2.9089255882801794e-04 4.3446070790267421e-03 0.0000000000000000e+00  2.8962837921402504e-04 4.3256500847175024e-03 0.0000000000000000e+00  3.1004280225146351e-04 4.3628134896136171e-03 0.0000000000000000e+00  2.9197815921911665e-04 4.3626219146351338e-03 0.0000000000000000e+00  3.1050261431429717e-04 4.3803101573345691e-03 0.0000000000000000e+00  2.9286475046774545e-04 4.3801244893742573e-03 0.0000000000000000e+00  3.1105370975094990e-04 4.3975210798641749e-03 0.0000000000000000e+00  2.9361294630545479e-04 4.3973286182340679e-03 0.0000000000000000e+00  3.1170015745912282e-04 4.4146516544928821e-03 0.0000000000000000e+00  2.9427975419482670e-04 4.4144337941576170e-03 0.0000000000000000e+00  3.1241047015181142e-04 4.4318992022742577e-03 0.0000000000000000e+00  2.9490686556392452e-04 4.4316649226785248e-03 0.0000000000000000e+00  3.1311753506150185e-04 4.4493628381140340e-03 0.0000000000000000e+00  2.9549923221761261e-04 4.4491292612412157e-03 0.0000000000000000e+00  3.1374048868700234e-04 4.4670398813868558e-03 0.0000000000000000e+00  2.9605010586437338e-04 4.4668278665302196e-03 0.0000000000000000e+00  3.1418121971020578e-04 4.4848366435709663e-03 0.0000000000000000e+00  2.9653424880253287e-04 4.4846991956325960e-03 0.0000000000000000e+00  3.1434222765160417e-04 4.5025160143889395e-03 0.0000000000000000e+00  2.9686608804600133e-04 4.5025565065083557e-03 0.0000000000000000e+00  3.1444958463977400e-04 4.5202737129303398e-03 0.0000000000000000e+00  2.9697175625514866e-04 4.5203850809102481e-03 0.0000000000000000e+00  3.2094262397842877e-04 4.5426291131226600e-03 0.0000000000000000e+00  3.0072095825708548e-04 4.5411740604987825e-03 0.0000000000000000e+00  3.2611062461290394e-04 4.5642993006110152e-03 0.0000000000000000e+00  3.0478853274580684e-04 4.5628725078789923e-03 0.0000000000000000e+00  3.3070740367473217e-04 4.5864276203308237e-03 0.0000000000000000e+00  3.0856061077653692e-04 4.5850990374681298e-03 0.0000000000000000e+00  3.3491061457643928e-04 4.6091983207869856e-03 0.0000000000000000e+00  3.1203145777455442e-04 4.6079677392085192e-03 0.0000000000000000e+00  3.3876275128506828e-04 4.6326422058132885e-03 0.0000000000000000e+00  3.1521292076582241e-04 4.6315138900316346e-03 0.0000000000000000e+00  2.7239837676974792e-04 4.3441447090465423e-03 0.0000000000000000e+00  2.6950665826138245e-04 4.3251488564078431e-03 0.0000000000000000e+00  2.7449475706037068e-04 4.3623075035346699e-03 0.0000000000000000e+00  2.7555060645752575e-04 4.3798427931720828e-03 0.0000000000000000e+00  2.7646164682993920e-04 4.3971375751398981e-03 0.0000000000000000e+00  2.7702769662068399e-04 4.4142073632861866e-03 0.0000000000000000e+00  2.7753198695381113e-04 4.4314161892415101e-03 0.0000000000000000e+00  2.7801362254460297e-04 4.4488737930058146e-03 0.0000000000000000e+00  2.7850636206906893e-04 4.4665650528934193e-03 0.0000000000000000e+00  2.7903848576361424e-04 4.4844708174454880e-03 0.0000000000000000e+00  2.7961225700493848e-04 4.5025646156328135e-03 0.0000000000000000e+00  2.8019541900088554e-04 4.5209298020770592e-03 0.0000000000000000e+00  2.8156697535805660e-04 4.5407345608025314e-03 0.0000000000000000e+00  2.8442630808070223e-04 4.5619671618184372e-03 0.0000000000000000e+00  2.8720746875913621e-04 4.5841032635590565e-03 0.0000000000000000e+00  2.8985811538006768e-04 4.6069949954440940e-03 0.0000000000000000e+00  2.9231470336282670e-04 4.6306161696582438e-03 0.0000000000000000e+00  2.9459443706867614e-04 4.6548291909609850e-03 0.0000000000000000e+00  2.5526101354097906e-04 4.3420225154337869e-03 0.0000000000000000e+00  2.5686220806751608e-04 4.3608305338633134e-03 0.0000000000000000e+00  2.5797027138044210e-04 4.3794574441155228e-03 0.0000000000000000e+00  2.5968176580637095e-04 4.3969975078628808e-03 0.0000000000000000e+00  2.6008447642130301e-04 4.4140736834302925e-03 0.0000000000000000e+00  2.6027168428088913e-04 4.4311967835262188e-03 0.0000000000000000e+00  2.6053585723348743e-04 4.4486309884842930e-03 0.0000000000000000e+00  2.6086409468702339e-04 4.4662874603225607e-03 0.0000000000000000e+00  2.6128040067329361e-04 4.4841794838183192e-03 0.0000000000000000e+00  2.6180277515420926e-04 4.5023744882267541e-03 0.0000000000000000e+00  2.6245920413456569e-04 4.5210296669966222e-03 0.0000000000000000e+00  2.6336834432636114e-04 4.5406276518910396e-03 0.0000000000000000e+00  2.6467752049321981e-04 4.5614961472772208e-03 0.0000000000000000e+00  2.6638260392653884e-04 4.5834603415847329e-03 0.0000000000000000e+00  2.6820419723051336e-04 4.6063108470480738e-03 0.0000000000000000e+00  2.6987920345386410e-04 4.6299789667274575e-03 0.0000000000000000e+00  2.7150558645996166e-04 4.6541913802358370e-03 0.0000000000000000e+00  2.7303120759155264e-04 4.6790645016646891e-03 0.0000000000000000e+00  2.3998886646239603e-04 4.3595607355833331e-03 0.0000000000000000e+00  2.3861944316533635e-04 4.3404652664243070e-03 0.0000000000000000e+00  2.4115853077417231e-04 4.3782802691019283e-03 0.0000000000000000e+00  2.4211719163755644e-04 4.3961633084656998e-03 0.0000000000000000e+00  2.4281899431386606e-04 4.4138728874621403e-03 0.0000000000000000e+00  2.4288246720842311e-04 4.4310496354713043e-03 0.0000000000000000e+00  2.4293209015341786e-04 4.4484647706840028e-03 0.0000000000000000e+00  2.4302355473453281e-04 4.4660761212494751e-03 0.0000000000000000e+00  2.4316743233478754e-04 4.4839337678945932e-03 0.0000000000000000e+00  2.4336168475810581e-04 4.5021751544954943e-03 0.0000000000000000e+00  2.4362925664129690e-04 4.5209532429643850e-03 0.0000000000000000e+00  2.4403249247016386e-04 4.5405869166449796e-03 0.0000000000000000e+00  2.4466321842686015e-04 4.5613394373256767e-03 0.0000000000000000e+00  2.4557352313810224e-04 4.5831753805445899e-03 0.0000000000000000e+00  2.4672876674977374e-04 4.6060901396536100e-03 0.0000000000000000e+00  2.4765993137062836e-04 4.6296338501102992e-03 0.0000000000000000e+00  2.4864388312775305e-04 4.6537308769387959e-03 0.0000000000000000e+00  2.4962272163062295e-04 4.6786834425615849e-03 0.0000000000000000e+00  2.5060691114148491e-04 4.7039598923560803e-03 0.0000000000000000e+00  2.2331855195374225e-04 4.3585505683224647e-03 0.0000000000000000e+00  2.2432801698257969e-04 4.3773859251161505e-03 0.0000000000000000e+00  2.2523203033005039e-04 4.3958352545543262e-03 0.0000000000000000e+00  2.2535395899692001e-04 4.4133025712562333e-03 0.0000000000000000e+00  2.2531449514888528e-04 4.4308767381847046e-03 0.0000000000000000e+00  2.2523727346604732e-04 4.4483830673846033e-03 0.0000000000000000e+00  2.2509189457004463e-04 4.4659774808346892e-03 0.0000000000000000e+00  2.2488622437672842e-04 4.4838122398846783e-03 0.0000000000000000e+00  2.2459263883723121e-04 4.5021032017595157e-03 0.0000000000000000e+00  2.2426308282175763e-04 4.5209400122135845e-03 0.0000000000000000e+00  2.2399719367180372e-04 4.5405747454836084e-03 0.0000000000000000e+00  2.2391151636354001e-04 4.5612999730199454e-03 0.0000000000000000e+00  2.2404955379233131e-04 4.5831401157306068e-03 0.0000000000000000e+00  2.2440619966530520e-04 4.6059522974777802e-03 0.0000000000000000e+00  2.2494090387439257e-04 4.6295420536748054e-03 0.0000000000000000e+00  2.2562039025830172e-04 4.6536810541971509e-03 0.0000000000000000e+00  2.2635465513678619e-04 4.6785441746166482e-03 0.0000000000000000e+00  2.2683557738534051e-04 4.7035847007581930e-03 0.0000000000000000e+00  2.2741495700045363e-04 4.7296882612318479e-03 0.0000000000000000e+00  2.0754757451719479e-04 4.3767875417720604e-03 0.0000000000000000e+00  2.0682911864649991e-04 4.3578572530893452e-03 0.0000000000000000e+00  2.0812176149901298e-04 4.3953909687224650e-03 0.0000000000000000e+00  2.0796967057777366e-04 4.4131730770290917e-03 0.0000000000000000e+00  2.0783019563449671e-04 4.4307881110633406e-03 0.0000000000000000e+00  2.0763130129345360e-04 4.4483697143987882e-03 0.0000000000000000e+00  2.0731946466892047e-04 4.4659909819546465e-03 0.0000000000000000e+00  2.0677202608464319e-04 4.4838665634578953e-03 0.0000000000000000e+00  2.0584002513799829e-04 4.5022803483825658e-03 0.0000000000000000e+00  2.0470041170212450e-04 4.5211605250037225e-03 0.0000000000000000e+00  2.0352374872157150e-04 4.5407396513024835e-03 0.0000000000000000e+00  2.0247093384585370e-04 4.5613546763505711e-03 0.0000000000000000e+00  2.0191147482060136e-04 4.5832314086461101e-03 0.0000000000000000e+00  2.0167513463700503e-04 4.6059895013813544e-03 0.0000000000000000e+00  2.0169626708495264e-04 4.6295496141244823e-03 0.0000000000000000e+00  2.0191879411163836e-04 4.6537217117062837e-03 0.0000000000000000e+00  2.0228200283587325e-04 4.6785313110447061e-03 0.0000000000000000e+00  2.0275256299544752e-04 4.7037412909051958e-03 0.0000000000000000e+00  2.0342110352475636e-04 4.7296545659351952e-03 0.0000000000000000e+00  2.0354356574565663e-04 4.7560395278107266e-03 0.0000000000000000e+00  1.9136067557961543e-04 4.3767076375454770e-03 0.0000000000000000e+00  1.9101230342188013e-04 4.3950610237112921e-03 0.0000000000000000e+00  1.9076633686506293e-04 4.4130243412767705e-03 0.0000000000000000e+00  1.9054759526360501e-04 4.4307324442424993e-03 0.0000000000000000e+00  1.9032418453037938e-04 4.4483549056910810e-03 0.0000000000000000e+00  1.9009804761171582e-04 4.4659450706015140e-03 0.0000000000000000e+00  1.8969876419335877e-04 4.4838250409688250e-03 0.0000000000000000e+00  1.8823716654656645e-04 4.5024638462754689e-03 0.0000000000000000e+00  1.8565484481458596e-04 4.5215409021296966e-03 0.0000000000000000e+00  1.8305906416748587e-04 4.5411818254172684e-03 0.0000000000000000e+00  1.7998152835087267e-04 4.5616403679740319e-03 0.0000000000000000e+00  1.7882022339011001e-04 4.5833792703383449e-03 0.0000000000000000e+00  1.7821697501953999e-04 4.6060724568971131e-03 0.0000000000000000e+00  1.7787955280865631e-04 4.6296317036622781e-03 0.0000000000000000e+00  1.7777145819333903e-04 4.6537938004082152e-03 0.0000000000000000e+00  1.7784998920272602e-04 4.6785886744632830e-03 0.0000000000000000e+00  1.7810175521879203e-04 4.7038717253408101e-03 0.0000000000000000e+00  1.7852213958557094e-04 4.7297307621872436e-03 0.0000000000000000e+00  1.7903753518656981e-04 4.7561344453531228e-03 0.0000000000000000e+00  1.7930891971309446e-04 4.7825816387145354e-03 0.0000000000000000e+00  1.7364773229045210e-04 4.3948725540311631e-03 0.0000000000000000e+00  1.7396278962514207e-04 4.3764390060233478e-03 0.0000000000000000e+00  1.7339418607268471e-04 4.4129207325107264e-03 0.0000000000000000e+00  1.7318426857567258e-04 4.4307142291389245e-03 0.0000000000000000e+00  1.7301550821052384e-04 4.4483384148065472e-03 0.0000000000000000e+00  1.7286442481098148e-04 4.4658795994719658e-03 0.0000000000000000e+00  1.7264558384904626e-04 4.4836451901578795e-03 0.0000000000000000e+00  1.7005562585351201e-04 4.5061773042772823e-03 0.0000000000000000e+00  1.6674572642645731e-04 4.5267840426729700e-03 0.0000000000000000e+00  1.6338371390716409e-04 4.5470967855094652e-03 0.0000000000000000e+00  1.6015100715199073e-04 4.5676787290837833e-03 0.0000000000000000e+00  1.5724853915942554e-04 4.5881489187147842e-03 0.0000000000000000e+00  1.5408080513200717e-04 4.6062188215598302e-03 0.0000000000000000e+00  1.5339251060538867e-04 4.6297087155782032e-03 0.0000000000000000e+00  1.5304551774878605e-04 4.6538454378810181e-03 0.0000000000000000e+00  1.5287251556305153e-04 4.6786619949511620e-03 0.0000000000000000e+00  1.5286522364764429e-04 4.7039789757480398e-03 0.0000000000000000e+00  1.5298811524718862e-04 4.7298383662941678e-03 0.0000000000000000e+00  1.5322407550492055e-04 4.7561770088059077e-03 0.0000000000000000e+00  1.5353843449391851e-04 4.7827749233056403e-03 0.0000000000000000e+00  1.5389004624119247e-04 4.8097385796535223e-03 0.0000000000000000e+00  1.5595606575010809e-04 4.3947447013117629e-03 0.0000000000000000e+00  1.5575381933035271e-04 4.4128816468096766e-03 0.0000000000000000e+00  1.5561795578270958e-04 4.4307258038121166e-03 0.0000000000000000e+00  1.5552363993363741e-04 4.4483424589154960e-03 0.0000000000000000e+00  1.5548961702670499e-04 4.4658002628792642e-03 0.0000000000000000e+00  1.5289377687236505e-04 4.4883160733255800e-03 0.0000000000000000e+00  1.4932787808574804e-04 4.5109433990200374e-03 0.0000000000000000e+00  1.4596491161439617e-04 4.5323841033859643e-03 0.0000000000000000e+00  1.4256517131821752e-04 4.5531946409549341e-03 0.0000000000000000e+00  1.3927981439492147e-04 4.5738542363665648e-03 0.0000000000000000e+00  1.3623721620750984e-04 4.5942384922180177e-03 0.0000000000000000e+00  1.3331892850227005e-04 4.6138223548038357e-03 0.0000000000000000e+00  1.3044320328972500e-04 4.6349048407823799e-03 0.0000000000000000e+00  1.2769222140460320e-04 4.6538948840334389e-03 0.0000000000000000e+00  1.2734863579306585e-04 4.6787075026174223e-03 0.0000000000000000e+00  1.2716720420348569e-04 4.7040457797057414e-03 0.0000000000000000e+00  1.2711845764996148e-04 4.7299371910922506e-03 0.0000000000000000e+00  1.2719099407470749e-04 4.7562676571640712e-03 0.0000000000000000e+00  1.2737935551687552e-04 4.7829116705609383e-03 0.0000000000000000e+00  1.2767999287374918e-04 4.8099062164660682e-03 0.0000000000000000e+00  1.2803562013968388e-04 4.8372288407477499e-03 0.0000000000000000e+00  1.3778909996915956e-04 4.4128967241651475e-03 0.0000000000000000e+00  1.3773803425145509e-04 4.4307746648019246e-03 0.0000000000000000e+00  1.3772805352139383e-04 4.4484130255111583e-03 0.0000000000000000e+00  1.3506463652874422e-04 4.4708062989392916e-03 0.0000000000000000e+00  1.3126237853897343e-04 4.4937799352554979e-03 0.0000000000000000e+00  1.2759597939240153e-04 4.5164773590592655e-03 0.0000000000000000e+00  1.2412569638697957e-04 4.5382100789222385e-03 0.0000000000000000e+00  1.2074596249258641e-04 4.5593553042802271e-03 0.0000000000000000e+00  1.1746449110994533e-04 4.5801695003555689e-03 0.0000000000000000e+00  1.1433772033579641e-04 4.6006825562045694e-03 0.0000000000000000e+00  1.1131618183128981e-04 4.6208622765302430e-03 0.0000000000000000e+00  1.0834820687362832e-04 4.6415410009861833e-03 0.0000000000000000e+00  1.0561807274585210e-04 4.6617067435901285e-03 0.0000000000000000e+00  1.0303566836661362e-04 4.6836282734710414e-03 0.0000000000000000e+00  1.0099378266858883e-04 4.7040911521519149e-03 0.0000000000000000e+00  1.0080577477052961e-04 4.7299771906876989e-03 0.0000000000000000e+00  1.0077909271888516e-04 4.7563501503695600e-03 0.0000000000000000e+00  1.0083651557400250e-04 4.7830292879651962e-03 0.0000000000000000e+00  1.0096391773871036e-04 4.8100203851085335e-03 0.0000000000000000e+00  1.0115419446585153e-04 4.8372787497204780e-03 0.0000000000000000e+00  1.0139328938236930e-04 4.8646825736320988e-03 0.0000000000000000e+00  1.1948880125488088e-04 4.4308821869417014e-03 0.0000000000000000e+00  1.1713450413468152e-04 4.4530980118574716e-03 0.0000000000000000e+00  1.1293308934014005e-04 4.4765902789995196e-03 0.0000000000000000e+00  1.0885103545035662e-04 4.4997880198716306e-03 0.0000000000000000e+00  1.0504925730841396e-04 4.5223944114674069e-03 0.0000000000000000e+00  1.0151781921890887e-04 4.5442758475420387e-03 0.0000000000000000e+00  9.8127594767397623e-05 4.5656220474871593e-03 0.0000000000000000e+00  9.4846297804902909e-05 4.5866016032415175e-03 0.0000000000000000e+00  9.1673367802564909e-05 4.6072925848330438e-03 0.0000000000000000e+00  8.8579988254089355e-05 4.6277881474504051e-03 0.0000000000000000e+00  8.5548125162387265e-05 4.6484410434848005e-03 0.0000000000000000e+00  8.2644883489281181e-05 4.6689931716017170e-03 0.0000000000000000e+00  7.9823629208428644e-05 4.6901887285429591e-03 0.0000000000000000e+00  7.7238043151664054e-05 4.7107153723370760e-03 0.0000000000000000e+00  7.4088327096828193e-05 4.7299820573663684e-03 0.0000000000000000e+00  7.4020343144117409e-05 4.7563820241648628e-03 0.0000000000000000e+00  7.4016871081634169e-05 4.7831098698560897e-03 0.0000000000000000e+00  7.4068566100215949e-05 4.8101299932283561e-03 0.0000000000000000e+00  7.4174035531748291e-05 4.8373801052322132e-03 0.0000000000000000e+00  7.4332303655693735e-05 4.8647861051059017e-03 0.0000000000000000e+00  7.4526728339075897e-05 4.8923159589921794e-03 0.0000000000000000e+00  9.3628737266023573e-05 4.4592818132099437e-03 0.0000000000000000e+00  8.9429592699605623e-05 4.4829595303870345e-03 0.0000000000000000e+00  8.5439972048983629e-05 4.5060663935986307e-03 0.0000000000000000e+00  8.1713180705414860e-05 4.5285968303197151e-03 0.0000000000000000e+00  7.8203153053410342e-05 4.5505374877254307e-03 0.0000000000000000e+00  7.4834109592134462e-05 4.5720124543248888e-03 0.0000000000000000e+00  7.1567257858514029e-05 4.5931348391191340e-03 0.0000000000000000e+00  6.8385933205136366e-05 4.6139917121664617e-03 0.0000000000000000e+00  6.5271692374387823e-05 4.6346903089255079e-03 0.0000000000000000e+00  6.2222450001364176e-05 4.6554121194731513e-03 0.0000000000000000e+00  5.9273735744677503e-05 4.6761247919588390e-03 0.0000000000000000e+00  5.6433174173393583e-05 4.6970826859230744e-03 0.0000000000000000e+00  5.3771999768586905e-05 4.7177985029465659e-03 0.0000000000000000e+00  5.1078371434062030e-05 4.7384236009059850e-03 0.0000000000000000e+00  4.8601802836950766e-05 4.7614052231806630e-03 0.0000000000000000e+00  4.6927270733267618e-05 4.7831477514145657e-03 0.0000000000000000e+00  4.6955623646720414e-05 4.8101970085431692e-03 0.0000000000000000e+00  4.7030034504008078e-05 4.8374722686135505e-03 0.0000000000000000e+00  4.7142077354801957e-05 4.8648899736769297e-03 0.0000000000000000e+00  4.7290554082259061e-05 4.8924369929104665e-03 0.0000000000000000e+00  4.7479625498795328e-05 4.9201200937840752e-03 0.0000000000000000e+00  6.5207751857886592e-05 4.4894709429907070e-03 0.0000000000000000e+00  6.1372217539240400e-05 4.5124741332939469e-03 0.0000000000000000e+00  5.7753160512375643e-05 4.5349539250417485e-03 0.0000000000000000e+00  5.4306426759463812e-05 4.5569360663459185e-03 0.0000000000000000e+00  5.0981017159581033e-05 4.5785054166741761e-03 0.0000000000000000e+00  4.7745577746715979e-05 4.5997479073692799e-03 0.0000000000000000e+00  4.4581652944499486e-05 4.6207444367999733e-03 0.0000000000000000e+00  4.1476878735023061e-05 4.6415898200763660e-03 0.0000000000000000e+00  3.8432805742931510e-05 4.6623973110160553e-03 0.0000000000000000e+00  3.5468674656977907e-05 4.6831994694202551e-03 0.0000000000000000e+00  3.2594120820576437e-05 4.7041020688452940e-03 0.0000000000000000e+00  2.9824350717890799e-05 4.7249593470771950e-03 0.0000000000000000e+00  2.7066821172923996e-05 4.7459747412018629e-03 0.0000000000000000e+00  2.4393713989718675e-05 4.7679397632731709e-03 0.0000000000000000e+00  2.2098280176005230e-05 4.7894147193317258e-03 0.0000000000000000e+00  1.9661798617733874e-05 4.8102477457133835e-03 0.0000000000000000e+00  1.9721400562329999e-05 4.8375350707023368e-03 0.0000000000000000e+00  1.9807264085430260e-05 4.8649778843104898e-03 0.0000000000000000e+00  1.9918113224769314e-05 4.8925470689535622e-03 0.0000000000000000e+00  2.0047494696563186e-05 4.9202259414159819e-03 0.0000000000000000e+00  2.0200858000693486e-05 4.9479778367372560e-03 0.0000000000000000e+00  3.6781675596887366e-05 4.5189674252678535e-03 0.0000000000000000e+00  3.3285429162845876e-05 4.5414162573586287e-03 0.0000000000000000e+00  2.9922999610931927e-05 4.5634333124214390e-03 0.0000000000000000e+00  2.6659675137152456e-05 4.5850791896950007e-03 0.0000000000000000e+00  2.3471881609158214e-05 4.6064220039756165e-03 0.0000000000000000e+00  2.0344580966347608e-05 4.6275329138046927e-03 0.0000000000000000e+00  1.7269434389101577e-05 4.6484914377704677e-03 0.0000000000000000e+00  1.4248126527937253e-05 4.6693800988583858e-03 0.0000000000000000e+00  1.1291412131396189e-05 4.6902485853081788e-03 0.0000000000000000e+00  8.4063996395287728e-06 4.7111616694246929e-03 0.0000000000000000e+