<?xml version="1.0"?>
<VTKFile type="UnstructuredGrid"  version="0.1"  >
<UnstructuredGrid>
<Piece  NumberOfPoints="650" NumberOfCells="1199">
<Points>
<DataArray  type="Float64"  NumberOfComponents="3"  format="ascii">3.238260869565217 0 0  3.254782608695652 0 0  3.254782608695652 0.01666666666666667 0  3.238260869565217 0.01666666666666667 0  3.271304347826087 0 0  3.271304347826087 0.01666666666666667 0  3.287826086956521 0 0  3.287826086956521 0.01666666666666667 0  3.304347826086957 0 0  3.304347826086957 0.01666666666666667 0  3.320869565217391 0 0  3.320869565217391 0.01666666666666667 0  3.337391304347826 0 0  3.337391304347826 0.01666666666666667 0  3.353913043478261 0 0  3.353913043478261 0.01666666666666667 0  3.370434782608696 0 0  3.370434782608696 0.01666666666666667 0  3.386956521739131 0 0  3.386956521739131 0.01666666666666667 0  3.403478260869565 0 0  3.403478260869565 0.01666666666666667 0  3.419999999999999 0 0  3.419999999999999 0.01666666666666667 0  3.436521739130435 0 0  3.436521739130435 0.01666666666666667 0  3.453043478260869 0 0  3.453043478260869 0.01666666666666667 0  3.469565217391304 0 0  3.469565217391304 0.01666666666666667 0  3.486086956521739 0 0  3.486086956521739 0.01666666666666667 0  3.502608695652174 0 0  3.502608695652174 0.01666666666666667 0  3.519130434782609 0 0  3.519130434782609 0.01666666666666667 0  3.535652173913043 0 0  3.535652173913043 0.01666666666666667 0  3.552173913043478 0 0  3.552173913043478 0.01666666666666667 0  3.568695652173913 0 0  3.568695652173913 0.01666666666666667 0  3.585217391304347 0 0  3.585217391304347 0.01666666666666667 0  3.601739130434782 0 0  3.601739130434782 0.01666666666666667 0  3.618260869565217 0 0  3.618260869565217 0.01666666666666667 0  3.634782608695652 0 0  3.634782608695652 0.01666666666666667 0  3.651304347826087 0 0  3.651304347826087 0.01666666666666667 0  3.667826086956521 0 0  3.667826086956521 0.01666666666666667 0  3.684347826086956 0 0  3.684347826086956 0.01666666666666667 0  3.700869565217391 0 0  3.700869565217391 0.01666666666666667 0  3.717391304347826 0 0  3.717391304347826 0.01666666666666667 0  3.733913043478261 0 0  3.733913043478261 0.01666666666666667 0  3.750434782608695 0 0  3.750434782608695 0.01666666666666667 0  3.766956521739131 0 0  3.766956521739131 0.01666666666666667 0  3.783478260869565 0 0  3.783478260869565 0.01666666666666667 0  3.8 0 0  3.8 0.01666666666666667 0  3.254782608695652 0.03333333333333333 0  3.271304347826087 0.03333333333333333 0  3.287826086956521 0.03333333333333333 0  3.304347826086957 0.03333333333333333 0  3.320869565217391 0.03333333333333333 0  3.337391304347826 0.03333333333333333 0  3.353913043478261 0.03333333333333333 0  3.370434782608696 0.03333333333333333 0  3.386956521739131 0.03333333333333333 0  3.403478260869565 0.03333333333333333 0  3.419999999999999 0.03333333333333333 0  3.436521739130435 0.03333333333333333 0  3.453043478260869 0.03333333333333333 0  3.469565217391304 0.03333333333333333 0  3.486086956521739 0.03333333333333333 0  3.502608695652174 0.03333333333333333 0  3.519130434782609 0.03333333333333333 0  3.535652173913043 0.03333333333333333 0  3.552173913043478 0.03333333333333333 0  3.568695652173913 0.03333333333333333 0  3.585217391304347 0.03333333333333333 0  3.601739130434782 0.03333333333333333 0  3.618260869565217 0.03333333333333333 0  3.634782608695652 0.03333333333333333 0  3.651304347826087 0.03333333333333333 0  3.667826086956521 0.03333333333333333 0  3.684347826086956 0.03333333333333333 0  3.700869565217391 0.03333333333333333 0  3.717391304347826 0.03333333333333333 0  3.733913043478261 0.03333333333333333 0  3.750434782608695 0.03333333333333333 0  3.766956521739131 0.03333333333333333 0  3.783478260869565 0.03333333333333333 0  3.8 0.03333333333333333 0  3.271304347826087 0.05 0  3.287826086956521 0.05 0  3.304347826086957 0.05 0  3.320869565217391 0.05 0  3.337391304347826 0.05 0  3.353913043478261 0.05 0  3.370434782608696 0.05 0  3.386956521739131 0.05 0  3.403478260869565 0.05 0  3.419999999999999 0.05 0  3.436521739130435 0.05 0  3.453043478260869 0.05 0  3.469565217391304 0.05 0  3.486086956521739 0.05 0  3.502608695652174 0.05 0  3.519130434782609 0.05 0  3.535652173913043 0.05 0  3.552173913043478 0.05 0  3.568695652173913 0.05 0  3.585217391304347 0.05 0  3.601739130434782 0.05 0  3.618260869565217 0.05 0  3.634782608695652 0.05 0  3.651304347826087 0.05 0  3.667826086956521 0.05 0  3.684347826086956 0.05 0  3.700869565217391 0.05 0  3.717391304347826 0.05 0  3.733913043478261 0.05 0  3.750434782608695 0.05 0  3.766956521739131 0.05 0  3.783478260869565 0.05 0  3.8 0.05 0  3.287826086956521 0.06666666666666667 0  3.304347826086957 0.06666666666666667 0  3.320869565217391 0.06666666666666667 0  3.337391304347826 0.06666666666666667 0  3.353913043478261 0.06666666666666667 0  3.370434782608696 0.06666666666666667 0  3.386956521739131 0.06666666666666667 0  3.403478260869565 0.06666666666666667 0  3.419999999999999 0.06666666666666667 0  3.436521739130435 0.06666666666666667 0  3.453043478260869 0.06666666666666667 0  3.469565217391304 0.06666666666666667 0  3.486086956521739 0.06666666666666667 0  3.502608695652174 0.06666666666666667 0  3.519130434782609 0.06666666666666667 0  3.535652173913043 0.06666666666666667 0  3.552173913043478 0.06666666666666667 0  3.568695652173913 0.06666666666666667 0  3.585217391304347 0.06666666666666667 0  3.601739130434782 0.06666666666666667 0  3.618260869565217 0.06666666666666667 0  3.634782608695652 0.06666666666666667 0  3.651304347826087 0.06666666666666667 0  3.667826086956521 0.06666666666666667 0  3.684347826086956 0.06666666666666667 0  3.700869565217391 0.06666666666666667 0  3.717391304347826 0.06666666666666667 0  3.733913043478261 0.06666666666666667 0  3.750434782608695 0.06666666666666667 0  3.766956521739131 0.06666666666666667 0  3.783478260869565 0.06666666666666667 0  3.8 0.06666666666666667 0  3.304347826086957 0.08333333333333333 0  3.320869565217391 0.08333333333333333 0  3.337391304347826 0.08333333333333333 0  3.353913043478261 0.08333333333333333 0  3.370434782608696 0.08333333333333333 0  3.386956521739131 0.08333333333333333 0  3.403478260869565 0.08333333333333333 0  3.419999999999999 0.08333333333333333 0  3.436521739130435 0.08333333333333333 0  3.453043478260869 0.08333333333333333 0  3.469565217391304 0.08333333333333333 0  3.486086956521739 0.08333333333333333 0  3.502608695652174 0.08333333333333333 0  3.519130434782609 0.08333333333333333 0  3.535652173913043 0.08333333333333333 0  3.552173913043478 0.08333333333333333 0  3.568695652173913 0.08333333333333333 0  3.585217391304347 0.08333333333333333 0  3.601739130434782 0.08333333333333333 0  3.618260869565217 0.08333333333333333 0  3.634782608695652 0.08333333333333333 0  3.651304347826087 0.08333333333333333 0  3.667826086956521 0.08333333333333333 0  3.684347826086956 0.08333333333333333 0  3.700869565217391 0.08333333333333333 0  3.717391304347826 0.08333333333333333 0  3.733913043478261 0.08333333333333333 0  3.750434782608695 0.08333333333333333 0  3.766956521739131 0.08333333333333333 0  3.783478260869565 0.08333333333333333 0  3.8 0.08333333333333333 0  3.320869565217391 0.1 0  3.337391304347826 0.1 0  3.353913043478261 0.1 0  3.370434782608696 0.1 0  3.386956521739131 0.1 0  3.403478260869565 0.1 0  3.419999999999999 0.1 0  3.436521739130435 0.1 0  3.453043478260869 0.1 0  3.469565217391304 0.1 0  3.486086956521739 0.1 0  3.502608695652174 0.1 0  3.519130434782609 0.1 0  3.535652173913043 0.1 0  3.552173913043478 0.1 0  3.568695652173913 0.1 0  3.585217391304347 0.1 0  3.601739130434782 0.1 0  3.618260869565217 0.1 0  3.634782608695652 0.1 0  3.651304347826087 0.1 0  3.667826086956521 0.1 0  3.684347826086956 0.1 0  3.700869565217391 0.1 0  3.717391304347826 0.1 0  3.733913043478261 0.1 0  3.750434782608695 0.1 0  3.766956521739131 0.1 0  3.783478260869565 0.1 0  3.8 0.1 0  3.337391304347826 0.1166666666666667 0  3.353913043478261 0.1166666666666667 0  3.370434782608696 0.1166666666666667 0  3.386956521739131 0.1166666666666667 0  3.403478260869565 0.1166666666666667 0  3.419999999999999 0.1166666666666667 0  3.436521739130435 0.1166666666666667 0  3.453043478260869 0.1166666666666667 0  3.469565217391304 0.1166666666666667 0  3.486086956521739 0.1166666666666667 0  3.502608695652174 0.1166666666666667 0  3.519130434782609 0.1166666666666667 0  3.535652173913043 0.1166666666666667 0  3.552173913043478 0.1166666666666667 0  3.568695652173913 0.1166666666666667 0  3.585217391304347 0.1166666666666667 0  3.601739130434782 0.1166666666666667 0  3.618260869565217 0.1166666666666667 0  3.634782608695652 0.1166666666666667 0  3.651304347826087 0.1166666666666667 0  3.667826086956521 0.1166666666666667 0  3.684347826086956 0.1166666666666667 0  3.700869565217391 0.1166666666666667 0  3.717391304347826 0.1166666666666667 0  3.733913043478261 0.1166666666666667 0  3.750434782608695 0.1166666666666667 0  3.766956521739131 0.1166666666666667 0  3.783478260869565 0.1166666666666667 0  3.8 0.1166666666666667 0  3.353913043478261 0.1333333333333333 0  3.370434782608696 0.1333333333333333 0  3.386956521739131 0.1333333333333333 0  3.403478260869565 0.1333333333333333 0  3.419999999999999 0.1333333333333333 0  3.436521739130435 0.1333333333333333 0  3.453043478260869 0.1333333333333333 0  3.469565217391304 0.1333333333333333 0  3.486086956521739 0.1333333333333333 0  3.502608695652174 0.1333333333333333 0  3.519130434782609 0.1333333333333333 0  3.535652173913043 0.1333333333333333 0  3.552173913043478 0.1333333333333333 0  3.568695652173913 0.1333333333333333 0  3.585217391304347 0.1333333333333333 0  3.601739130434782 0.1333333333333333 0  3.618260869565217 0.1333333333333333 0  3.634782608695652 0.1333333333333333 0  3.651304347826087 0.1333333333333333 0  3.667826086956521 0.1333333333333333 0  3.684347826086956 0.1333333333333333 0  3.700869565217391 0.1333333333333333 0  3.717391304347826 0.13333333
[...]
<PointData  Vectors="Displacement"> 
<DataArray  type="Float64"  Name="Displacement"  NumberOfComponents="3" format="ascii">1.0115065693944605e-03 1.0671423731223656e-02 0.0000000000000000e+00  1.0626461887075361e-03 1.0725425497023766e-02 0.0000000000000000e+00  1.0052458677613900e-03 1.0710366331379503e-02 0.0000000000000000e+00  9.6487997481223091e-04 1.0655745626604148e-02 0.0000000000000000e+00  1.1113204599209872e-03 1.0790946756557724e-02 0.0000000000000000e+00  1.0434313680532184e-03 1.0776745570230737e-02 0.0000000000000000e+00  1.1568035642558299e-03 1.0867527091963650e-02 0.0000000000000000e+00  1.0789087174870797e-03 1.0854386490695986e-02 0.0000000000000000e+00  1.1984060367019264e-03 1.0954575877909016e-02 0.0000000000000000e+00  1.1111528989841868e-03 1.0942690377469911e-02 0.0000000000000000e+00  1.2353936238064418e-03 1.1051454193921766e-02 0.0000000000000000e+00  1.1395807857517038e-03 1.1041058987526699e-02 0.0000000000000000e+00  1.2670277690391306e-03 1.1157246759614889e-02 0.0000000000000000e+00  1.1636239323301362e-03 1.1148568912749740e-02 0.0000000000000000e+00  1.2926886086859287e-03 1.1270708409891346e-02 0.0000000000000000e+00  1.1828272531253219e-03 1.1263915783333307e-02 0.0000000000000000e+00  1.3119433152389936e-03 1.1390398165307174e-02 0.0000000000000000e+00  1.1968793628734627e-03 1.1385595994014865e-02 0.0000000000000000e+00  1.3245688266359901e-03 1.1514764075035723e-02 0.0000000000000000e+00  1.2056253278241310e-03 1.1511993743834043e-02 0.0000000000000000e+00  1.3305641124203252e-03 1.1642201202343933e-02 0.0000000000000000e+00  1.2090788642882481e-03 1.1641436190113826e-02 0.0000000000000000e+00  1.3301555409569558e-03 1.1771115767368936e-02 0.0000000000000000e+00  1.2074279183066092e-03 1.1772259848569505e-02 0.0000000000000000e+00  1.3237854042554488e-03 1.1900002200391318e-02 0.0000000000000000e+00  1.2010250225781875e-03 1.1902895169860131e-02 0.0000000000000000e+00  1.3120802298001485e-03 1.2027515226215696e-02 0.0000000000000000e+00  1.1903624850514935e-03 1.2031945429793103e-02 0.0000000000000000e+00  1.2958060100774556e-03 1.2152520159370265e-02 0.0000000000000000e+00  1.1760392747413632e-03 1.2158239624858107e-02 0.0000000000000000e+00  1.2758196920016874e-03 1.2274119437779665e-02 0.0000000000000000e+00  1.1587257651581020e-03 1.2280858739366778e-02 0.0000000000000000e+00  1.2530232786660742e-03 1.2391660130327616e-02 0.0000000000000000e+00  1.1391300379071207e-03 1.2399141667302519e-02 0.0000000000000000e+00  1.2283233833387953e-03 1.2504728259427394e-02 0.0000000000000000e+00  1.1179673958277303e-03 1.2512677681115393e-02 0.0000000000000000e+00  1.2025972139183307e-03 1.2613133819421347e-02 0.0000000000000000e+00  1.0959339645461874e-03 1.2621289494799745e-02 0.0000000000000000e+00  1.1766652806000466e-03 1.2716889258550839e-02 0.0000000000000000e+00  1.0736849128791725e-03 1.2725009718668138e-02 0.0000000000000000e+00  1.1512706157617203e-03 1.2816183996885666e-02 0.0000000000000000e+00  1.0518173540804388e-03 1.2824053453971272e-02 0.0000000000000000e+00  1.1270638442655841e-03 1.2911357135260886e-02 0.0000000000000000e+00  1.0308576016039273e-03 1.2918789313878375e-02 0.0000000000000000e+00  1.1045931453700824e-03 1.3002869933715357e-02 0.0000000000000000e+00  1.0112522161070225e-03 1.3009710513088029e-02 0.0000000000000000e+00  1.0842979889704731e-03 1.3091279078301325e-02 0.0000000000000000e+00  9.9336214922943981e-04 1.3097407075892372e-02 0.0000000000000000e+00  1.0665054915501666e-03 1.3177211185602370e-02 0.0000000000000000e+00  9.7745926226499311e-04 1.3182539605759287e-02 0.0000000000000000e+00  1.0514283191559374e-03 1.3261338422652924e-02 0.0000000000000000e+00  9.6372457742098570e-04 1.3265814449609321e-02 0.0000000000000000e+00  1.0391632506654188e-03 1.3344354574943731e-02 0.0000000000000000e+00  9.5224779156285360e-04 1.3347959519833195e-02 0.0000000000000000e+00  1.0296897893105827e-03 1.3426950360400126e-02 0.0000000000000000e+00  9.4302783087236129e-04 1.3429699495535056e-02 0.0000000000000000e+00  1.0228685932969460e-03 1.3509786186353063e-02 0.0000000000000000e+00  9.3597454276707988e-04 1.3511728541637088e-02 0.0000000000000000e+00  1.0184400858947642e-03 1.3593459745591629e-02 0.0000000000000000e+00  9.3091200414727518e-04 1.3594677951121396e-02 0.0000000000000000e+00  1.0160246589274375e-03 1.3678464653282858e-02 0.0000000000000000e+00  9.2758433573332034e-04 1.3679075104073943e-02 0.0000000000000000e+00  1.0151279999788100e-03 1.3765134530329739e-02 0.0000000000000000e+00  9.2566518941377416e-04 1.3765288758706116e-02 0.0000000000000000e+00  1.0151596800507003e-03 1.3853564739453563e-02 0.0000000000000000e+00  9.2477173318154620e-04 1.3853454086254595e-02 0.0000000000000000e+00  1.0154844468534127e-03 1.3943505425387723e-02 0.0000000000000000e+00  9.2448192270989016e-04 1.3943369823094874e-02 0.0000000000000000e+00  1.0155681731452010e-03 1.4034270213256336e-02 0.0000000000000000e+00  9.2434842751696017e-04 1.4034357654173523e-02 0.0000000000000000e+00  9.5308703165315355e-04 1.0698012568608672e-02 0.0000000000000000e+00  9.8202959625338405e-04 1.0765152989270324e-02 0.0000000000000000e+00  1.0087726227128791e-03 1.0843672929485671e-02 0.0000000000000000e+00  1.0329492862388035e-03 1.0932976227358861e-02 0.0000000000000000e+00  1.0540325241624147e-03 1.1032629711904707e-02 0.0000000000000000e+00  1.0714833742651165e-03 1.1141700383275973e-02 0.0000000000000000e+00  1.0849183237518637e-03 1.1258764157397436e-02 0.0000000000000000e+00  1.0940985956136848e-03 1.1382249831300659e-02 0.0000000000000000e+00  1.0989115598083730e-03 1.1510487514934137e-02 0.0000000000000000e+00  1.0993813929248480e-03 1.1641740284186993e-02 0.0000000000000000e+00  1.0956809943659680e-03 1.1774271982156198e-02 0.0000000000000000e+00  1.0881239086226230e-03 1.1906448094832690e-02 0.0000000000000000e+00  1.0771375486200671e-03 1.2036825775868768e-02 0.0000000000000000e+00  1.0632308065772833e-03 1.2164206595717838e-02 0.0000000000000000e+00  1.0469635760444267e-03 1.2287659095536189e-02 0.0000000000000000e+00  1.0289201264113465e-03 1.2406521094335807e-02 0.0000000000000000e+00  1.0096857832862282e-03 1.2520389982807351e-02 0.0000000000000000e+00  9.8982678405995744e-04 1.2629104001503719e-02 0.0000000000000000e+00  9.6987374308806743e-04 1.2732716764368676e-02 0.0000000000000000e+00  9.5030882291186102e-04 1.2831468073531475e-02 0.0000000000000000e+00  9.3155633967901619e-04 1.2925753458735830e-02 0.0000000000000000e+00  9.1397637120288532e-04 1.3016094096220511e-02 0.0000000000000000e+00  8.9786084494426776e-04 1.3103108179729936e-02 0.0000000000000000e+00  8.8343156718295496e-04 1.3187484178324892e-02 0.0000000000000000e+00  8.7083973381220164e-04 1.3269955767663825e-02 0.0000000000000000e+00  8.6016660327090360e-04 1.3351277655856281e-02 0.0000000000000000e+00  8.5142516280648211e-04 1.3432201042662914e-02 0.0000000000000000e+00  8.4456272598443650e-04 1.3513447001491584e-02 0.0000000000000000e+00  8.3946437630762910e-04 1.3595675609006942e-02 0.0000000000000000e+00  8.3595684871395480e-04 1.3679448165148756e-02 0.0000000000000000e+00  8.3381147596055553e-04 1.3765179463191165e-02 0.0000000000000000e+00  8.3274257258220499e-04 1.3853077104266190e-02 0.0000000000000000e+00  8.3239288195622457e-04 1.3943065496437717e-02 0.0000000000000000e+00  8.3228736305633296e-04 1.4034689198501643e-02 0.0000000000000000e+00  9.2587696153486568e-04 1.0755390117668337e-02 0.0000000000000000e+00  9.4484223884689462e-04 1.0834579439613880e-02 0.0000000000000000e+00  9.6196346139523770e-04 1.0924591805678525e-02 0.0000000000000000e+00  9.7663032817008511e-04 1.1025422203027307e-02 0.0000000000000000e+00  9.8821207197496096e-04 1.1136092357023050e-02 0.0000000000000000e+00  9.9635745252911055e-04 1.1254920989981111e-02 0.0000000000000000e+00  1.0008781606063205e-03 1.1380261583437625e-02 0.0000000000000000e+00  1.0016847840566168e-03 1.1510395324879436e-02 0.0000000000000000e+00  9.9880744752977257e-04 1.1643509580864615e-02 0.0000000000000000e+00  9.9242259867140864e-04 1.1777770831600280e-02 0.0000000000000000e+00  9.8284392220105376e-04 1.1911461726607495e-02 0.0000000000000000e+00  9.7048469795922240e-04 1.2043091032992543e-02 0.0000000000000000e+00  9.5581873093388274e-04 1.2171440658700895e-02 0.0000000000000000e+00  9.3934994048493279e-04 1.2295578332114339e-02 0.0000000000000000e+00  9.2159000565883507e-04 1.2414852417621568e-02 0.0000000000000000e+00  9.0304021439742302e-04 1.2528879074275370e-02 0.0000000000000000e+00  8.8417620756892372e-04 1.2637521351495849e-02 0.0000000000000000e+00  8.6543613322870002e-04 1.2740861185866424e-02 0.0000000000000000e+00  8.4721219577569824e-04 1.2839168098022574e-02 0.0000000000000000e+00  8.2984514888474487e-04 1.2932867179662993e-02 0.0000000000000000e+00  8.1362124078805903e-04 1.3022507933864787e-02 0.0000000000000000e+00  7.9877106307996311e-04 1.3108735067374760e-02 0.0000000000000000e+00  7.8546974559585677e-04 1.3192261654879699e-02 0.0000000000000000e+00  7.7383803653513440e-04 1.3273844391351727e-02 0.0000000000000000e+00  7.6394393547121893e-04 1.3354260120067657e-02 0.0000000000000000e+00  7.5580461991678425e-04 1.3434282468149469e-02 0.0000000000000000e+00  7.4938835120924097e-04 1.3514657189381520e-02 0.0000000000000000e+00  7.4461577367875541e-04 1.3596074703233697e-02 0.0000000000000000e+00  7.4135939225643136e-04 1.3679138415341916e-02 0.0000000000000000e+00  7.3943880772621071e-04 1.3764327947923588e-02 0.0000000000000000e+00  7.3860718264294597e-04 1.3851957870213994e-02 0.0000000000000000e+00  7.3852091572504852e-04 1.3942135541806551e-02 0.0000000000000000e+00  7.3867844510246031e-04 1.4034726506470648e-02 0.0000000000000000e+00  8.8554343400197057e-04 1.0826464982210494e-02 0.0000000000000000e+00  8.9652347793253435e-04 1.0916776819783050e-02 0.0000000000000000e+00  9.0555311056229372e-04 1.1018805468112047e-02 0.0000000000000000e+00  9.1178920943069098e-04 1.1131341544283435e-02 0.0000000000000000e+00  9.1495610406377385e-04 1.1252156346574548e-02 0.0000000000000000e+00  9.1493243120480540e-04 1.1379578348042244e-02 0.0000000000000000e+00  9.1163635006055483e-04 1.1511859664584552e-02 0.0000000000000000e+00  9.0509550278928836e-04 1.1647085206367458e-02 0.0000000000000000e+00  8.9550673962174668e-04 1.1783272937500165e-02 0.0000000000000000e+00  8.8321975669878921e-04 1.1918589377342846e-02 0.0000000000000000e+00  8.6867476732996427e-04 1.2051491011730052e-02 0.0000000000000000e+00  8.5235060249196288e-04 1.2180750536285994e-02 0.0000000000000000e+00  8.3473311885036102e-04 1.2305449942911882e-02 0.0000000000000000e+00  8.1629714098897636e-04 1.2424962967273422e-02 0.0000000000000000e+00  7.9749256848282235e-04 1.2538939157756120e-02 0.0000000000000000e+00  7.7873275690658133e-04 1.2647280406478537e-02 0.0000000000000000e+00  7.6038674912808828e-04 1.2750109114952274e-02 0.0000000000000000e+00  7.4277512865077687e-04 1.2847734061894767e-02 0.0000000000000000e+00  7.2616861574013414e-04 1.2940616594648124e-02 0.0000000000000000e+00  7.1078874256517977e-04 1.3029338383938951e-02 0.0000000000000000e+00  6.9680988634966126e-04 1.3114571929695439e-02 0.0000000000000000e+00  6.8436192683414630e-04 1.3197054207244444e-02 0.0000000000000000e+00  6.7353295696663225e-04 1.3277563018011399e-02 0.0000000000000000e+00  6.6437165116076168e-04 1.3356895148463922e-02 0.0000000000000000e+00  6.5688895465073737e-04 1.3435845266812482e-02 0.0000000000000000e+00  6.5105864084447670e-04 1.3515184503065329e-02 0.0000000000000000e+00  6.4681594420724128e-04 1.3595637874881128e-02 0.0000000000000000e+00  6.4405285758335881e-04 1.3677860253182312e-02 0.0000000000000000e+00  6.4260772714820689e-04 1.3762411667785183e-02 0.0000000000000000e+00  6.4224546172983053e-04 1.3849734919296544e-02 0.0000000000000000e+00  6.4262307893461193e-04 1.3940142532478026e-02 0.0000000000000000e+00  6.4323377368650419e-04 1.4033827917958779e-02 0.0000000000000000e+00  8.3524014934021056e-04 1.0908694292488193e-02 0.0000000000000000e+00  8.3930014064803030e-04 1.1012189331885658e-02 0.0000000000000000e+00  8.4049239426094776e-04 1.1127184205826994e-02 0.0000000000000000e+00  8.3882143090459695e-04 1.1250325066718077e-02 0.0000000000000000e+00  8.3427827415683703e-04 1.1380180630440023e-02 0.0000000000000000e+00  8.2675517697495594e-04 1.1515023701265920e-02 0.0000000000000000e+00  8.1625723174750912e-04 1.1652785123703130e-02 0.0000000000000000e+00  8.0302075932927675e-04 1.1791241023278548e-02 0.0000000000000000e+00  7.8747124373949211e-04 1.1928392737297192e-02 0.0000000000000000e+00  7.7011159476045093e-04 1.2062648555758476e-02 0.0000000000000000e+00  7.5145356504141775e-04 1.2192790868910492e-02 0.0000000000000000e+00  7.3198849846363608e-04 1.2317936280216981e-02 0.0000000000000000e+00  7.1217697014968587e-04 1.2437500925890112e-02 0.0000000000000000e+00  6.9243884311258970e-04 1.2551185219942564e-02 0.0000000000000000e+00  6.7314371989258539e-04 1.2658947827648143e-02 0.0000000000000000e+00  6.5460668503146402e-04 1.2760967530553191e-02 0.0000000000000000e+00  6.3708842531224306e-04 1.2857605317681292e-02 0.0000000000000000e+00  6.2079802623850246e-04 1.2949368503128698e-02 0.0000000000000000e+00  6.0589761801672318e-04 1.3036877290288249e-02 0.0000000000000000e+00  5.9250785872435924e-04 1.3120835323870567e-02 0.0000000000000000e+00  5.8071319977582496e-04 1.3202004543852655e-02 0.0000000000000000e+00  5.7056620543735419e-04 1.3281183562895675e-02 0.0000000000000000e+00  5.6209050505289459e-04 1.3359188457690709e-02 0.0000000000000000e+00  5.5528206390947422e-04 1.3436834937403865e-02 0.0000000000000000e+00  5.5010835328687556e-04 1.3514921120949349e-02 0.0000000000000000e+00  5.4650469656244863e-04 1.3594210626974064e-02 0.0000000000000000e+00  5.4436659112554327e-04 1.3675416456091034e-02 0.0000000000000000e+00  5.4353621917547742e-04 1.3759187432103356e-02 0.0000000000000000e+00  5.4378081948877881e-04 1.3846101141088578e-02 0.0000000000000000e+00  5.4476045860238039e-04 1.3936671003761860e-02 0.0000000000000000e+00  5.4598389156810460e-04 1.4031381656374348e-02 0.0000000000000000e+00  7.7674490554046943e-04 1.1005046350261229e-02 0.0000000000000000e+00  7.7278958600340386e-04 1.1123582122730286e-02 0.0000000000000000e+00  7.6622781993533617e-04 1.1249361359055642e-02 0.0000000000000000e+00  7.5711143745214383e-04 1.1382068149906277e-02 0.0000000000000000e+00  7.4520697530294159e-04 1.1520035513104314e-02 0.0000000000000000e+00  7.3046106507686052e-04 1.1660931743275827e-02 0.0000000000000000e+00  7.1318133814933277e-04 1.1802121855962645e-02 0.0000000000000000e+00  6.9392108358430767e-04 1.1941379673006236e-02 0.0000000000000000e+00  6.7327582409303988e-04 1.2077096360029136e-02 0.0000000000000000e+00  6.5180377105869612e-04 1.2208098391075109e-02 0.0000000000000000e+00  6.3001051462567874e-04 1.2333563789250688e-02 0.0000000000000000e+00  6.0835363364983037e-04 1.2452967876486721e-02 0.0000000000000000e+00  5.8723519327317402e-04 1.2566081391452912e-02 0.0000000000000000e+00  5.6699122301392751e-04 1.2672941604296094e-02 0.0000000000000000e+00  5.4789062126364392e-04 1.2773802743450489e-02 0.0000000000000000e+00  5.3013977752760979e-04 1.2869093510631974e-02 0.0000000000000000e+00  5.1388966945351553e-04 1.2959379025630630e-02 0.0000000000000000e+00  4.9924474389019264e-04 1.3045325923112068e-02 0.0000000000000000e+00  4.8627212376749766e-04 1.3127673361291012e-02 0.0000000000000000e+00  4.7500957513311998e-04 1.3207210022862098e-02 0.0000000000000000e+00  4.6547136125149970e-04 1.3284755593837034e-02 0.0000000000000000e+00  4.5765165220419695e-04 1.3361145189788273e-02 0.0000000000000000e+00  4.5152534296659716e-04 1.3437215632805621e-02 0.0000000000000000e+00  4.4704605925479117e-04 1.3513793004780384e-02 0.0000000000000000e+00  4.4414088360737958e-04 1.3591681559005624e-02 0.0000000000000000e+00  4.4270099985512206e-04 1.3671654932609554e-02 0.0000000000000000e+00  4.4256716779549033e-04 1.3754451790497132e-02 0.0000000000000000e+00  4.4350892689944561e-04 1.3840779765352185e-02 0.0000000000000000e+00  4.4519709072169539e-04 1.3931334141254633e-02 0.0000000000000000e+00  4.4717122585922103e-04 1.4026841532894086e-02 0.0000000000000000e+00  7.0687073357990457e-04 1.1120865915651687e-02 0.0000000000000000e+00  6.9545347672883291e-04 1.1249230213249511e-02 0.0000000000000000e+00  6.8170485863742482e-04 1.1385232072986504e-02 0.0000000000000000e+00  6.6522157744795731e-04 1.1527048894228217e-02 0.0000000000000000e+00  6.4591284713795896e-04 1.1671880640438939e-02 0.0000000000000000e+00  6.2422777933253133e-04 1.1816376894767451e-02 0.0000000000000000e+00  6.0091493590763310e-04 1.1958024460657161e-02 0.0000000000000000e+00  5.7667406945323060e-04 1.2095293675163276e-02 0.0000000000000000e+00  5.5210073310429377e-04 1.2227109521700658e-02 0.0000000000000000e+00  5.2770687975061889e-04 1.2352742878977323e-02 0.0000000000000000e+00  5.0395007894352400e-04 1.2471738476272649e-02 0.0000000000000000e+00  4.8122106749623483e-04 1.2583958471889336e-02 0.0000000000000000e+00  4.5982581407725946e-04 1.2689545877591751e-02 0.0000000000000000e+00  4.3998841084223934e-04 1.2788852199052998e-02 0.0000000000000000e+00  4.2186114983185888e-04 1.2882391171595191e-02 0.0000000000000000e+00  4.0553606002924602e-04 1.2970798951566220e-02 0.0000000000000000e+00  3.9105847824178787e-04 1.3054797012703238e-02 0.0000000000000000e+00  3.7844039165873205e-04 1.3135164218867231e-02 0.0000000000000000e+00  3.6767115932278410e-04 1.3212717303575176e-02 0.0000000000000000e+00  3.5872471188056181e-04 1.3288296733193298e-02 0.0000000000000000e+00  3.5156320445071991e-04 1.3362755757719547e-02 0.0000000000000000e+00  3.4613731932753040e-04 1.3436951438700752e-02 0.0000000000000000e+00  3.4238333502235245e-04 1.3511737211971074e-02 0.0000000000000000e+00  3.4021684764453237e-04 1.3587957332547454e-02 0.0000000000000000e+00  3.3952276814592711e-04 1.3666444392920222e-02 0.0000000000000000e+00  3.4014109560733305e-04 1.3748022036766557e-02 0.0000000000000000e+00  3.4184820956533027e-04 1.3833516103977879e-02 0.0000000000000000e+00  3.4433434891092724e-04 1.3923778795828635e-02 0.0000000000000000e+00  3.4718003926884121e-04 1.4019731825511823e-02 0.0000000000000000e+00  6.2529189642672109e-04 1.1249797957295051e-02 0.0000000000000000e+00  6.0655263504744237e-04 1.1389675872179258e-02 0.0000000000000000e+00  5.8497573477570952e-04 1.1536240281131286e-02 0.0000000000000000e+00  5.6068815099161477e-04 1.1686054822196520e-02 0.0000000000000000e+00  5.3429112737334234e-04 1.1834500769960232e-02 0.0000000000000000e+00  5.0674448930883190e-04 1.1978762575449168e-02 0.0000000000000000e+00  4.7880247014889341e-04 1.2117620423268343e-02 0.0000000000000000e+00  4.5105595477620543e-04 1.2250160690133087e-02 0.0000000000000000e+00  4.2400216579048853e-04 1.2375775771977402e-02 0.0000000000000000e+00  3.9810269378771538e-04 1.2494069994720197e-02 0.0000000000000000e+00  3.7374362674355544e-04 1.2605022306454322e-02 0.0000000000000000e+00  3.5119913959409297e-04 1.2708918239495971e-02 0.0000000000000000e+00  3.3064415491749897e-04 1.2806230455892149e-02 0.0000000000000000e+00  3.1217236910033135e-04 1.2897576098849740e-02 0.0000000000000000e+00  2.9581218600280979e-04 1.2983676466551020e-02 0.0000000000000000e+00  2.8154582603971191e-04 1.3065315669559418e-02 0.0000000000000000e+00  2.6932745748290012e-04 1.3143314927430042e-02 0.0000000000000000e+00  2.5909658515106985e-04 1.3218518614764425e-02 0.0000000000000000e+00  2.5078614634746412e-04 1.3291786095931731e-02 0.0000000000000000e+00  2.4432596875071511e-04 1.3363986366866858e-02 0.0000000000000000e+00  2.3964232935605215e-04 1.3435994274698984e-02 0.0000000000000000e+00  2.3665417390406250e-04 1.3508688020428422e-02 0.0000000000000000e+00  2.3526626431659921e-04 1.3582948544042297e-02 0.0000000000000000e+00  2.3535922734270335e-04 1.3659662171153822e-02 0.0000000000000000e+00  2.3677637561811884e-04 1.3739728501153131e-02 0.0000000000000000e+