<?xml version="1.0"?>
<VTKFile type="UnstructuredGrid"  version="0.1"  >
<UnstructuredGrid>
<Piece  NumberOfPoints="614" NumberOfCells="1122">
<Points>
<DataArray  type="Float64"  NumberOfComponents="3"  format="ascii">2.792173913043478 0.2166666666666667 0  2.792173913043478 0.2333333333333333 0  2.808695652173913 0.2333333333333333 0  2.445217391304348 0.2333333333333333 0  2.461739130434782 0.2333333333333333 0  2.461739130434782 0.25 0  2.445217391304348 0.25 0  2.478260869565217 0.2333333333333333 0  2.478260869565217 0.25 0  2.494782608695652 0.2333333333333333 0  2.494782608695652 0.25 0  2.511304347826087 0.2333333333333333 0  2.511304347826087 0.25 0  2.527826086956522 0.2333333333333333 0  2.527826086956522 0.25 0  2.544347826086956 0.2333333333333333 0  2.544347826086956 0.25 0  2.560869565217391 0.2333333333333333 0  2.560869565217391 0.25 0  2.577391304347826 0.2333333333333333 0  2.577391304347826 0.25 0  2.593913043478261 0.2333333333333333 0  2.593913043478261 0.25 0  2.610434782608696 0.2333333333333333 0  2.610434782608696 0.25 0  2.62695652173913 0.2333333333333333 0  2.62695652173913 0.25 0  2.643478260869565 0.2333333333333333 0  2.643478260869565 0.25 0  2.66 0.2333333333333333 0  2.66 0.25 0  2.676521739130435 0.2333333333333333 0  2.676521739130435 0.25 0  2.693043478260869 0.2333333333333333 0  2.693043478260869 0.25 0  2.709565217391304 0.2333333333333333 0  2.709565217391304 0.25 0  2.726086956521739 0.2333333333333333 0  2.726086956521739 0.25 0  2.742608695652174 0.2333333333333333 0  2.742608695652174 0.25 0  2.759130434782609 0.2333333333333333 0  2.759130434782609 0.25 0  2.775652173913044 0.2333333333333333 0  2.775652173913044 0.25 0  2.792173913043478 0.25 0  2.808695652173913 0.25 0  2.825217391304347 0.25 0  2.28 0.25 0  2.296521739130434 0.25 0  2.296521739130434 0.2666666666666667 0  2.28 0.2666666666666667 0  2.31304347826087 0.25 0  2.31304347826087 0.2666666666666667 0  2.329565217391304 0.25 0  2.329565217391304 0.2666666666666667 0  2.346086956521739 0.25 0  2.346086956521739 0.2666666666666667 0  2.362608695652174 0.25 0  2.362608695652174 0.2666666666666667 0  2.379130434782609 0.25 0  2.379130434782609 0.2666666666666667 0  2.395652173913044 0.25 0  2.395652173913044 0.2666666666666667 0  2.412173913043478 0.25 0  2.412173913043478 0.2666666666666667 0  2.428695652173913 0.25 0  2.428695652173913 0.2666666666666667 0  2.445217391304348 0.2666666666666667 0  2.461739130434782 0.2666666666666667 0  2.478260869565217 0.2666666666666667 0  2.494782608695652 0.2666666666666667 0  2.511304347826087 0.2666666666666667 0  2.527826086956522 0.2666666666666667 0  2.544347826086956 0.2666666666666667 0  2.560869565217391 0.2666666666666667 0  2.577391304347826 0.2666666666666667 0  2.593913043478261 0.2666666666666667 0  2.610434782608696 0.2666666666666667 0  2.62695652173913 0.2666666666666667 0  2.643478260869565 0.2666666666666667 0  2.66 0.2666666666666667 0  2.676521739130435 0.2666666666666667 0  2.693043478260869 0.2666666666666667 0  2.709565217391304 0.2666666666666667 0  2.726086956521739 0.2666666666666667 0  2.742608695652174 0.2666666666666667 0  2.759130434782609 0.2666666666666667 0  2.775652173913044 0.2666666666666667 0  2.792173913043478 0.2666666666666667 0  2.808695652173913 0.2666666666666667 0  2.825217391304347 0.2666666666666667 0  2.841739130434783 0.2666666666666667 0  2.24695652173913 0.2666666666666667 0  2.263478260869565 0.2666666666666667 0  2.263478260869565 0.2833333333333333 0  2.28 0.2833333333333333 0  2.296521739130434 0.2833333333333333 0  2.31304347826087 0.2833333333333333 0  2.329565217391304 0.2833333333333333 0  2.346086956521739 0.2833333333333333 0  2.362608695652174 0.2833333333333333 0  2.379130434782609 0.2833333333333333 0  2.395652173913044 0.2833333333333333 0  2.412173913043478 0.2833333333333333 0  2.428695652173913 0.2833333333333333 0  2.445217391304348 0.2833333333333333 0  2.461739130434782 0.2833333333333333 0  2.478260869565217 0.2833333333333333 0  2.494782608695652 0.2833333333333333 0  2.511304347826087 0.2833333333333333 0  2.527826086956522 0.2833333333333333 0  2.544347826086956 0.2833333333333333 0  2.560869565217391 0.2833333333333333 0  2.577391304347826 0.2833333333333333 0  2.593913043478261 0.2833333333333333 0  2.610434782608696 0.2833333333333333 0  2.62695652173913 0.2833333333333333 0  2.643478260869565 0.2833333333333333 0  2.66 0.2833333333333333 0  2.676521739130435 0.2833333333333333 0  2.693043478260869 0.2833333333333333 0  2.709565217391304 0.2833333333333333 0  2.726086956521739 0.2833333333333333 0  2.742608695652174 0.2833333333333333 0  2.759130434782609 0.2833333333333333 0  2.775652173913044 0.2833333333333333 0  2.792173913043478 0.2833333333333333 0  2.808695652173913 0.2833333333333333 0  2.825217391304347 0.2833333333333333 0  2.841739130434783 0.2833333333333333 0  2.858260869565217 0.2833333333333333 0  2.28 0.3 0  2.296521739130434 0.3 0  2.31304347826087 0.3 0  2.329565217391304 0.3 0  2.346086956521739 0.3 0  2.362608695652174 0.3 0  2.379130434782609 0.3 0  2.395652173913044 0.3 0  2.412173913043478 0.3 0  2.428695652173913 0.3 0  2.445217391304348 0.3 0  2.461739130434782 0.3 0  2.478260869565217 0.3 0  2.494782608695652 0.3 0  2.511304347826087 0.3 0  2.527826086956522 0.3 0  2.544347826086956 0.3 0  2.560869565217391 0.3 0  2.577391304347826 0.3 0  2.593913043478261 0.3 0  2.610434782608696 0.3 0  2.62695652173913 0.3 0  2.643478260869565 0.3 0  2.66 0.3 0  2.676521739130435 0.3 0  2.693043478260869 0.3 0  2.709565217391304 0.3 0  2.726086956521739 0.3 0  2.742608695652174 0.3 0  2.759130434782609 0.3 0  2.775652173913044 0.3 0  2.792173913043478 0.3 0  2.808695652173913 0.3 0  2.825217391304347 0.3 0  2.841739130434783 0.3 0  2.858260869565217 0.3 0  2.874782608695652 0.3 0  2.296521739130434 0.3166666666666667 0  2.31304347826087 0.3166666666666667 0  2.329565217391304 0.3166666666666667 0  2.346086956521739 0.3166666666666667 0  2.362608695652174 0.3166666666666667 0  2.379130434782609 0.3166666666666667 0  2.395652173913044 0.3166666666666667 0  2.412173913043478 0.3166666666666667 0  2.428695652173913 0.3166666666666667 0  2.445217391304348 0.3166666666666667 0  2.461739130434782 0.3166666666666667 0  2.478260869565217 0.3166666666666667 0  2.494782608695652 0.3166666666666667 0  2.511304347826087 0.3166666666666667 0  2.527826086956522 0.3166666666666667 0  2.544347826086956 0.3166666666666667 0  2.560869565217391 0.3166666666666667 0  2.577391304347826 0.3166666666666667 0  2.593913043478261 0.3166666666666667 0  2.610434782608696 0.3166666666666667 0  2.62695652173913 0.3166666666666667 0  2.643478260869565 0.3166666666666667 0  2.66 0.3166666666666667 0  2.676521739130435 0.3166666666666667 0  2.693043478260869 0.3166666666666667 0  2.709565217391304 0.3166666666666667 0  2.726086956521739 0.3166666666666667 0  2.742608695652174 0.3166666666666667 0  2.759130434782609 0.3166666666666667 0  2.775652173913044 0.3166666666666667 0  2.792173913043478 0.3166666666666667 0  2.808695652173913 0.3166666666666667 0  2.825217391304347 0.3166666666666667 0  2.841739130434783 0.3166666666666667 0  2.858260869565217 0.3166666666666667 0  2.874782608695652 0.3166666666666667 0  2.891304347826087 0.3166666666666667 0  2.31304347826087 0.3333333333333333 0  2.329565217391304 0.3333333333333333 0  2.346086956521739 0.3333333333333333 0  2.362608695652174 0.3333333333333333 0  2.379130434782609 0.3333333333333333 0  2.395652173913044 0.3333333333333333 0  2.412173913043478 0.3333333333333333 0  2.428695652173913 0.3333333333333333 0  2.445217391304348 0.3333333333333333 0  2.461739130434782 0.3333333333333333 0  2.478260869565217 0.3333333333333333 0  2.494782608695652 0.3333333333333333 0  2.511304347826087 0.3333333333333333 0  2.527826086956522 0.3333333333333333 0  2.544347826086956 0.3333333333333333 0  2.560869565217391 0.3333333333333333 0  2.577391304347826 0.3333333333333333 0  2.593913043478261 0.3333333333333333 0  2.610434782608696 0.3333333333333333 0  2.62695652173913 0.3333333333333333 0  2.643478260869565 0.3333333333333333 0  2.66 0.3333333333333333 0  2.676521739130435 0.3333333333333333 0  2.693043478260869 0.3333333333333333 0  2.709565217391304 0.3333333333333333 0  2.726086956521739 0.3333333333333333 0  2.742608695652174 0.3333333333333333 0  2.759130434782609 0.3333333333333333 0  2.775652173913044 0.3333333333333333 0  2.792173913043478 0.3333333333333333 0  2.808695652173913 0.3333333333333333 0  2.825217391304347 0.3333333333333333 0  2.841739130434783 0.3333333333333333 0  2.858260869565217 0.3333333333333333 0  2.874782608695652 0.3333333333333333 0  2.891304347826087 0.3333333333333333 0  2.907826086956522 0.3333333333333333 0  2.329565217391304 0.35 0  2.346086956521739 0.35 0  2.362608695652174 0.35 0  2.379130434782609 0.35 0  2.395652173913044 0.35 0  2.412173913043478 0.35 0  2.428695652173913 0.35 0  2.445217391304348 0.35 0  2.461739130434782 0.35 0  2.478260869565217 0.35 0  2.494782608695652 0.35 0  2.511304347826087 0.35 0  2.527826086956522 0.35 0  2.544347826086956 0.35 0  2.560869565217391 0.35 0  2.577391304347826 0.35 0  2.593913043478261 0.35 0  2.610434782608696 0.35 0  2.62695652173913 0.35 0  2.643478260869565 0.35 0  2.66 0.35 0  2.676521739130435 0.35 0  2.693043478260869 0.35 0  2.709565217391304 0.35 0  2.726086956521739 0.35 0  2.742608695652174 0.35 0  2.759130434782609 0.35 0  2.775652173913044 0.35 0  2.792173913043478 0.35 0  2.808695652173913 0.35 0  2.825217391304347 0.35 0  2.841739130434783 0.35 0  2.858260869565217 0.35 0  2.874782608695652 0.35 0  2.891304347826087 0.35 0  2.907826086956522 0.35 0  2.924347826086957 0.35 0  2.346086956521739 0.3666666666666666 0  2.362608695652174 0.3666666666666666 0  2.379130434782609 0.3666666666666666 0  2.395652173913044 0.3666666666666666 0  2.412173913043478 0.3666666666666666 0  2.428695652173913 0.3666666666666666 0  2.445217391304348 0.3666666666666666 0  2.461739130434782 0.3
[...]
<PointData  Vectors="Displacement"> 
<DataArray  type="Float64"  Name="Displacement"  NumberOfComponents="3" format="ascii">1.7029016483887432e-04 5.4344451065690960e-03 0.0000000000000000e+00  1.4927067302358444e-04 5.4364932795415762e-03 0.0000000000000000e+00  1.5127750552455736e-04 5.4779224052658787e-03 0.0000000000000000e+00  1.1131925177083234e-04 4.2782660988711753e-03 0.0000000000000000e+00  1.1473519209728050e-04 4.3363440306063315e-03 0.0000000000000000e+00  9.4250512415425413e-05 4.3223829679768485e-03 0.0000000000000000e+00  9.0820963870765349e-05 4.2636621197074415e-03 0.0000000000000000e+00  1.1807656840130530e-04 4.3947697886318991e-03 0.0000000000000000e+00  9.7611594854413704e-05 4.3815165073766834e-03 0.0000000000000000e+00  1.2130416738247530e-04 4.4534981876004926e-03 0.0000000000000000e+00  1.0085244548295016e-04 4.4410223263069851e-03 0.0000000000000000e+00  1.2437900693108682e-04 4.5124656667398970e-03 0.0000000000000000e+00  1.0392296426970934e-04 4.5008353853870520e-03 0.0000000000000000e+00  1.2726659798734563e-04 4.5715901275068674e-03 0.0000000000000000e+00  1.0678020626088453e-04 4.5608661280638523e-03 0.0000000000000000e+00  1.2994034867688795e-04 4.6307731416569426e-03 0.0000000000000000e+00  1.0939274275681222e-04 4.6210042661016535e-03 0.0000000000000000e+00  1.3238354152322800e-04 4.6899039025216699e-03 0.0000000000000000e+00  1.1174296923894572e-04 4.6811250779187023e-03 0.0000000000000000e+00  1.3458973523782988e-04 4.7488636540414216e-03 0.0000000000000000e+00  1.1382726068419436e-04 4.7410960957660359e-03 0.0000000000000000e+00  1.3656178222714674e-04 4.8075294900285339e-03 0.0000000000000000e+00  1.1565435878843993e-04 4.8007826544840572e-03 0.0000000000000000e+00  1.3830979574096583e-04 4.8657768079491586e-03 0.0000000000000000e+00  1.1724243792027995e-04 4.8600515139953981e-03 0.0000000000000000e+00  1.3984846178096487e-04 4.9234799739361476e-03 0.0000000000000000e+00  1.1861524902528911e-04 4.9187720747984748e-03 0.0000000000000000e+00  1.4119418650546296e-04 4.9805109322938980e-03 0.0000000000000000e+00  1.1979778431611507e-04 4.9768147658524765e-03 0.0000000000000000e+00  1.4236275308567627e-04 5.0367357308702494e-03 0.0000000000000000e+00  1.2081209649851496e-04 5.0340462772362603e-03 0.0000000000000000e+00  1.4336845752642750e-04 5.0920092443588437e-03 0.0000000000000000e+00  1.2167451420882834e-04 5.0903214465416805e-03 0.0000000000000000e+00  1.4422587515319963e-04 5.1461690302025496e-03 0.0000000000000000e+00  1.2239616932711525e-04 5.1454726165882153e-03 0.0000000000000000e+00  1.4495512002940799e-04 5.1990299107626562e-03 0.0000000000000000e+00  1.2298894846448795e-04 5.1992988652072676e-03 0.0000000000000000e+00  1.4559131016478614e-04 5.2503811626414274e-03 0.0000000000000000e+00  1.2347771184516954e-04 5.2515563530495368e-03 0.0000000000000000e+00  1.4619979961804405e-04 5.2999866213994141e-03 0.0000000000000000e+00  1.2392443692927545e-04 5.3019469225313266e-03 0.0000000000000000e+00  1.4689964077775763e-04 5.3476079260992068e-03 0.0000000000000000e+00  1.2445102341374038e-04 5.3501209207402504e-03 0.0000000000000000e+00  1.4786107511320090e-04 5.3931097009988901e-03 0.0000000000000000e+00  1.2523546975237642e-04 5.3958697661064710e-03 0.0000000000000000e+00  1.2653812140489396e-04 5.4392229789868808e-03 0.0000000000000000e+00  1.2851004076248771e-04 5.4804684119908031e-03 0.0000000000000000e+00  1.3122559329209737e-04 5.5202109408295482e-03 0.0000000000000000e+00  5.4596727472216225e-05 3.7036776911479074e-03 0.0000000000000000e+00  5.9045646283289188e-05 3.7556856920984171e-03 0.0000000000000000e+00  3.8813007368650980e-05 3.7343036523749653e-03 0.0000000000000000e+00  3.4420992672544573e-05 3.6813823494031722e-03 0.0000000000000000e+00  6.3178418223240731e-05 3.8094176478897126e-03 0.0000000000000000e+00  4.2786388580798757e-05 3.7891969738092232e-03 0.0000000000000000e+00  6.6967687361863212e-05 3.8643619586906284e-03 0.0000000000000000e+00  4.6311289525580903e-05 3.8452520648410314e-03 0.0000000000000000e+00  7.0493832363374275e-05 3.9200889054551817e-03 0.0000000000000000e+00  4.9539036235101319e-05 3.9018994545089781e-03 0.0000000000000000e+00  7.3872239380887169e-05 3.9763434002152475e-03 0.0000000000000000e+00  5.2647988913237363e-05 3.9588823852322892e-03 0.0000000000000000e+00  7.7202609382077633e-05 4.0330113552172553e-03 0.0000000000000000e+00  5.5770781054398786e-05 4.0161414688349283e-03 0.0000000000000000e+00  8.0548971741325944e-05 4.0900638819118835e-03 0.0000000000000000e+00  5.8978803009860317e-05 4.0737127639881012e-03 0.0000000000000000e+00  8.3939014479017849e-05 4.1475106975618105e-03 0.0000000000000000e+00  6.2292531097269752e-05 4.1316599769683207e-03 0.0000000000000000e+00  8.7370894465238475e-05 4.2053717882316590e-03 0.0000000000000000e+00  6.5696757418361797e-05 4.1900430140221845e-03 0.0000000000000000e+00  6.9152493260425457e-05 4.2489054256635876e-03 0.0000000000000000e+00  7.2605270714858178e-05 4.3082682175423440e-03 0.0000000000000000e+00  7.5991503215123811e-05 4.3681256800897168e-03 0.0000000000000000e+00  7.9244354046354763e-05 4.4284421721635945e-03 0.0000000000000000e+00  8.2300290811439689e-05 4.4891495142020199e-03 0.0000000000000000e+00  8.5106343047720853e-05 4.5501469190897138e-03 0.0000000000000000e+00  8.7625794472816177e-05 4.6113071837188989e-03 0.0000000000000000e+00  8.9840803012176102e-05 4.6724865217938434e-03 0.0000000000000000e+00  9.1752113187556778e-05 4.7335343358861316e-03 0.0000000000000000e+00  9.3376665064026510e-05 4.7943009695863180e-03 0.0000000000000000e+00  9.4743713215434585e-05 4.8546428342429926e-03 0.0000000000000000e+00  9.5889782797263780e-05 4.9144245440270323e-03 0.0000000000000000e+00  9.6852740311331349e-05 4.9735175179018267e-03 0.0000000000000000e+00  9.7665367596330133e-05 5.0317943868057706e-03 0.0000000000000000e+00  9.8349488106414204e-05 5.0891177656412637e-03 0.0000000000000000e+00  9.8913484173407198e-05 5.1453233961700701e-03 0.0000000000000000e+00  9.9357235122059955e-05 5.2002001834316426e-03 0.0000000000000000e+00  9.9691576574966216e-05 5.2534713494569573e-03 0.0000000000000000e+00  9.9977550569661864e-05 5.3047536822508935e-03 0.0000000000000000e+00  1.0039512520304164e-04 5.3535697254342030e-03 0.0000000000000000e+00  1.0102765380715526e-04 5.3995888403647737e-03 0.0000000000000000e+00  1.0208295282263511e-04 5.4427030445020081e-03 0.0000000000000000e+00  1.0406695836499388e-04 5.4836688285825374e-03 0.0000000000000000e+00  1.0639387509966597e-04 5.5230124771817437e-03 0.0000000000000000e+00  1.1071562616451889e-04 5.5623791822404754e-03 0.0000000000000000e+00  2.5400274959687035e-05 3.5821209338863279e-03 0.0000000000000000e+00  2.9885625803160095e-05 3.6306323456223935e-03 0.0000000000000000e+00  8.2110004666496358e-06 3.6068723844705250e-03 0.0000000000000000e+00  1.2899364763012773e-05 3.6583407878871136e-03 0.0000000000000000e+00  1.7401546773708241e-05 3.7123137814377874e-03 0.0000000000000000e+00  2.1239725554816563e-05 3.7687412505096945e-03 0.0000000000000000e+00  2.4444012792927618e-05 3.8261488194806081e-03 0.0000000000000000e+00  2.7314319437566418e-05 3.8837963400117186e-03 0.0000000000000000e+00  3.0123240421149592e-05 3.9414875802357549e-03 0.0000000000000000e+00  3.3037420844946005e-05 3.9992751228197319e-03 0.0000000000000000e+00  3.6125147233293148e-05 4.0572966256645577e-03 0.0000000000000000e+00  3.9388998768430363e-05 4.1156862609466006e-03 0.0000000000000000e+00  4.2793281475141225e-05 4.1745498254256658e-03 0.0000000000000000e+00  4.6279634956510630e-05 4.2339618276868024e-03 0.0000000000000000e+00  4.9775410293857744e-05 4.2939644064135642e-03 0.0000000000000000e+00  5.3199311258068178e-05 4.3545649632684086e-03 0.0000000000000000e+00  5.6466977261416936e-05 4.4157328432050912e-03 0.0000000000000000e+00  5.9498788312208288e-05 4.4773947626116752e-03 0.0000000000000000e+00  6.2229972985458767e-05 4.5394333740051505e-03 0.0000000000000000e+00  6.4618204448676180e-05 4.6016975078312710e-03 0.0000000000000000e+00  6.6646321841915787e-05 4.6640174693207935e-03 0.0000000000000000e+00  6.8321172736291781e-05 4.7262188573692224e-03 0.0000000000000000e+00  6.9670230457504888e-05 4.7881327997223878e-03 0.0000000000000000e+00  7.0736838485625382e-05 4.8496027961363371e-03 0.0000000000000000e+00  7.1574200356938034e-05 4.9104882043234698e-03 0.0000000000000000e+00  7.2237989478841222e-05 4.9706637139313682e-03 0.0000000000000000e+00  7.2777579270993502e-05 5.0300140196355217e-03 0.0000000000000000e+00  7.3226687046970023e-05 5.0884208143411828e-03 0.0000000000000000e+00  7.3594264639017582e-05 5.1457382226489891e-03 0.0000000000000000e+00  7.3864622871299795e-05 5.2017596141293657e-03 0.0000000000000000e+00  7.4017801929137007e-05 5.2561707662731492e-03 0.0000000000000000e+00  7.4140917097092974e-05 5.3084714574236540e-03 0.0000000000000000e+00  7.4509801827008179e-05 5.3578838736469550e-03 0.0000000000000000e+00  7.5514112855649883e-05 5.4044359472225686e-03 0.0000000000000000e+00  7.6310676541182010e-05 5.4473013414034080e-03 0.0000000000000000e+00  7.7391738250054626e-05 5.4870040025335022e-03 0.0000000000000000e+00  8.0953475963177748e-05 5.5278163064798489e-03 0.0000000000000000e+00  7.9670860199847091e-05 5.5621376876399120e-03 0.0000000000000000e+00  7.9084051090350080e-05 5.5948940959679857e-03 0.0000000000000000e+00  -9.9996821569048601e-06 3.6343120629315395e-03 0.0000000000000000e+00  -5.2529585208371979e-06 3.6895072233144532e-03 0.0000000000000000e+00  -1.5847258642967898e-06 3.7481390221095314e-03 0.0000000000000000e+00  1.1954181174707091e-06 3.8072118084162766e-03 0.0000000000000000e+00  3.6468567426067964e-06 3.8658997169313380e-03 0.0000000000000000e+00  6.1531564045694684e-06 3.9242180179489775e-03 0.0000000000000000e+00  8.8960965617978161e-06 3.9824214444362741e-03 0.0000000000000000e+00  1.1916880740879259e-05 4.0407941821540569e-03 0.0000000000000000e+00  1.5184181370684102e-05 4.0995521915359635e-03 0.0000000000000000e+00  1.8634731739219037e-05 4.1588469480715352e-03 0.0000000000000000e+00  2.2188779459840695e-05 4.2187829430346720e-03 0.0000000000000000e+00  2.5755176623559321e-05 4.2794238303205199e-03 0.0000000000000000e+00  2.9234203762458791e-05 4.3407915545516530e-03 0.0000000000000000e+00  3.2521711180565931e-05 4.4028618000137359e-03 0.0000000000000000e+00  3.5518716133110570e-05 4.4655543305273937e-03 0.0000000000000000e+00  3.8146618053892635e-05 4.5287275407002673e-03 0.0000000000000000e+00  4.0357514207675050e-05 4.5921964394592214e-03 0.0000000000000000e+00  4.2136311939891403e-05 4.6557566255941013e-03 0.0000000000000000e+00  4.3497820316439986e-05 4.7192030601844927e-03 0.0000000000000000e+00  4.4482024799172148e-05 4.7823425349300501e-03 0.0000000000000000e+00  4.5148660898580737e-05 4.8450020773100821e-03 0.0000000000000000e+00  4.5570841275587068e-05 4.9070342022849182e-03 0.0000000000000000e+00  4.5826822935302427e-05 4.9683182959721073e-03 0.0000000000000000e+00  4.5988597618189806e-05 5.0287570584955955e-03 0.0000000000000000e+00  4.6109221410518482e-05 5.0882637614354798e-03 0.0000000000000000e+00  4.6209381915916831e-05 5.1467372950750470e-03 0.0000000000000000e+00  4.6251522713620592e-05 5.2040049597920782e-03 0.0000000000000000e+00  4.6169708125112229e-05 5.2597448714382334e-03 0.0000000000000000e+00  4.6011200313011645e-05 5.3131684054626479e-03 0.0000000000000000e+00  4.6559188247431565e-05 5.3631070576832477e-03 0.0000000000000000e+00  4.7809148625063356e-05 5.4091976626531642e-03 0.0000000000000000e+00  5.2235494257292236e-05 5.4543490839797171e-03 0.0000000000000000e+00  4.9487060983168089e-05 5.4917424305530749e-03 0.0000000000000000e+00  4.8586885206400055e-05 5.5274866143623534e-03 0.0000000000000000e+00  4.7968970193933268e-05 5.5618311580231472e-03 0.0000000000000000e+00  4.7605536853140247e-05 5.5947250460676966e-03 0.0000000000000000e+00  4.7507284044766892e-05 5.6264428011752786e-03 0.0000000000000000e+00  -2.9324234025196678e-05 3.6655333242038238e-03 0.0000000000000000e+00  -2.5913122138560487e-05 3.7276300007795487e-03 0.0000000000000000e+00  -2.3689117068862792e-05 3.7886949066744894e-03 0.0000000000000000e+00  -2.1674861915974465e-05 3.8483487654996152e-03 0.0000000000000000e+00  -1.9404615044452301e-05 3.9071124365912735e-03 0.0000000000000000e+00  -1.6731187311152679e-05 3.9655565737083181e-03 0.0000000000000000e+00  -1.3677874985310904e-05 4.0241545900718840e-03 0.0000000000000000e+00  -1.0326315424585959e-05 4.0831982250745637e-03 0.0000000000000000e+00  -6.7691470146889738e-06 4.1428727034643741e-03 0.0000000000000000e+00  -3.1040486895706154e-06 4.2033072877239539e-03 0.0000000000000000e+00  5.6301430091068900e-07 4.2645871948447205e-03 0.0000000000000000e+00  4.1153555417818495e-06 4.3267521553226763e-03 0.0000000000000000e+00  7.4267398301541746e-06 4.3897885926997351e-03 0.0000000000000000e+00  1.0374165132759886e-05 4.4536083903396334e-03 0.0000000000000000e+00  1.2862889489542971e-05 4.5180338435568280e-03 0.0000000000000000e+00  1.4840360981121714e-05 4.5828321800438230e-03 0.0000000000000000e+00  1.6295835853609460e-05 4.6477534470427172e-03 0.0000000000000000e+00  1.7254081721937893e-05 4.7125544848208249e-03 0.0000000000000000e+00  1.7768786591095678e-05 4.7770122372317037e-03 0.0000000000000000e+00  1.7916727928659152e-05 4.8409328562086275e-03 0.0000000000000000e+00  1.7791970615942176e-05 4.9041588030165105e-03 0.0000000000000000e+00  1.7498373474549200e-05 4.9665737162681153e-03 0.0000000000000000e+00  1.7135794573738861e-05 5.0281046105095659e-03 0.0000000000000000e+00  1.6779263218941374e-05 5.0887089619776017e-03 0.0000000000000000e+00  1.6462437999596386e-05 5.1483544150773995e-03 0.0000000000000000e+00  1.6154962505569890e-05 5.2070011074409348e-03 0.0000000000000000e+00  1.5615691533098785e-05 5.2643511891705356e-03 0.0000000000000000e+00  1.4969039312203053e-05 5.3193812046983336e-03 0.0000000000000000e+00  1.4821225215478976e-05 5.3689624024911703e-03 0.0000000000000000e+00  1.7918367999684148e-05 5.4161797015591312e-03 0.0000000000000000e+00  1.6434011914728090e-05 5.4543388556445140e-03 0.0000000000000000e+00  1.5852405194246225e-05 5.4911682485679382e-03 0.0000000000000000e+00  1.5164028846555745e-05 5.5272017418006502e-03 0.0000000000000000e+00  1.4862319211860298e-05 5.5617015928526572e-03 0.0000000000000000e+00  1.4846148770588328e-05 5.5947774161685913e-03 0.0000000000000000e+00  1.5053016810844906e-05 5.6266248358925984e-03 0.0000000000000000e+00  1.5577922619353892e-05 5.6574176112493373e-03 0.0000000000000000e+00  -5.2230335039183537e-05 3.7077560013170480e-03 0.0000000000000000e+00  -5.0593795071571461e-05 3.7709439394919666e-03 0.0000000000000000e+00  -4.8872805494998036e-05 3.8312596724371351e-03 0.0000000000000000e+00  -4.6637595951983232e-05 3.8901546340113728e-03 0.0000000000000000e+00  -4.3843937629877718e-05 3.9486033188727704e-03 0.0000000000000000e+00  -4.0614003666470178e-05 4.0072917136816663e-03 0.0000000000000000e+00  -3.7082187386666393e-05 4.0665449242445108e-03 0.0000000000000000e+00  -3.3358014352047005e-05 4.1265538083317659e-03 0.0000000000000000e+00  -2.9544543230577485e-05 4.1874647386568892e-03 0.0000000000000000e+00  -2.5753835642898549e-05 4.2493863366009658e-03 0.0000000000000000e+00  -2.2115808577337123e-05 4.3123836221158687e-03 0.0000000000000000e+00  -1.8782200757612659e-05 4.3764647968141668e-03 0.0000000000000000e+00  -1.5907729399739089e-05 4.4415352033274850e-03 0.0000000000000000e+00  -1.3605618071174313e-05 4.5073609731490867e-03 0.0000000000000000e+00  -1.1930043549441821e-05 4.5736414641572203e-03 0.0000000000000000e+00  -1.0883482117867922e-05 4.6400686737231344e-03 0.0000000000000000e+00  -1.0429000296670343e-05 4.7063543527094331e-03 0.0000000000000000e+00  -1.0499106214148536e-05 4.7722407166297118e-03 0.0000000000000000e+00  -1.1001665402206906e-05 4.8375085053673928e-03 0.0000000000000000e+00  -1.1824287817489736e-05 4.9019850815400839e-03 0.0000000000000000e+00  -1.2838606530051193e-05 4.9655535215106768e-03 0.0000000000000000e+00  -1.3912784986013515e-05 5.0281689154597631e-03 0.0000000000000000e+00  -1.4940167982884343e-05 5.0898558363993273e-03 0.0000000000000000e+00  -1.5897202262214549e-05 5.1506696812259455e-03 0.0000000000000000e+00  -1.6854024388478397e-05 5.2107255387525194e-03 0.0000000000000000e+00  -1.7897140673680832e-05 5.2703086460276823e-03 0.0000000000000000e+00  -1.9756562594753463e-05 5.3270094155671204e-03 0.0000000000000000e+00  -1.8098150742739985e-05 5.3771495718050221e-03 0.0000000000000000e+00  -1.8854670943656800e-05 5.4160593926066720e-03 0.0000000000000000e+00  -1.9380341330719620e-05 5.4540607596835749e-03 0.0000000000000000e+00  -1.9766488440452669e-05 5.4910103690957992e-03 0.0000000000000000e+00  -1.9911138484267723e-05 5.5271318586393014e-03 0.0000000000000000e+00  -1.9827473332317858e-05 5.5617922039871209e-03 0.0000000000000000e+00  -1.9419454549835642e-05 5.5950447914197652e-03 0.0000000000000000e+00  -1.7498166085951897e-05 5.6267029054752728e-03 0.0000000000000000e+00  -2.1535377611097836e-05 5.6648346296057214e-03 0.0000000000000000e+00  -2.6649870884462501e-05 5.7022976226998078e-03 0.0000000000000000e+00  -7.9903508312822210e-05 3.7543056191491207e-03 0.0000000000000000e+00  -7.7993076628428385e-05 3.8146441557171378e-03 0.0000000000000000e+00  -7.5432495657381748e-05 3.8732370905069122e-03 0.0000000000000000e+00  -7.2270250745218369e-05 3.9314201853588903e-03 0.0000000000000000e+00  -6.8718825595933823e-05 3.9900923465609282e-03 0.0000000000000000e+00  -6.4934483040915710e-05 4.0495065392109116e-03 0.0000000000000000e+00  -6.1010523432106802e-05 4.1098173181506993e-03 0.0000000000000000e+00  -5.7035853784765487e-05 4.1711852417129994e-03 0.0000000000000000e+00  -5.3118016035841331e-05 4.2337490665406863e-03 0.0000000000000000e+00  -4.9395812264568171e-05 4.2976139081684246e-03 0.0000000000000000e+00  -4.6053441478360482e-05 4.3628338722061762e-03 0.0000000000000000e+00  -4.3290942744447233e-05 4.4293134962636671e-03 0.0000000000000000e+00  -4.1240803315603698e-05 4.4967250913286192e-03 0.0000000000000000e+00  -3.9951051215157336e-05 4.5646713444841072e-03 0.0000000000000000e+00  -3.9409389352225965e-05 4.6327738122741808e-03 0.0000000000000000e+00  -3.9564618713244174e-05 4.7006947758247821e-03 0.0000000000000000e+00  -4.0336707270914796e-05 4.7681387775658718e-03 0.0000000000000000e+00  -4.1622030592533087e-05 4.8348577333090312e-03 0.0000000000000000e+00  -4.3296320142653747e-05 4.9006580373278427e-03 0.0000000000000000e+00  -4.5214038653794159e-05 4.9654109040161657e-03 0.0000000000000000e+00  -4.7215240264588465e-05 5.0290902996346244e-03 0.0000000000000000e+00  -4.9142631213469376e-05 5.0918018239711161e-03 0.0000000000000000e+00  -5.0923906253212035e-05 5.1537996158309372e-03 0.0000000000000000e+00  -5.2898959074608191e-05 5.2153501885859287e-03 0.0000000000000000e+00  -5.5496127158319537e-05 5.2768181150218904e-03 0.0000000000000000e+00  -5.5567971022299302e-05 5.3378435274357254e-03 0.0000000000000000e+00  -5.5587770153785074e-05 5.3767243663781546e-03 0.0000000000000000e+00  -5.5949887388424009e-05 5.4157921074163692e-03 0.0000000000000000e+00  -5.6262159678108183e-05 5.4538885846298060e-03 0.0000000000000000e+00  -5.6355968328387009e-05 5.4910165379940283e-03 0.0000000000000000e+00  -5.6315648603158377e-05 5.5271903007539673e-03 0.0000000000000000e+00  -5.5718869439970713e-05 5.5619831667116492e-03 0.0000000000000000e+00  -5.6893718011319955e-05 5.5997452815703154e-03 0.0000000000000000e+00  -5.9336771742245165e-05 5.6351134567353377e-03 0.0000000000000000e+00  -6.3250722664015928e-05 5.6737453601262084e-03 0.0000000000000000e+00  -6.7576732693418976e-05 5.7117340981217291e-03 0.0000000000000000e+00  -7.2186554651175225e-05 5.7486739404368726e-03 0.0000000000000000e+00  -1.0833187775374205e-04 3.7983726224457459e-03 0.0000000000000000e+00  -1.0521212557687410e-04 3.8561872816303081e-03 0.0000000000000000e+00  -1.0156437698946882e-04 3.9138305216571473e-03 