<?xml version="1.0"?>
<VTKFile type="UnstructuredGrid"  version="0.1"  >
<UnstructuredGrid>
<Piece  NumberOfPoints="608" NumberOfCells="1117">
<Points>
<DataArray  type="Float64"  NumberOfComponents="3"  format="ascii">0.08260869565217391 0 0  0.09913043478260869 0 0  0.09913043478260869 0.01666666666666667 0  0.1156521739130435 0 0  0.1156521739130435 0.01666666666666667 0  0.1321739130434783 0 0  0.1321739130434783 0.01666666666666667 0  0.148695652173913 0 0  0.148695652173913 0.01666666666666667 0  0.1652173913043478 0 0  0.1652173913043478 0.01666666666666667 0  0.1817391304347826 0 0  0.1817391304347826 0.01666666666666667 0  0.1982608695652174 0 0  0.1982608695652174 0.01666666666666667 0  0.2147826086956522 0 0  0.2147826086956522 0.01666666666666667 0  0.2313043478260869 0 0  0.2313043478260869 0.01666666666666667 0  0.2478260869565218 0 0  0.2478260869565218 0.01666666666666667 0  0.2643478260869565 0 0  0.2643478260869565 0.01666666666666667 0  0.2808695652173913 0 0  0.2808695652173913 0.01666666666666667 0  0.2973913043478261 0 0  0.2973913043478261 0.01666666666666667 0  0.3139130434782609 0 0  0.3139130434782609 0.01666666666666667 0  0.3304347826086956 0 0  0.3304347826086956 0.01666666666666667 0  0.3469565217391304 0 0  0.3469565217391304 0.01666666666666667 0  0.3634782608695652 0 0  0.3634782608695652 0.01666666666666667 0  0.3799999999999999 0 0  0.3799999999999999 0.01666666666666667 0  0.3965217391304348 0 0  0.3965217391304348 0.01666666666666667 0  0.4130434782608696 0 0  0.4130434782608696 0.01666666666666667 0  0.4295652173913043 0.01666666666666667 0  0.1156521739130435 0.03333333333333333 0  0.1321739130434783 0.03333333333333333 0  0.148695652173913 0.03333333333333333 0  0.1652173913043478 0.03333333333333333 0  0.1817391304347826 0.03333333333333333 0  0.1982608695652174 0.03333333333333333 0  0.2147826086956522 0.03333333333333333 0  0.2313043478260869 0.03333333333333333 0  0.2478260869565218 0.03333333333333333 0  0.2643478260869565 0.03333333333333333 0  0.2808695652173913 0.03333333333333333 0  0.2973913043478261 0.03333333333333333 0  0.3139130434782609 0.03333333333333333 0  0.3304347826086956 0.03333333333333333 0  0.3469565217391304 0.03333333333333333 0  0.3634782608695652 0.03333333333333333 0  0.3799999999999999 0.03333333333333333 0  0.3965217391304348 0.03333333333333333 0  0.4130434782608696 0.03333333333333333 0  0.4295652173913043 0.03333333333333333 0  0.4460869565217391 0.03333333333333333 0  0.1321739130434783 0.05 0  0.148695652173913 0.05 0  0.1652173913043478 0.05 0  0.1817391304347826 0.05 0  0.1982608695652174 0.05 0  0.2147826086956522 0.05 0  0.2313043478260869 0.05 0  0.2478260869565218 0.05 0  0.2643478260869565 0.05 0  0.2808695652173913 0.05 0  0.2973913043478261 0.05 0  0.3139130434782609 0.05 0  0.3304347826086956 0.05 0  0.3469565217391304 0.05 0  0.3634782608695652 0.05 0  0.3799999999999999 0.05 0  0.3965217391304348 0.05 0  0.4130434782608696 0.05 0  0.4295652173913043 0.05 0  0.4460869565217391 0.05 0  0.4626086956521739 0.05 0  0.148695652173913 0.06666666666666667 0  0.1652173913043478 0.06666666666666667 0  0.1817391304347826 0.06666666666666667 0  0.1982608695652174 0.06666666666666667 0  0.2147826086956522 0.06666666666666667 0  0.2313043478260869 0.06666666666666667 0  0.2478260869565218 0.06666666666666667 0  0.2643478260869565 0.06666666666666667 0  0.2808695652173913 0.06666666666666667 0  0.2973913043478261 0.06666666666666667 0  0.3139130434782609 0.06666666666666667 0  0.3304347826086956 0.06666666666666667 0  0.3469565217391304 0.06666666666666667 0  0.3634782608695652 0.06666666666666667 0  0.3799999999999999 0.06666666666666667 0  0.3965217391304348 0.06666666666666667 0  0.4130434782608696 0.06666666666666667 0  0.4295652173913043 0.06666666666666667 0  0.4460869565217391 0.06666666666666667 0  0.4626086956521739 0.06666666666666667 0  0.4791304347826086 0.06666666666666667 0  0.1652173913043478 0.08333333333333333 0  0.1817391304347826 0.08333333333333333 0  0.1982608695652174 0.08333333333333333 0  0.2147826086956522 0.08333333333333333 0  0.2313043478260869 0.08333333333333333 0  0.2478260869565218 0.08333333333333333 0  0.2643478260869565 0.08333333333333333 0  0.2808695652173913 0.08333333333333333 0  0.2973913043478261 0.08333333333333333 0  0.3139130434782609 0.08333333333333333 0  0.3304347826086956 0.08333333333333333 0  0.3469565217391304 0.08333333333333333 0  0.3634782608695652 0.08333333333333333 0  0.3799999999999999 0.08333333333333333 0  0.3965217391304348 0.08333333333333333 0  0.4130434782608696 0.08333333333333333 0  0.4295652173913043 0.08333333333333333 0  0.4460869565217391 0.08333333333333333 0  0.4626086956521739 0.08333333333333333 0  0.4791304347826086 0.08333333333333333 0  0.4956521739130435 0.08333333333333333 0  0.1817391304347826 0.1 0  0.1982608695652174 0.1 0  0.2147826086956522 0.1 0  0.2313043478260869 0.1 0  0.2478260869565218 0.1 0  0.2643478260869565 0.1 0  0.2808695652173913 0.1 0  0.2973913043478261 0.1 0  0.3139130434782609 0.1 0  0.3304347826086956 0.1 0  0.3469565217391304 0.1 0  0.3634782608695652 0.1 0  0.3799999999999999 0.1 0  0.3965217391304348 0.1 0  0.4130434782608696 0.1 0  0.4295652173913043 0.1 0  0.4460869565217391 0.1 0  0.4626086956521739 0.1 0  0.4791304347826086 0.1 0  0.4956521739130435 0.1 0  0.5121739130434783 0.1 0  0.1982608695652174 0.1166666666666667 0  0.2147826086956522 0.1166666666666667 0  0.2313043478260869 0.1166666666666667 0  0.2478260869565218 0.1166666666666667 0  0.2643478260869565 0.1166666666666667 0  0.2808695652173913 0.1166666666666667 0  0.2973913043478261 0.1166666666666667 0  0.3139130434782609 0.1166666666666667 0  0.3304347826086956 0.1166666666666667 0  0.3469565217391304 0.1166666666666667 0  0.3634782608695652 0.1166666666666667 0  0.3799999999999999 0.1166666666666667 0  0.3965217391304348 0.1166666666666667 0  0.4130434782608696 0.1166666666666667 0  0.4295652173913043 0.1166666666666667 0  0.4460869565217391 0.1166666666666667 0  0.4626086956521739 0.1166666666666667 0  0.4791304347826086 0.1166666666666667 0  0.4956521739130435 0.1166666666666667 0  0.5121739130434783 0.1166666666666667 0  0.528695652173913 0.1166666666666667 0  0.2147826086956522 0.1333333333333333 0  0.2313043478260869 0.1333333333333333 0  0.2478260869565218 0.1333333333333333 0  0.2643478260869565 0.1333333333333333 0  0.2808695652173913 0.1333333333333333 0  0.2973913043478261 0.1333333333333333 0  0.3139130434782609 0.1333333333333333 0  0.3304347826086956 0.1333333333333333 0  0.3469565217391304 0.1333333333333333 0  0.3634782608695652 0.1333333333333333 0  0.3799999999999999 0.1333333333333333 0  0.3965217391304348 0.1333333333333333 0  0.4130434782608696 0.1333333333333333 0  0.4295652173913043 0.1333333333333333 0  0.4460869565217391 0.1333333333333333 0  0.4626086956521739 0.1333333333333333 0  0.4791304347826086 0.1333333333333333 0  0.4956521739130435 0.1333333333333333 0  0.5121739130434783 0.1333333333333333 0  0.528695652173913 0.1333333333333333 0  0.5452173913043478 0.1333333333333333 0  0.2313043478260869 0.15 0  0.2478260869565218 0.15 0  0.2643478260869565 0.15 0  0.2808695652173913 0.15 0  0.2973913043478261 0.15 0  0.3139130434782609 0.15 0  0.3304347826086956 0.15 0  0.3469565217391304 0.15 0  0.3634782608695652 0.15 0  0.3799999999999999 0.15 0  0.3965217391304348 0.15 0  0.4130434782608696 0.15 0  0.4295652173913043 0.15 0  0.4460869565217391 0.15 0  0.4626086956521739 0.15 0  0.4791304347826086 0.15 0  0.4956521739130435 0.15 0  0.5121739130434783 0.15 0  0.528695652173913 0.15 0  0.5452173913043478 0.15 0  0.5617391304347825 0.15 0  0.2478260869565218 0.1666666666666667 0  0.2643478260869565 0.1666666666666667 0  0.2808695652173913 0.1666666666666667 0  0.2973913043478261 0.1666666666666667 0  0.3139130434782609 0.1666666666666667 0  0.3304347826086956 0.1666666666666667 0  0.3469565217391304 0.1666666666666667 0  0.3634782608695652 0.1666666666666667 0  0.3799999999999999 0.1666666666666667 0  0.3965217391304348 0.1666666666666667 0  0.4130434782608696 0.1666666666666667 0  0.4295652173913043 0.1666666666666667 0  0.4460869565217391 0.1666666666666667 0  0.4626086956521739 0.1666666666666667 0  0.4791304347826086 0.1666666666666667 0  0.4956521739130435 0.1666666666666667 0  0.5121739130434783 0.1666666666666667 0  0.528695652173913 0.1666666666666667 0  0.5452173913043478 0.1666666666666667 0  0.5617391304347825 0.1666666666666667 0  0.5782608695652174 0.1666666666666667 0  0.2643478260869565 0.1833333333333333 0  0.2808695652173913 0.1833333333333333 0  0.2973913043478261 0.1833333333333333 0  0.3139130434782609 0.1833333333333333 0  0.3304347826086956 0.1833333333333333 0  0.3469565217391304 0.1833333333333333 0  0.3634782608695652 0.1833333333333333 0  0.3799999999999999 0.1833333333333333 0  0.3965217391304348 0.1833333333333333 0  0.4130434782608696 0.1833333333333333 0  0.4295652173913043 0.1833333333333333 0  0.4460869565217391 0.1833333333333333 0  0.4626086956521739 0.1833333333333333 0  0.4791304347826086 0.1833333333333333 0  0.4956521739130435 0.1833333333333333 0  0.5121739130434783 0.1833333333333333 0  0.528695652173913 0.1833333333333333 0  0.5452173913043478 0.1833333333333333 0  0.5617391304347825 0.1833333333333333 0  0.5782608695652174 0.1833333333333333 0  0.2808695652173913 0.2 0  0.2973913043478261 0.2 0  0.3139130434782609 0.2 0  0.3304347826086956 0.2 0  0.3469565217391304 0.2 0  0.3634782608695652 0.2 0  0.3799999999999999 0.2 0  0.3965217391304348 0.2 0  0.4130434782608696 0.2 0  0.4295652173913043 0.2 0  0.4460869565217391 0.2 0  0.4626086956521739 0.2 0  0.4791304347826086 0.2 0  0.4956521739130435 0.2 0  0.5121739130434783 0.2 0  0.528695652173913 0.2 0  0.5452173913043478 0.2 0  0.5617391304347825 0.2 0  0.5782608695652174 0.2 0  0.2973913043478261 0.2166666666666667 0  0.3139130434782609 0.2166666666666667 0  0.3304347826086956 0.2166666666666667 0  0.3469565217391304 0.2166666666666667 0  0.36347826086956
[...]
<PointData  Vectors="Displacement"> 
<DataArray  type="Float64"  Name="Displacement"  NumberOfComponents="3" format="ascii">4.3815250742126823e-05 5.1312075709026721e-05 0.0000000000000000e+00  5.2613819768835976e-05 7.4115825455725763e-05 0.0000000000000000e+00  2.7652023548575703e-05 7.1947867333340342e-05 0.0000000000000000e+00  6.1184976569541666e-05 1.0132450745082876e-04 0.0000000000000000e+00  3.1828603628288251e-05 9.9238077612340682e-05 0.0000000000000000e+00  6.9503614327696774e-05 1.3284425148012355e-04 0.0000000000000000e+00  3.5795463165404466e-05 1.3087578930006253e-04 0.0000000000000000e+00  7.7639531121709933e-05 1.6852876982107945e-04 0.0000000000000000e+00  3.9518220933027186e-05 1.6664898515155027e-04 0.0000000000000000e+00  8.5809763806288716e-05 2.0840662397066909e-04 0.0000000000000000e+00  4.3070044724434157e-05 2.0648348301073285e-04 0.0000000000000000e+00  9.4096350460536271e-05 2.5310084020431934e-04 0.0000000000000000e+00  4.6476106514682647e-05 2.5108384701590705e-04 0.0000000000000000e+00  1.0211861259415151e-04 3.0338118603042444e-04 0.0000000000000000e+00  4.9579901490599442e-05 3.0148192010270798e-04 0.0000000000000000e+00  1.0959258364385539e-04 3.5865795449679927e-04 0.0000000000000000e+00  5.2487346432966963e-05 3.5688847609802898e-04 0.0000000000000000e+00  1.1643997852814718e-04 4.1827466357201033e-04 0.0000000000000000e+00  5.5297897804095698e-05 4.1661129994732327e-04 0.0000000000000000e+00  1.2260356330562558e-04 4.8169759667035202e-04 0.0000000000000000e+00  5.8029762120888468e-05 4.8015529066830709e-04 0.0000000000000000e+00  1.2803202664792877e-04 5.4825791173200307e-04 0.0000000000000000e+00  6.0709610356642788e-05 5.4684405076481195e-04 0.0000000000000000e+00  1.3269800083266331e-04 6.1720748262326941e-04 0.0000000000000000e+00  6.3367384394542582e-05 6.1592468711239249e-04 0.0000000000000000e+00  1.3658969244051845e-04 6.8777550266088466e-04 0.0000000000000000e+00  6.6014437491185106e-05 6.8662844907716001e-04 0.0000000000000000e+00  1.3970361778418934e-04 7.5918072134961516e-04 0.0000000000000000e+00  6.8646232125571402e-05 7.5818073099248845e-04 0.0000000000000000e+00  1.4205170878278726e-04 8.3065311766049863e-04 0.0000000000000000e+00  7.1231048347196251e-05 8.2980803414375978e-04 0.0000000000000000e+00  1.4366446336561131e-04 9.0151533777435751e-04 0.0000000000000000e+00  7.3707852515892750e-05 9.0081600673694469e-04 0.0000000000000000e+00  1.4458865070200551e-04 9.7114171457874450e-04 0.0000000000000000e+00  7.6086097169667647e-05 9.7058416296042958e-04 0.0000000000000000e+00  1.4481259887594313e-04 1.0389390435680552e-03 0.0000000000000000e+00  7.8332042065226961e-05 1.0386326937593712e-03 0.0000000000000000e+00  1.4446581353824649e-04 1.1042630320640928e-03 0.0000000000000000e+00  8.0216452627666324e-05 1.1041593140548637e-03 0.0000000000000000e+00  1.4392047544036722e-04 1.1669112151576006e-03 0.0000000000000000e+00  8.1782830143243274e-05 1.1668110556672983e-03 0.0000000000000000e+00  8.3077723647933627e-05 1.2274760288564516e-03 0.0000000000000000e+00  2.8680126205409465e-06 9.8595726687668225e-05 0.0000000000000000e+00  2.5055083367664633e-06 1.3039289108016770e-04 0.0000000000000000e+00  1.9479068012134625e-06 1.6637102292860800e-04 0.0000000000000000e+00  1.0095384726819266e-06 2.0608512837042746e-04 0.0000000000000000e+00  -3.5575753441592897e-07 2.5049270699269914e-04 0.0000000000000000e+00  -2.5149688582246174e-06 3.0111427921660568e-04 0.0000000000000000e+00  -4.3457973526217659e-06 3.5655552502450276e-04 0.0000000000000000e+00  -5.6384019330749016e-06 4.1617077138492327e-04 0.0000000000000000e+00  -6.3990821185632235e-06 4.7964185081559625e-04 0.0000000000000000e+00  -6.5511501447396068e-06 5.4622259188281844e-04 0.0000000000000000e+00  -5.9382230169071535e-06 6.1518021538372572e-04 0.0000000000000000e+00  -4.5376431085869748e-06 6.8576059426118019e-04 0.0000000000000000e+00  -2.3560354678161865e-06 7.5720039827220989e-04 0.0000000000000000e+00  5.7605609589053302e-07 8.2876814152548482e-04 0.0000000000000000e+00  4.0263936035533640e-06 8.9978344422723293e-04 0.0000000000000000e+00  7.7941694841281769e-06 9.6943005762490525e-04 0.0000000000000000e+00  1.2112355096011770e-05 1.0375278291131528e-03 0.0000000000000000e+00  1.6918594880488951e-05 1.1036395610282113e-03 0.0000000000000000e+00  2.0416031500004044e-05 1.1661032303021696e-03 0.0000000000000000e+00  2.3430149410059755e-05 1.2268184113794487e-03 0.0000000000000000e+00  2.6021993264609691e-05 1.2860273767830890e-03 0.0000000000000000e+00  -3.0203774693908814e-05 1.3111896366219803e-04 0.0000000000000000e+00  -3.4285880201882729e-05 1.6694983176499380e-04 0.0000000000000000e+00  -3.7320459269783081e-05 2.0634791558415863e-04 0.0000000000000000e+00  -4.2387229682533591e-05 2.5059879407644776e-04 0.0000000000000000e+00  -5.2415928465440075e-05 3.0179280069539242e-04 0.0000000000000000e+00  -5.9780755577468546e-05 3.5720580727116347e-04 0.0000000000000000e+00  -6.4563966014335891e-05 4.1649283523641489e-04 0.0000000000000000e+00  -7.0023758116319305e-05 4.7985333126726679e-04 0.0000000000000000e+00  -7.3714768553887895e-05 5.4627320064238932e-04 0.0000000000000000e+00  -7.5497343701321106e-05 6.1497599634164593e-04 0.0000000000000000e+00  -7.5729903699423852e-05 6.8529362598401583e-04 0.0000000000000000e+00  -7.4415525551521164e-05 7.5647312357105315e-04 0.0000000000000000e+00  -7.1616549757799709e-05 8.2779148542963435e-04 0.0000000000000000e+00  -6.7605815378492034e-05 8.9863425007278175e-04 0.0000000000000000e+00  -6.0906539292122429e-05 9.6811212675099721e-04 0.0000000000000000e+00  -5.5248352922786553e-05 1.0359407648125158e-03 0.0000000000000000e+00  -4.7572649648762788e-05 1.1018367654925451e-03 0.0000000000000000e+00  -3.8816896357839219e-05 1.1651633423536535e-03 0.0000000000000000e+00  -3.5113140059799920e-05 1.2257279711469238e-03 0.0000000000000000e+00  -3.1419228206423341e-05 1.2850650749077399e-03 0.0000000000000000e+00  -2.7568251518562245e-05 1.3430820720270686e-03 0.0000000000000000e+00  -7.0399965679324646e-05 1.6831173919582172e-04 0.0000000000000000e+00  -6.2565438399906311e-05 2.1463136569667911e-04 0.0000000000000000e+00  -6.3185140569986057e-05 2.6043151637875084e-04 0.0000000000000000e+00  -6.7590851048500927e-05 3.1107993351456163e-04 0.0000000000000000e+00  -7.3016400630776675e-05 3.6465799506865378e-04 0.0000000000000000e+00  -7.8222932303885091e-05 4.2185040828487410e-04 0.0000000000000000e+00  -8.2952554519020370e-05 4.8295291397118799e-04 0.0000000000000000e+00  -8.6781205081033679e-05 5.4659384506602524e-04 0.0000000000000000e+00  -8.9384615888087759e-05 6.1237591582150041e-04 0.0000000000000000e+00  -9.0705495088906049e-05 6.7977773133641006e-04 0.0000000000000000e+00  -9.0771122950143043e-05 7.4811298484997566e-04 0.0000000000000000e+00  -8.9667412575144683e-05 8.1675749941419889e-04 0.0000000000000000e+00  -8.7548691351483070e-05 8.8515062481520123e-04 0.0000000000000000e+00  -8.4635404015802928e-05 9.5257964686227420e-04 0.0000000000000000e+00  -8.1607871077726205e-05 1.0193280935789991e-03 0.0000000000000000e+00  -7.9086785056872532e-05 1.0844981900433115e-03 0.0000000000000000e+00  -7.8245665103539308e-05 1.1487271032761422e-03 0.0000000000000000e+00  -8.1544003828375907e-05 1.2135745198689370e-03 0.0000000000000000e+00  -9.1188990593461054e-05 1.2838274020975566e-03 0.0000000000000000e+00  -8.3098272027591516e-05 1.3418252701024407e-03 0.0000000000000000e+00  -7.7880221326135350e-05 1.3985968799608436e-03 0.0000000000000000e+00  -7.0007762936528619e-05 2.2045964243216009e-04 0.0000000000000000e+00  -7.3576093794429947e-05 2.6725557344561466e-04 0.0000000000000000e+00  -7.8386506895701348e-05 3.1744706128197250e-04 0.0000000000000000e+00  -8.3707003337107043e-05 3.7029097607469482e-04 0.0000000000000000e+00  -8.9102560888740145e-05 4.2611197495583093e-04 0.0000000000000000e+00  -9.4115313820209717e-05 4.8508631441743428e-04 0.0000000000000000e+00  -9.8373536515773203e-05 5.4648793420453146e-04 0.0000000000000000e+00  -1.0174375117754060e-04 6.0985941377912395e-04 0.0000000000000000e+00  -1.0413921119715739e-04 6.7476464231342110e-04 0.0000000000000000e+00  -1.0556427362702166e-04 7.4066744232820854e-04 0.0000000000000000e+00  -1.0612162321067559e-04 8.0704803926444206e-04 0.0000000000000000e+00  -1.0600103250351759e-04 8.7344090123414337e-04 0.0000000000000000e+00  -1.0550451008813949e-04 9.3942024474148180e-04 0.0000000000000000e+00  -1.0507429557872053e-04 1.0050147301383255e-03 0.0000000000000000e+00  -1.0517346843627316e-04 1.0699120277747093e-03 0.0000000000000000e+00  -1.0642710570401648e-04 1.1345429853318000e-03 0.0000000000000000e+00  -1.0915382952294133e-04 1.1998134151662797e-03 0.0000000000000000e+00  -1.1250200990624809e-04 1.2662429352220666e-03 0.0000000000000000e+00  -1.1428588362034299e-04 1.3248561257240246e-03 0.0000000000000000e+00  -1.1805257601686043e-04 1.3860462938588244e-03 0.0000000000000000e+00  -1.2600534637104187e-04 1.4543263477523876e-03 0.0000000000000000e+00  -7.9914021877197652e-05 2.7436563189472068e-04 0.0000000000000000e+00  -8.6079578082344228e-05 3.2328170306177088e-04 0.0000000000000000e+00  -9.2103647895738303e-05 3.7503135875732409e-04 0.0000000000000000e+00  -9.7968875188585728e-05 4.2952312383249581e-04 0.0000000000000000e+00  -1.0346211391994101e-04 4.8669667321156278e-04 0.0000000000000000e+00  -1.0834480963646289e-04 5.4612358618106726e-04 0.0000000000000000e+00  -1.1251703643406259e-04 6.0742120443239443e-04 0.0000000000000000e+00  -1.1593794781824624e-04 6.7019583547869106e-04 0.0000000000000000e+00  -1.1862688588314414e-04 7.3401818424498127e-04 0.0000000000000000e+00  -1.2068442870891476e-04 7.9847029152300595e-04 0.0000000000000000e+00  -1.2228929310792710e-04 8.6318121214006189e-04 0.0000000000000000e+00  -1.2369744210880798e-04 9.2785888741701167e-04 0.0000000000000000e+00  -1.2522366672391259e-04 9.9243137333348760e-04 0.0000000000000000e+00  -1.2717471347344300e-04 1.0567758081160869e-03 0.0000000000000000e+00  -1.2986020560950011e-04 1.1211017314360023e-03 0.0000000000000000e+00  -1.3335685408729500e-04 1.1856968728954102e-03 0.0000000000000000e+00  -1.3739500882267077e-04 1.2501862480371732e-03 0.0000000000000000e+00  -1.4208638128148260e-04 1.3114523822862290e-03 0.0000000000000000e+00  -1.4922737661190839e-04 1.3746599962602502e-03 0.0000000000000000e+00  -1.5887242732131544e-04 1.4422352590472687e-03 0.0000000000000000e+00  -1.7090932547949835e-04 1.5107218240436157e-03 0.0000000000000000e+00  -9.1566898102788926e-05 3.2890257093843038e-04 0.0000000000000000e+00  -9.8478419034767945e-05 3.7929537656019625e-04 0.0000000000000000e+00  -1.0500681586906742e-04 4.3238012654794243e-04 0.0000000000000000e+00  -1.1110392147516013e-04 4.8792823108729502e-04 0.0000000000000000e+00  -1.1666700817907450e-04 5.4560073281508404e-04 0.0000000000000000e+00  -1.2164350325554909e-04 6.0507053980841594e-04 0.0000000000000000e+00  -1.2602457722637949e-04 6.6599484324103510e-04 0.0000000000000000e+00  -1.2984950893448982e-04 7.2801707487437728e-04 0.0000000000000000e+00  -1.3321560422882047e-04 7.9079633953953524e-04 0.0000000000000000e+00  -1.3627786841116895e-04 8.5403326227665279e-04 0.0000000000000000e+00  -1.3924127523652375e-04 9.1749923540422661e-04 0.0000000000000000e+00  -1.4233864243668042e-04 9.8108581113406706e-04 0.0000000000000000e+00  -1.4579178808862329e-04 1.0447104875033195e-03 0.0000000000000000e+00  -1.4979933458088513e-04 1.1084375414488329e-03 0.0000000000000000e+00  -1.5445446211930517e-04 1.1723090542117745e-03 0.0000000000000000e+00  -1.5978778795354352e-04 1.2360150349842887e-03 0.0000000000000000e+00  -1.6613451298160583e-04 1.2987059978293153e-03 0.0000000000000000e+00  -1.7430107347469217e-04 1.3629448755744071e-03 0.0000000000000000e+00  -1.8403056817878349e-04 1.4300062227693370e-03 0.0000000000000000e+00  -1.9489012180399273e-04 1.4987548423709327e-03 0.0000000000000000e+00  -2.0700510076207895e-04 1.5694175109646337e-03 0.0000000000000000e+00  -1.0324048529254201e-04 3.8316074488616849e-04 0.0000000000000000e+00  -1.1042888647039886e-04 4.3482928301939402e-04 0.0000000000000000e+00  -1.1715053027914023e-04 4.8886204516853564e-04 0.0000000000000000e+00  -1.2338121202179752e-04 5.4494661436202494e-04 0.0000000000000000e+00  -1.2911266999769932e-04 6.0278517475039449e-04 0.0000000000000000e+00  -1.3436244479924373e-04 6.6207559970510213e-04 0.0000000000000000e+00  -1.3918309671232478e-04 7.2251428918016099e-04 0.0000000000000000e+00  -1.4366829943801760e-04 7.8381491828850836e-04 0.0000000000000000e+00  -1.4795184288890774e-04 8.4572699191594076e-04 0.0000000000000000e+00  -1.5220000186469125e-04 9.0805531398963134e-04 0.0000000000000000e+00  -1.5659481499245419e-04 9.7067811913528084e-04 0.0000000000000000e+00  -1.6131167665841989e-04 1.0335128502797317e-03 0.0000000000000000e+00  -1.6650805853598449e-04 1.0965483210385676e-03 0.0000000000000000e+00  -1.7229842170626096e-04 1.1597570075712784e-03 0.0000000000000000e+00  -1.7879677167276421e-04 1.2229945965709854e-03 0.0000000000000000e+00  -1.8624758626288829e-04 1.2861639142083847e-03 0.0000000000000000e+00  -1.9494112349737429e-04 1.3505689930115412e-03 0.0000000000000000e+00  -2.0454371542360744e-04 1.4169127241791693e-03 0.0000000000000000e+00  -2.1445641669430018e-04 1.4849645223105558e-03 0.0000000000000000e+00  -2.2425805675296408e-04 1.5547649543139180e-03 0.0000000000000000e+00  -2.3726690947257773e-04 1.6181850893689882e-03 0.0000000000000000e+00  -1.1444268196392781e-04 4.3688040915884808e-04 0.0000000000000000e+00  -1.2172054202175522e-04 4.8950676203018614e-04 0.0000000000000000e+00  -1.2855014860571357e-04 5.4414238075676711e-04 0.0000000000000000e+00  -1.3494914393266438e-04 6.0051093075133295e-04 0.0000000000000000e+00  -1.4095272403912172e-04 6.5834055885045039e-04 0.0000000000000000e+00  -1.4662089713425263e-04 7.1736579322422890e-04 0.0000000000000000e+00  -1.5204268530274995e-04 7.7733881267926376e-04 0.0000000000000000e+00  -1.5733509815035331e-04 8.3804198008689368e-04 0.0000000000000000e+00  -1.6263723409604198e-04 8.9929992468974632e-04 0.0000000000000000e+00  -1.6809936146422927e-04 9.6098695289464301e-04 0.0000000000000000e+00  -1.7387039547018586e-04 1.0230143099425599e-03 0.0000000000000000e+00  -1.8009134839118093e-04 1.0853370512692222e-03 0.0000000000000000e+00  -1.8689014448733678e-04 1.1479178495807389e-03 0.0000000000000000e+00  -1.9440801634785102e-04 1.2107180295744882e-03 0.0000000000000000e+00  -2.0284217204283533e-04 1.2738519036711252e-03 0.0000000000000000e+00  -2.1237352600733442e-04 1.3380348078753262e-03 0.0000000000000000e+00  -2.2294754549261961e-04 1.4037666566483959e-03 0.0000000000000000e+00  -2.3456642753534146e-04 1.4713702148089266e-03 0.0000000000000000e+00  -2.4767654093555346e-04 1.5420735601384510e-03 0.0000000000000000e+00  -2.6240949465379944e-04 1.6222887419273457e-03 0.0000000000000000e+00  -2.6224319722322555e-04 1.6532603348079797e-03 0.0000000000000000e+00  -1.2492268367643371e-04 4.8981790682774053e-04 0.0000000000000000e+00  -1.3224370422377772e-04 5.4313380750489087e-04 0.0000000000000000e+00  -1.3919583961286418e-04 5.9817132804637879e-04 0.0000000000000000e+00  -1.4582200060796072e-04 6.5468351271304789e-04 0.0000000000000000e+00  -1.5218406165752574e-04 7.1243308764983449e-04 0.0000000000000000e+00  -1.5836496654945246e-04 7.7119974768557586e-04 0.0000000000000000e+00  -1.6446772629087028e-04 8.3078845747074233e-04 0.0000000000000000e+00  -1.7061127181579138e-04 8.9103697589509661e-04 0.0000000000000000e+00  -1.7692366980546494e-04 9.5181964499143365e-04 0.0000000000000000e+00  -1.8353509874120445e-04 1.0130430623533184e-03 0.0000000000000000e+00  -1.9057414802051050e-04 1.0746477665257901e-03 0.0000000000000000e+00  -1.9816687966260201e-04 1.1365977743059003e-03 0.0000000000000000e+00  -2.0644686443406629e-04 1.1988965772624397e-03 0.0000000000000000e+00  -2.1555751412148045e-04 1.2616798155568466e-03 0.0000000000000000e+00  -2.2558887575852224e-04 1.3253525289600580e-03 0.0000000000000000e+00  -2.3645783684938580e-04 1.3902580816355814e-03 0.0000000000000000e+00  -2.4792684802590426e-04 1.4567560714865977e-03 0.0000000000000000e+00  -2.5944076574335755e-04 1.5256906986427711e-03 0.0000000000000000e+00  -2.6952704780050415e-04 1.5982867211901139e-03 0.0000000000000000e+00  -2.8101596751457509e-04 1.6558167261970414e-03 0.0000000000000000e+00  -2.8076406003320028e-04 1.6780579865312785e-03 0.0000000000000000e+00  -1.3452856725827212e-04 5.4184515257258987e-04 0.0000000000000000e+00  -1.4190404240756432e-04 5.9567628762747344e-04 0.0000000000000000e+00  -1.4901243128970937e-04 6.5099394614278564e-04 0.0000000000000000e+00  -1.5591258599111207e-04 7.0758295118019093e-04 0.0000000000000000e+00  -1.6267949292375684e-04 7.6524329975474065e-04 0.0000000000000000e+00  -1.6940308008297767e-04 8.2379602357784216e-04 0.0000000000000000e+00  -1.7618528079530688e-04 8.8308819482023012e-04 0.0000000000000000e+00  -1.8313580591243402e-04 9.4299552434112604e-04 0.0000000000000000e+00  -1.9036808863626638e-04 1.0034216036607488e-03 0.0000000000000000e+00  -1.9799711526766371e-04 1.0642994093912779e-03 0.0000000000000000e+00  -2.0613913231849840e-04 1.1255912401973182e-03 0.0000000000000000e+00  -2.1491446296874870e-04 1.1873055137540123e-03 0.0000000000000000e+00  -2.2444223228924276e-04 1.2495434706066880e-03 0.0000000000000000e+00  -2.3480768737409427e-04 1.3125343029221864e-03 0.0000000000000000e+00  -2.4602433703203354e-04 1.3764996663426757e-03 0.0000000000000000e+00  -2.5807202533431102e-04 1.4417055525159817e-03 0.0000000000000000e+00  -2.7091131080106808e-04 1.5086707408692528e-03 0.0000000000000000e+00  -2.8441565473491184e-04 1.5784108620575108e-03 0.0000000000000000e+00  -2.9754128924065250e-04 1.6555776165801392e-03 0.0000000000000000e+00  -2.9667945138626110e-04 1.6791208262377138e-03 0.0000000000000000e+00  -1.4312781931837809e-04 5.9293045582230783e-04 0.0000000000000000e+00  -1.5057600546368910e-04 6.4716160477730218e-04 0.0000000000000000e+00  -1.5786040982411216e-04 7.0268853860448396e-04 0.0000000000000000e+00  -1.6504608696915279e-04 7.5932670815044166e-04 0.0000000000000000e+00  -1.7220946994877490e-04 8.1690880301351937e-04 0.0000000000000000e+00  -1.7943606505720026e-04 8.7528846865782262e-04 0.0000000000000000e+00  -1.8681754252990887e-04 9.3434248613925137e-04 0.0000000000000000e+00  -1.9444899242367067e-04 9.9397147345358814e-04 0.0000000000000000e+00  -2.0242707342274190e-04 1.0541016314149596e-03 0.0000000000000000e+00  -2.1084884192491325e-04 1.1146874315055529e-03 0.0000000000000000e+00  -2.1981050179070881e-04 1.1757228023071230e-03 0.0000000000000000e+00  -2.2940007480524898e-04 1.2372609896556502e-03 0.0000000000000000e+00  -2.3967791529218979e-04 1.2994165611610489e-03 0.0000000000000000e+00  -2.5065797657041595e-04 1.3623030636147396e-03 0.0000000000000000e+00  -2.6231239257176319e-04 1.4260436947685169e-03 0.0000000000000000e+00  -2.7453845451280370e-04 1.4908051389617668e-03 0.0000000000000000e+00  -2.8701657716620797e-04 1.5566987622056354e-03 0.0000000000000000e+00  -2.9879775171104899e-04 1.6233000310498498e-03 0.0000000000000000e+00  -3.0878947294162202e-04 1.6796896850573011e-03 0.0000000000000000e+00  -1.5057173439907929e-04 6.4308098000000322e-04 0.0000000000000000e+00  -1.5809309727208247e-04 6.9763162813700084e-04 0.0000000000000000e+00  -1.6553947084094032e-04 7.5331933456021462e-04 0.0000000000000000e+00  -1.7297279404276920e-04 8.0998508696691473e-04 0.0000000000000000e+00  -1.8046140331620016e-04 8.6748663308110327e-04 0.0000000000000000e+00  -1.8807757945085964e-04 9.2570037237568379e-04 0.0000000000000000e+00  -1.9589502117414950e-04 9.8452237181899339e-04 0.0000000000000000e+00  -2.0398636969056264e-04 1.0438696641832817e-03 0.0000000000000000e+00  -2.1242024804810970e-04 1.1036821199509996e-03 0.0000000000000000e+00  -2.2125646342765828e-04 1.1639270931985285e-03 0.0000000000000000e+00  -2.3053572409897238e-04 1.2246034179689040e-03 0.0