<?xml version="1.0"?>
<VTKFile type="UnstructuredGrid"  version="0.1"  >
<UnstructuredGrid>
<Piece  NumberOfPoints="629" NumberOfCells="1162">
<Points>
<DataArray  type="Float64"  NumberOfComponents="3"  format="ascii">0.7104347826086956 0 0  0.7269565217391304 0 0  0.7269565217391304 0.01666666666666667 0  0.7104347826086956 0.01666666666666667 0  0.7434782608695653 0 0  0.7434782608695653 0.01666666666666667 0  0.7599999999999999 0 0  0.7599999999999999 0.01666666666666667 0  0.7765217391304348 0 0  0.7765217391304348 0.01666666666666667 0  0.7930434782608695 0 0  0.7930434782608695 0.01666666666666667 0  0.8095652173913043 0 0  0.8095652173913043 0.01666666666666667 0  0.8260869565217391 0 0  0.8260869565217391 0.01666666666666667 0  0.8426086956521739 0 0  0.8426086956521739 0.01666666666666667 0  0.8591304347826086 0 0  0.8591304347826086 0.01666666666666667 0  0.8756521739130434 0 0  0.8756521739130434 0.01666666666666667 0  0.8921739130434783 0 0  0.8921739130434783 0.01666666666666667 0  0.908695652173913 0 0  0.908695652173913 0.01666666666666667 0  0.9252173913043478 0 0  0.9252173913043478 0.01666666666666667 0  0.9417391304347826 0 0  0.9417391304347826 0.01666666666666667 0  0.9582608695652173 0 0  0.9582608695652173 0.01666666666666667 0  0.9747826086956521 0 0  0.9747826086956521 0.01666666666666667 0  0.991304347826087 0 0  0.991304347826087 0.01666666666666667 0  1.007826086956522 0 0  1.007826086956522 0.01666666666666667 0  1.024347826086957 0 0  1.024347826086957 0.01666666666666667 0  0.7269565217391304 0.03333333333333333 0  0.7104347826086956 0.03333333333333333 0  0.7434782608695653 0.03333333333333333 0  0.7599999999999999 0.03333333333333333 0  0.7765217391304348 0.03333333333333333 0  0.7930434782608695 0.03333333333333333 0  0.8095652173913043 0.03333333333333333 0  0.8260869565217391 0.03333333333333333 0  0.8426086956521739 0.03333333333333333 0  0.8591304347826086 0.03333333333333333 0  0.8756521739130434 0.03333333333333333 0  0.8921739130434783 0.03333333333333333 0  0.908695652173913 0.03333333333333333 0  0.9252173913043478 0.03333333333333333 0  0.9417391304347826 0.03333333333333333 0  0.9582608695652173 0.03333333333333333 0  0.9747826086956521 0.03333333333333333 0  0.991304347826087 0.03333333333333333 0  1.007826086956522 0.03333333333333333 0  1.024347826086957 0.03333333333333333 0  1.040869565217391 0.03333333333333333 0  0.7269565217391304 0.05 0  0.7434782608695653 0.05 0  0.7599999999999999 0.05 0  0.7765217391304348 0.05 0  0.7930434782608695 0.05 0  0.8095652173913043 0.05 0  0.8260869565217391 0.05 0  0.8426086956521739 0.05 0  0.8591304347826086 0.05 0  0.8756521739130434 0.05 0  0.8921739130434783 0.05 0  0.908695652173913 0.05 0  0.9252173913043478 0.05 0  0.9417391304347826 0.05 0  0.9582608695652173 0.05 0  0.9747826086956521 0.05 0  0.991304347826087 0.05 0  1.007826086956522 0.05 0  1.024347826086957 0.05 0  1.040869565217391 0.05 0  1.057391304347826 0.05 0  0.7434782608695653 0.06666666666666667 0  0.7599999999999999 0.06666666666666667 0  0.7765217391304348 0.06666666666666667 0  0.7930434782608695 0.06666666666666667 0  0.8095652173913043 0.06666666666666667 0  0.8260869565217391 0.06666666666666667 0  0.8426086956521739 0.06666666666666667 0  0.8591304347826086 0.06666666666666667 0  0.8756521739130434 0.06666666666666667 0  0.8921739130434783 0.06666666666666667 0  0.908695652173913 0.06666666666666667 0  0.9252173913043478 0.06666666666666667 0  0.9417391304347826 0.06666666666666667 0  0.9582608695652173 0.06666666666666667 0  0.9747826086956521 0.06666666666666667 0  0.991304347826087 0.06666666666666667 0  1.007826086956522 0.06666666666666667 0  1.024347826086957 0.06666666666666667 0  1.040869565217391 0.06666666666666667 0  1.057391304347826 0.06666666666666667 0  1.073913043478261 0.06666666666666667 0  0.7599999999999999 0.08333333333333333 0  0.7765217391304348 0.08333333333333333 0  0.7930434782608695 0.08333333333333333 0  0.8095652173913043 0.08333333333333333 0  0.8260869565217391 0.08333333333333333 0  0.8426086956521739 0.08333333333333333 0  0.8591304347826086 0.08333333333333333 0  0.8756521739130434 0.08333333333333333 0  0.8921739130434783 0.08333333333333333 0  0.908695652173913 0.08333333333333333 0  0.9252173913043478 0.08333333333333333 0  0.9417391304347826 0.08333333333333333 0  0.9582608695652173 0.08333333333333333 0  0.9747826086956521 0.08333333333333333 0  0.991304347826087 0.08333333333333333 0  1.007826086956522 0.08333333333333333 0  1.024347826086957 0.08333333333333333 0  1.040869565217391 0.08333333333333333 0  1.057391304347826 0.08333333333333333 0  1.073913043478261 0.08333333333333333 0  1.090434782608696 0.08333333333333333 0  0.7765217391304348 0.1 0  0.7930434782608695 0.1 0  0.8095652173913043 0.1 0  0.8260869565217391 0.1 0  0.8426086956521739 0.1 0  0.8591304347826086 0.1 0  0.8756521739130434 0.1 0  0.8921739130434783 0.1 0  0.908695652173913 0.1 0  0.9252173913043478 0.1 0  0.9417391304347826 0.1 0  0.9582608695652173 0.1 0  0.9747826086956521 0.1 0  0.991304347826087 0.1 0  1.007826086956522 0.1 0  1.024347826086957 0.1 0  1.040869565217391 0.1 0  1.057391304347826 0.1 0  1.073913043478261 0.1 0  1.090434782608696 0.1 0  1.10695652173913 0.1 0  0.7930434782608695 0.1166666666666667 0  0.8095652173913043 0.1166666666666667 0  0.8260869565217391 0.1166666666666667 0  0.8426086956521739 0.1166666666666667 0  0.8591304347826086 0.1166666666666667 0  0.8756521739130434 0.1166666666666667 0  0.8921739130434783 0.1166666666666667 0  0.908695652173913 0.1166666666666667 0  0.9252173913043478 0.1166666666666667 0  0.9417391304347826 0.1166666666666667 0  0.9582608695652173 0.1166666666666667 0  0.9747826086956521 0.1166666666666667 0  0.991304347826087 0.1166666666666667 0  1.007826086956522 0.1166666666666667 0  1.024347826086957 0.1166666666666667 0  1.040869565217391 0.1166666666666667 0  1.057391304347826 0.1166666666666667 0  1.073913043478261 0.1166666666666667 0  1.090434782608696 0.1166666666666667 0  1.10695652173913 0.1166666666666667 0  1.123478260869565 0.1166666666666667 0  0.8095652173913043 0.1333333333333333 0  0.8260869565217391 0.1333333333333333 0  0.8426086956521739 0.1333333333333333 0  0.8591304347826086 0.1333333333333333 0  0.8756521739130434 0.1333333333333333 0  0.8921739130434783 0.1333333333333333 0  0.908695652173913 0.1333333333333333 0  0.9252173913043478 0.1333333333333333 0  0.9417391304347826 0.1333333333333333 0  0.9582608695652173 0.1333333333333333 0  0.9747826086956521 0.1333333333333333 0  0.991304347826087 0.1333333333333333 0  1.007826086956522 0.1333333333333333 0  1.024347826086957 0.1333333333333333 0  1.040869565217391 0.1333333333333333 0  1.057391304347826 0.1333333333333333 0  1.073913043478261 0.1333333333333333 0  1.090434782608696 0.1333333333333333 0  1.10695652173913 0.1333333333333333 0  1.123478260869565 0.1333333333333333 0  1.14 0.1333333333333333 0  0.8260869565217391 0.15 0  0.8426086956521739 0.15 0  0.8591304347826086 0.15 0  0.8756521739130434 0.15 0  0.8921739130434783 0.15 0  0.908695652173913 0.15 0  0.9252173913043478 0.15 0  0.9417391304347826 0.15 0  0.9582608695652173 0.15 0  0.9747826086956521 0.15 0  0.991304347826087 0.15 0  1.007826086956522 0.15 0  1.024347826086957 0.15 0  1.040869565217391 0.15 0  1.057391304347826 0.15 0  1.073913043478261 0.15 0  1.090434782608696 0.15 0  1.10695652173913 0.15 0  1.123478260869565 0.15 0  1.14 0.15 0  1.156521739130435 0.15 0  0.8426086956521739 0.1666666666666667 0  0.8591304347826086 0.1666666666666667 0  0.8756521739130434 0.1666666666666667 0  0.8921739130434783 0.1666666666666667 0  0.908695652173913 0.1666666666666667 0  0.9252173913043478 0.1666666666666667 0  0.9417391304347826 0.1666666666666667 0  0.9582608695652173 0.1666666666666667 0  0.9747826086956521 0.1666666666666667 0  0.991304347826087 0.1666666666666667 0  1.007826086956522 0.1666666666666667 0  1.024347826086957 0.1666666666666667 0  1.040869565217391 0.1666666666666667 0  1.057391304347826 0.1666666666666667 0  1.073913043478261 0.1666666666666667 0  1.090434782608696 0.1666666666666667 0  1.10695652173913 0.1666666666666667 0  1.123478260869565 0.1666666666666667 0  1.14 0.1666666666666667 0  1.156521739130435 0.1666666666666667 0  1.17304347826087 0.1666666666666667 0  0.8591304347826086 0.1833333333333333 0  0.8756521739130434 0.1833333333333333 0  0.8921739130434783 0.1833333333333333 0  0.908695652173913 0.1833333333333333 0  0.9252173913043478 0.1833333333333333 0  0.9417391304347826 0.1833333333333333 0  0.9582608695652173 0.1833333333333333 0  0.9747826086956521 0.1833333333333333 0  0.991304347826087 0.1833333333333333 0  1.007826086956522 0.1833333333333333 0  1.024347826086957 0.1833333333333333 0  1.040869565217391 0.1833333333333333 0  1.057391304347826 0.1833333333333333 0  1.073913043478261 0.1833333333333333 0  1.090434782608696 0.1833333333333333 0  1.10695652173913 0.1833333333333333 0  1.123478260869565 0.1833333333333333 0  1.14 0.1833333333333333 0  1.156521739130435 0.1833333333333333 0  1.17304347826087 0.1833333333333333 0  1.189565217391304 0.1833333333333333 0  0.8756521739130434 0.2 0  0.8921739130434783 0.2 0  0.908695652173913 0.2 0  0.9252173913043478 0.2 0  0.9417391304347826 0.2 0  0.9582608695652173 0.2 0  0.9747826086956521 0.2 0  0.991304347826087 0.2 0  1.007826086956522 0.2 0  1.024347826086957 0.2 0  1.040869565217391 0.2 0  1.057391304347826 0.2 0  1.073913043478261 0.2 0  1.090434782608696 0.2 0  1.10695652173913 0.2 0  1.123478260869565 0.2 0  1.14 0.2 0  1.156521739130435 0.2 0  1.17304347826087 0.2 0  1.189565217391304 0.2 0  1.206086956521739 0.2 0  0.8921739130434783 0.2166666666666667 0  0.908695652173913 0.2166666666666667 0  0.9252173913043478 0.2166666666666667 0  0.9417391304347826 0.2166666666666667 0  0.9582608695652173 0.2166666666666667 0  0.9747826086956521 0.2166666666666667 0  0.991304347826087 0.2166666666666667 0  1.007826086956522 0.2166666666666667 0  1.02434782608
[...]
<PointData  Vectors="Displacement"> 
<DataArray  type="Float64"  Name="Displacement"  NumberOfComponents="3" format="ascii">1.6865963501120200e-04 2.1090173972485794e-03 0.0000000000000000e+00  1.7143966054015812e-04 2.1444885851221720e-03 0.0000000000000000e+00  1.3642875285505766e-04 2.1433134816065008e-03 0.0000000000000000e+00  1.3191121756471602e-04 2.1078277464340856e-03 0.0000000000000000e+00  1.7424145059403507e-04 2.1783335600149287e-03 0.0000000000000000e+00  1.4079229573752501e-04 2.1771699766650150e-03 0.0000000000000000e+00  1.7707278309585060e-04 2.2107033143513458e-03 0.0000000000000000e+00  1.4504774788348559e-04 2.2095448732751041e-03 0.0000000000000000e+00  1.7993899920622941e-04 2.2417172406519635e-03 0.0000000000000000e+00  1.4922981461276965e-04 2.2405603510903022e-03 0.0000000000000000e+00  1.8284299016493166e-04 2.2714720928130035e-03 0.0000000000000000e+00  1.5335970492519351e-04 2.2703156482303853e-03 0.0000000000000000e+00  1.8578558618618965e-04 2.3000523820506233e-03 0.0000000000000000e+00  1.5744597586378931e-04 2.2988967955447472e-03 0.0000000000000000e+00  1.8876635951152576e-04 2.3275391248734059e-03 0.0000000000000000e+00  1.6148855406391418e-04 2.3263854149734677e-03 0.0000000000000000e+00  1.9178452084405156e-04 2.3540153684174434e-03 0.0000000000000000e+00  1.6548318243922767e-04 2.3528642165936858e-03 0.0000000000000000e+00  1.9483963740295999e-04 2.3795676721008580e-03 0.0000000000000000e+00  1.6942621734024666e-04 2.3784190151462255e-03 0.0000000000000000e+00  1.9793183442125704e-04 2.4042843050654569e-03 0.0000000000000000e+00  1.7331726193520037e-04 2.4031376012719516e-03 0.0000000000000000e+00  2.0106180668001157e-04 2.4282532018991393e-03 0.0000000000000000e+00  1.7715839743674946e-04 2.4271072356516952e-03 0.0000000000000000e+00  2.0423086785394232e-04 2.4515595795382458e-03 0.0000000000000000e+00  1.8095495451139550e-04 2.4504125386230662e-03 0.0000000000000000e+00  2.0744053534101420e-04 2.4742826701818830e-03 0.0000000000000000e+00  1.8471549772086548e-04 2.4731331474093930e-03 0.0000000000000000e+00  2.1069186149329637e-04 2.4964947804954150e-03 0.0000000000000000e+00  1.8844752484917980e-04 2.4953422526785562e-03 0.0000000000000000e+00  2.1398522159697209e-04 2.5182635776532527e-03 0.0000000000000000e+00  1.9215462311111025e-04 2.5171081170522226e-03 0.0000000000000000e+00  2.1732055764074742e-04 2.5396551455830877e-03 0.0000000000000000e+00  1.9583716631236433e-04 2.5384969798818735e-03 0.0000000000000000e+00  2.2069771317941443e-04 2.5607358527939806e-03 0.0000000000000000e+00  1.9949427939491997e-04 2.5595750835318487e-03 0.0000000000000000e+00  2.2411663813950037e-04 2.5815727191114820e-03 0.0000000000000000e+00  2.0312537882542030e-04 2.5804092608930369e-03 0.0000000000000000e+00  2.2757743368164967e-04 2.6022329289033860e-03 0.0000000000000000e+00  2.0673070902371032e-04 2.6010665662620468e-03 0.0000000000000000e+00  1.0062896380322923e-04 2.1417926864174550e-03 0.0000000000000000e+00  9.4001297120904984e-05 2.1054098028903115e-03 0.0000000000000000e+00  1.0663865280830533e-04 2.1757144546959016e-03 0.0000000000000000e+00  1.1238894508005723e-04 2.2081267119544732e-03 0.0000000000000000e+00  1.1794246680062061e-04 2.2391669490532534e-03 0.0000000000000000e+00  1.2334369010346736e-04 2.2689397192440556e-03 0.0000000000000000e+00  1.2861450748071125e-04 2.2975354334966716e-03 0.0000000000000000e+00  1.3375928337586084e-04 2.3250386505131618e-03 0.0000000000000000e+00  1.3877265093924172e-04 2.3515334943646020e-03 0.0000000000000000e+00  1.4364783518364496e-04 2.3771055633924746e-03 0.0000000000000000e+00  1.4838245695154655e-04 2.4018415470710096e-03 0.0000000000000000e+00  1.5297914116948715e-04 2.4258278726321603e-03 0.0000000000000000e+00  1.5744589293832710e-04 2.4491480726378735e-03 0.0000000000000000e+00  1.6179631748602187e-04 2.4718807040161558e-03 0.0000000000000000e+00  1.6604442137383595e-04 2.4940993185028110e-03 0.0000000000000000e+00  1.7019875821962913e-04 2.5158734913977819e-03 0.0000000000000000e+00  1.7426173449978753e-04 2.5372705410192527e-03 0.0000000000000000e+00  1.7823246744179877e-04 2.5583571301602409e-03 0.0000000000000000e+00  1.8210978097774869e-04 2.5791999949981077e-03 0.0000000000000000e+00  1.8589370705526554e-04 2.5998659128927174e-03 0.0000000000000000e+00  1.8958559058589807e-04 2.6204213140132806e-03 0.0000000000000000e+00  6.1230853925850083e-05 2.1128030692218322e-03 0.0000000000000000e+00  7.1843192943974623e-05 2.1470300646135253e-03 0.0000000000000000e+00  8.1714716755683869e-05 2.1793758859461831e-03 0.0000000000000000e+00  9.1168585599067398e-05 2.2103790489219608e-03 0.0000000000000000e+00  1.0030841383895449e-04 2.2402549258520870e-03 0.0000000000000000e+00  1.0916407632751755e-04 2.2691340402330950e-03 0.0000000000000000e+00  1.1773532531794676e-04 2.2971124829241686e-03 0.0000000000000000e+00  1.2601104371517011e-04 2.3242697135662902e-03 0.0000000000000000e+00  1.3397972850680840e-04 2.3506769931487780e-03 0.0000000000000000e+00  1.4163495388520609e-04 2.3764019802476931e-03 0.0000000000000000e+00  1.4897718571692730e-04 2.4015112053125216e-03 0.0000000000000000e+00  1.5601331313457232e-04 2.4260701140426696e-03 0.0000000000000000e+00  1.6275471115818836e-04 2.4501426915519262e-03 0.0000000000000000e+00  1.6921420930960198e-04 2.4737922492818905e-03 0.0000000000000000e+00  1.7540309819538992e-04 2.4970818034178127e-03 0.0000000000000000e+00  1.8132949796783755e-04 2.5200738309541391e-03 0.0000000000000000e+00  1.8699834141529015e-04 2.5428302405301898e-03 0.0000000000000000e+00  1.9241218138179233e-04 2.5654125498018291e-03 0.0000000000000000e+00  1.9757197815460317e-04 2.5878819665883790e-03 0.0000000000000000e+00  2.0247751937437489e-04 2.6102992319617636e-03 0.0000000000000000e+00  2.0712752708957854e-04 2.6327242633237499e-03 0.0000000000000000e+00  3.9065246300438811e-05 2.1162872586632103e-03 0.0000000000000000e+00  5.2382955951094936e-05 2.1485604055448224e-03 0.0000000000000000e+00  6.5235704404294776e-05 2.1795563282225295e-03 0.0000000000000000e+00  7.7687456018667262e-05 2.2095820919461715e-03 0.0000000000000000e+00  8.9744657155196349e-05 2.2388064264515523e-03 0.0000000000000000e+00  1.0138923397002967e-04 2.2673333778233714e-03 0.0000000000000000e+00  1.1259740937406330e-04 2.2952337263418923e-03 0.0000000000000000e+00  1.2334955790014140e-04 2.3225613457011946e-03 0.0000000000000000e+00  1.3363453064598268e-04 2.3493629957482111e-03 0.0000000000000000e+00  1.4345044293922416e-04 2.3756841724335040e-03 0.0000000000000000e+00  1.5280329364710844e-04 2.4015717651867858e-03 0.0000000000000000e+00  1.6170430589030924e-04 2.4270750453236505e-03 0.0000000000000000e+00  1.7016689505247086e-04 2.4522462166350089e-03 0.0000000000000000e+00  1.7820408573557197e-04 2.4771401771536417e-03 0.0000000000000000e+00  1.8582671404650803e-04 2.5018135562165462e-03 0.0000000000000000e+00  1.9304248193197603e-04 2.5263237423142461e-03 0.0000000000000000e+00  1.9985573158216443e-04 2.5507282387710471e-03 0.0000000000000000e+00  2.0626762667367649e-04 2.5750842517435171e-03 0.0000000000000000e+00  2.1227644386796342e-04 2.5994483217438779e-03 0.0000000000000000e+00  2.1787780472966884e-04 2.6238759141442810e-03 0.0000000000000000e+00  2.2306478771343054e-04 2.6484210167396515e-03 0.0000000000000000e+00  2.4631647062353383e-05 2.1160515970389494e-03 0.0000000000000000e+00  4.0384756645543562e-05 2.1469523515745869e-03 0.0000000000000000e+00  5.5734232925766083e-05 2.1771213507031577e-03 0.0000000000000000e+00  7.0624455596023114e-05 2.2067259200798830e-03 0.0000000000000000e+00  8.5002298945557948e-05 2.2358606665658308e-03 0.0000000000000000e+00  9.8823259113113370e-05 2.2645772978189165e-03 0.0000000000000000e+00  1.1205617707722289e-04 2.2929054075674603e-03 0.0000000000000000e+00  1.2468442950302040e-04 2.3208664690426133e-03 0.0000000000000000e+00  1.3670439418694141e-04 2.3484825637202630e-03 0.0000000000000000e+00  1.4812235464782249e-04 2.3757808789561046e-03 0.0000000000000000e+00  1.5895076987318291e-04 2.4027954003148196e-03 0.0000000000000000e+00  1.6920469835290244e-04 2.4295670160801221e-03 0.0000000000000000e+00  1.7889893186058829e-04 2.4561424833995328e-03 0.0000000000000000e+00  1.8804597200408190e-04 2.4825727221752729e-03 0.0000000000000000e+00  1.9665478023123860e-04 2.5089110591707169e-03 0.0000000000000000e+00  2.0473019316538866e-04 2.5352118006929910e-03 0.0000000000000000e+00  2.1227283075533502e-04 2.5615291934956486e-03 0.0000000000000000e+00  2.1927927903694143e-04 2.5879166678308865e-03 0.0000000000000000e+00  2.2574234892863601e-04 2.6144262535138189e-03 0.0000000000000000e+00  2.3165127628591698e-04 2.6411081250178581e-03 0.0000000000000000e+00  2.3699180093447183e-04 2.6680102656245039e-03 0.0000000000000000e+00  1.6756087119387608e-05 2.1127765019492931e-03 0.0000000000000000e+00  3.4635256140048336e-05 2.1430444926415597e-03 0.0000000000000000e+00  5.2019652571564322e-05 2.1730459712573612e-03 0.0000000000000000e+00  6.8810506098454676e-05 2.2028402324821214e-03 0.0000000000000000e+00  8.4937482864458165e-05 2.2324436970433360e-03 0.0000000000000000e+00  1.0035648430097785e-04 2.2618510729382592e-03 0.0000000000000000e+00  1.1504615166256965e-04 2.2910519463458564e-03 0.0000000000000000e+00  1.2900287501792232e-04 2.3200414359240353e-03 0.0000000000000000e+00  1.4223522096703381e-04 2.3488255376023430e-03 0.0000000000000000e+00  1.5475862969018689e-04 2.3774226543904040e-03 0.0000000000000000e+00  1.6659096831721955e-04 2.4058627816621013e-03 0.0000000000000000e+00  1.7774922087036168e-04 2.4341853451478289e-03 0.0000000000000000e+00  1.8824727783493307e-04 2.4624364731062960e-03 0.0000000000000000e+00  1.9809463954898458e-04 2.4906663378448644e-03 0.0000000000000000e+00  2.0729583328169346e-04 2.5189269370368720e-03 0.0000000000000000e+00  2.1585034219276188e-04 2.5472704255446936e-03 0.0000000000000000e+00  2.2375283664816069e-04 2.5757479419592734e-03 0.0000000000000000e+00  2.3099351173826207e-04 2.6044088148964176e-03 0.0000000000000000e+00  2.3755838046697142e-04 2.6333000414056089e-03 0.0000000000000000e+00  2.4342943726120720e-04 2.6624659463526149e-03 0.0000000000000000e+00  2.4858467133569650e-04 2.6919479386765871e-03 0.0000000000000000e+00  1.4524790650758652e-05 2.1074738962897897e-03 0.0000000000000000e+00  3.4103746909141058e-05 2.1378901908356033e-03 0.0000000000000000e+00  5.3011028284635597e-05 2.1684002513717216e-03 0.0000000000000000e+00  7.1151102230268654e-05 2.1989665095726030e-03 0.0000000000000000e+00  8.8469107402955666e-05 2.2295357067527583e-03 0.0000000000000000e+00  1.0494216866129452e-04 2.2600574920321409e-03 0.0000000000000000e+00  1.2057012699563328e-04 2.2904959755398967e-03 0.0000000000000000e+00  1.3536688177544673e-04 2.3208346918166776e-03 0.0000000000000000e+00  1.4935316653492015e-04 2.3510768538174843e-03 0.0000000000000000e+00  1.6255110150042309e-04 2.3812428393369680e-03 0.0000000000000000e+00  1.7498049148666358e-04 2.4113663666030676e-03 0.0000000000000000e+00  1.8665659512446034e-04 2.4414903733389307e-03 0.0000000000000000e+00  1.9758901274252402e-04 2.4716632560358390e-03 0.0000000000000000e+00  2.0778136633007869e-04 2.5019358062440362e-03 0.0000000000000000e+00  2.1723149048560815e-04 2.5323589375962304e-03 0.0000000000000000e+00  2.2593189096947991e-04 2.5629821400584862e-03 0.0000000000000000e+00  2.3387026670627028e-04 2.5938525180218483e-03 0.0000000000000000e+00  2.4102994277900113e-04 2.6250142448288076e-03 0.0000000000000000e+00  2.4739012434619822e-04 2.6565082675250669e-03 0.0000000000000000e+00  2.5292594507259823e-04 2.6883721027314146e-03 0.0000000000000000e+00  2.5760834351332498e-04 2.7206395676941716e-03 0.0000000000000000e+00  1.7019957762541420e-05 2.1013482746278442e-03 0.0000000000000000e+00  3.7769958361334509e-05 2.1326502311936947e-03 0.0000000000000000e+00  5.7642194123332712e-05 2.1642706069034817e-03 0.0000000000000000e+00  7.6577551681484752e-05 2.1960939574979244e-03 0.0000000000000000e+00  9.4557957309375498e-05 2.2280215709231475e-03 0.0000000000000000e+00  1.1159218023136919e-04 2.2599829810181875e-03 0.0000000000000000e+00  1.2770367295023062e-04 2.2919390137554579e-03 0.0000000000000000e+00  1.4292131906041007e-04 2.3238793288087589e-03 0.0000000000000000e+00  1.5727310313109927e-04 2.3558171532894511e-03 0.0000000000000000e+00  1.7078226681733517e-04 2.3877831048369075e-03 0.0000000000000000e+00  1.8346535407166774e-04 2.4198192631674311e-03 0.0000000000000000e+00  1.9533157130870974e-04 2.4519741065755045e-03 0.0000000000000000e+00  2.0638299033590474e-04 2.4842985579478826e-03 0.0000000000000000e+00  2.1661522353819249e-04 2.5168431573420048e-03 0.0000000000000000e+00  2.2601828198039141e-04 2.5496562379918931e-03 0.0000000000000000e+00  2.3457739706510126e-04 2.5827829009285328e-03 0.0000000000000000e+00  2.4227365383062207e-04 2.6162645494645326e-03 0.0000000000000000e+00  2.4908434919221372e-04 2.6501387424190648e-03 0.0000000000000000e+00  2.5498304841133724e-04 2.6844391354348251e-03 0.0000000000000000e+00  2.5993936783329946e-04 2.7191952887686689e-03 0.0000000000000000e+00  2.6391856460595073e-04 2.7544321233191316e-03 0.0000000000000000e+00  2.3229727222314300e-05 2.0956845298783912e-03 0.0000000000000000e+00  4.4560007304936340e-05 2.1284760925944185e-03 0.0000000000000000e+00  6.4832272062070943e-05 2.1616615297693109e-03 0.0000000000000000e+00  8.4042932653832900e-05 2.1950861245653144e-03 0.0000000000000000e+00  1.0221727614157953e-04 2.2286429815402816e-03 0.0000000000000000e+00  1.1939357442462986e-04 2.2622720235634182e-03 0.0000000000000000e+00  1.3561202148560525e-04 2.2959529499764187e-03 0.0000000000000000e+00  1.5090795585939271e-04 2.3296959208146794e-03 0.0000000000000000e+00  1.6530836209753582e-04 2.3635322582478834e-03 0.0000000000000000e+00  1.7883063551867929e-04 2.3975063213853222e-03 0.0000000000000000e+00  1.9148277800426795e-04 2.4316689999464205e-03 0.0000000000000000e+00  2.0326440926825192e-04 2.4660728823731573e-03 0.0000000000000000e+00  2.1416814547041128e-04 2.5007689770930922e-03 0.0000000000000000e+00  2.2418101716299374e-04 2.5358047602749624e-03 0.0000000000000000e+00  2.3328569645304572e-04 2.5712232514264236e-03 0.0000000000000000e+00  2.4146138807273256e-04 2.6070627892614364e-03 0.0000000000000000e+00  2.4868430854712735e-04 2.6433571885102953e-03 0.0000000000000000e+00  2.5492773154507864e-04 2.6801359807767117e-03 0.0000000000000000e+00  2.6016162161343755e-04 2.7174244589579337e-03 0.0000000000000000e+00  2.6435192169541760e-04 2.7552432490206128e-03 0.0000000000000000e+00  2.6745961082783482e-04 2.7936071330299291e-03 0.0000000000000000e+00  3.2027135280410663e-05 2.0917055581578959e-03 0.0000000000000000e+00  5.3350912451040562e-05 2.1263810891795011e-03 0.0000000000000000e+00  7.3509833499452797e-05 2.1614008066890805e-03 0.0000000000000000e+00  9.2555138268061142e-05 2.1966228173616511e-03 0.0000000000000000e+00  1.1054577045512104e-04 2.2319712593627298e-03 0.0000000000000000e+00  1.2753619147798888e-04 2.2674222393173839e-03 0.0000000000000000e+00  1.4357000027343168e-04 2.3029889907551335e-03 0.0000000000000000e+00  1.5867754158063846e-04 2.3387087249825481e-03 0.0000000000000000e+00  1.7287598285883356e-04 2.3746320484972720e-03 0.0000000000000000e+00  1.8617077236360028e-04 2.4108150074045849e-03 0.0000000000000000e+00  1.9855775926910620e-04 2.4473134938254671e-03 0.0000000000000000e+00  2.1002548527462425e-04 2.4841796999689595e-03 0.0000000000000000e+00  2.2055730187676533e-04 2.5214602579572273e-03 0.0000000000000000e+00  2.3013308712320865e-04 2.5591956432736221e-03 0.0000000000000000e+00  2.3873043715330372e-04 2.5974204061192901e-03 0.0000000000000000e+00  2.4632527978837935e-04 2.6361638306638315e-03 0.0000000000000000e+00  2.5289190004159913e-04 2.6754506691474950e-03 0.0000000000000000e+00  2.5840239362227141e-04 2.7153016249497237e-03 0.0000000000000000e+00  2.6282559054202485e-04 2.7557332586923646e-03 0.0000000000000000e+00  2.6612553105125839e-04 2.7967569749823749e-03 0.0000000000000000e+00  2.6825964280432205e-04 2.8383767356136920e-03 0.0000000000000000e+00  4.2215767071527141e-05 2.0904101226102189e-03 0.0000000000000000e+00  6.3032070464521861e-05 2.1271280197405398e-03 0.0000000000000000e+00  8.2674973356965288e-05 2.1640782413541761e-03 0.0000000000000000e+00  1.0122960877526632e-04 2.2011790575697408e-03 0.0000000000000000e+00  1.1876663631461928e-04 2.2384129546379580e-03 0.0000000000000000e+00  1.3533761056067810e-04 2.2758047822735721e-03 0.0000000000000000e+00  1.5097473424514381e-04 2.3134042623635053e-03 0.0000000000000000e+00  1.6569294776649351e-04 2.3512729633116559e-03 0.0000000000000000e+00  1.7949309037145950e-04 2.3894751079373928e-03 0.0000000000000000e+00  1.9236540837103182e-04 2.4280714766680301e-03 0.0000000000000000e+00  2.0429293708770573e-04 2.4671158802667620e-03 0.0000000000000000e+00  2.1525441994659416e-04 2.5066536958515363e-03 0.0000000000000000e+00  2.2522656304390821e-04 2.5467218911312804e-03 0.0000000000000000e+00  2.3418554372269790e-04 2.5873499709174372e-03 0.0000000000000000e+00  2.4210776271822910e-04 2.6285613673456953e-03 0.0000000000000000e+00  2.4896985175478745e-04 2.6703748846043521e-03 0.0000000000000000e+00  2.5474794652346686e-04 2.7128058511292487e-03 0.0000000000000000e+00  2.5941623427430460e-04 2.7558666219766742e-03 0.0000000000000000e+00  2.6294480447040932e-04 2.7995660287707782e-03 0.0000000000000000e+00  2.6529688560020378e-04 2.8439073184483455e-03 0.0000000000000000e+00  2.6642566018378799e-04 2.8888840860106808e-03 0.0000000000000000e+00  5.2638612288609408e-05 2.0924479317122047e-03 0.0000000000000000e+00  7.2602322073917890e-05 2.1311757539858437e-03 0.0000000000000000e+00  9.1473366465350493e-05 2.1700423017971498e-03 0.0000000000000000e+00  1.0933837483805758e-04 2.2090506796912197e-03 0.0000000000000000e+00  1.2625462212383513e-04 2.2482483878667431e-03 0.0000000000000000e+00  1.4225315403270983e-04 2.2877055435623901e-03 0.0000000000000000e+00  1.5734358291656371e-04 2.3274998880094405e-03 0.0000000000000000e+00  1.7151931181711135e-04 2.3677068719522307e-03 0.0000000000000000e+00  1.8476263254169610e-04 2.4083934690409059e-03 0.0000000000000000e+00  1.9704931429575598e-04 2.4496150598968354e-03 0.0000000000000000e+00  2.0835237100849454e-04 2.4914147625704889e-03 0.0000000000000000e+00  2.1864484982283473e-04 2.5338244391564890e-03 0.0000000000000000e+00  2.2790163476138955e-04 2.5768666511502736e-03 0.0000000000000000e+00  2.3610032553649239e-04 2.6205570177325484e-03 0.0000000000000000e+00  2.4322123900427219e-04 2.6649065885717073e-03 0.0000000000000000e+00  2.4924653689239405e-04 2.7099239025567055e-03 0.0000000000000000e+00  2.5415844607754837e-04 2.7556163749619805e-03 0.0000000000000000e+00  2.5793652641033156e-04 2.8019905700972965e-03 0.0000000000000000e+00  2.6055396845328893e-04 2.8490508013142711e-03 0.0000000000000000e+00  2.6197298832950219e-04 2.8967953787864867e-03 0.0000000000000000e+00  2.6213957433790096e-04 2.9452097099394413e-03 0.0000000000000000e+00  6.2315536268491435e-05 2.0980924688755818e-03 0.0000000000000000e+00  8.1263803463770530e-05 2.1387103226730678e-03 0.0000000000000000e+00  9.9250285263409086e-05 2.1794579397530689e-03 0.0000000000000000e+00  1.1633322521485078e-04 2.2204186223133459e-03 0.0000000000000000e+00  1.3253781243092097e-04 2.2616915216183251e-03 0.0000000000000000e+00  1.4786416326506615e-04 2.3033758116215533e-03 0.0000000000000000e+00  1.6229475075881761e-04 2.3455609118462743e-03 0.0000000000000000e+00  1.7580116118734782e-04 2.3883207320240770e-03 0.0000000000000000e+00  1.8834992868974916e-04 2.4317114497165058e-03 0.0000000000000000e+00  1.9990712858770709e-04 2.4757721400908419e-03 0.0000000000000000e+00  2.1044162792385518e-04 2.5205271988926110e-03 0.0000000000000000e+00  2.1992711095364698e-04 2.5659896161714271e-03 0.0000000000000000e+00  2.2834305054928803e-04 2.6121645177045816e-03 0.0000000000000000e+