<?xml version="1.0"?>
<VTKFile type="UnstructuredGrid"  version="0.1"  >
<UnstructuredGrid>
<Piece  NumberOfPoints="639" NumberOfCells="1174">
<Points>
<DataArray  type="Float64"  NumberOfComponents="3"  format="ascii">1.024347826086957 0 0  1.040869565217391 0 0  1.040869565217391 0.01666666666666667 0  1.024347826086957 0.01666666666666667 0  1.057391304347826 0 0  1.057391304347826 0.01666666666666667 0  1.073913043478261 0 0  1.073913043478261 0.01666666666666667 0  1.090434782608696 0 0  1.090434782608696 0.01666666666666667 0  1.10695652173913 0 0  1.10695652173913 0.01666666666666667 0  1.123478260869565 0 0  1.123478260869565 0.01666666666666667 0  1.14 0 0  1.14 0.01666666666666667 0  1.156521739130435 0 0  1.156521739130435 0.01666666666666667 0  1.17304347826087 0 0  1.17304347826087 0.01666666666666667 0  1.189565217391304 0 0  1.189565217391304 0.01666666666666667 0  1.206086956521739 0 0  1.206086956521739 0.01666666666666667 0  1.222608695652174 0 0  1.222608695652174 0.01666666666666667 0  1.239130434782609 0 0  1.239130434782609 0.01666666666666667 0  1.255652173913044 0 0  1.255652173913044 0.01666666666666667 0  1.272173913043478 0 0  1.272173913043478 0.01666666666666667 0  1.288695652173913 0 0  1.288695652173913 0.01666666666666667 0  1.305217391304348 0 0  1.305217391304348 0.01666666666666667 0  1.321739130434783 0 0  1.321739130434783 0.01666666666666667 0  1.338260869565217 0.01666666666666667 0  1.040869565217391 0.03333333333333333 0  1.057391304347826 0.03333333333333333 0  1.073913043478261 0.03333333333333333 0  1.090434782608696 0.03333333333333333 0  1.10695652173913 0.03333333333333333 0  1.123478260869565 0.03333333333333333 0  1.14 0.03333333333333333 0  1.156521739130435 0.03333333333333333 0  1.17304347826087 0.03333333333333333 0  1.189565217391304 0.03333333333333333 0  1.206086956521739 0.03333333333333333 0  1.222608695652174 0.03333333333333333 0  1.239130434782609 0.03333333333333333 0  1.255652173913044 0.03333333333333333 0  1.272173913043478 0.03333333333333333 0  1.288695652173913 0.03333333333333333 0  1.305217391304348 0.03333333333333333 0  1.321739130434783 0.03333333333333333 0  1.338260869565217 0.03333333333333333 0  1.354782608695652 0.03333333333333333 0  1.057391304347826 0.05 0  1.073913043478261 0.05 0  1.090434782608696 0.05 0  1.10695652173913 0.05 0  1.123478260869565 0.05 0  1.14 0.05 0  1.156521739130435 0.05 0  1.17304347826087 0.05 0  1.189565217391304 0.05 0  1.206086956521739 0.05 0  1.222608695652174 0.05 0  1.239130434782609 0.05 0  1.255652173913044 0.05 0  1.272173913043478 0.05 0  1.288695652173913 0.05 0  1.305217391304348 0.05 0  1.321739130434783 0.05 0  1.338260869565217 0.05 0  1.354782608695652 0.05 0  1.371304347826087 0.05 0  1.073913043478261 0.06666666666666667 0  1.090434782608696 0.06666666666666667 0  1.10695652173913 0.06666666666666667 0  1.123478260869565 0.06666666666666667 0  1.14 0.06666666666666667 0  1.156521739130435 0.06666666666666667 0  1.17304347826087 0.06666666666666667 0  1.189565217391304 0.06666666666666667 0  1.206086956521739 0.06666666666666667 0  1.222608695652174 0.06666666666666667 0  1.239130434782609 0.06666666666666667 0  1.255652173913044 0.06666666666666667 0  1.272173913043478 0.06666666666666667 0  1.288695652173913 0.06666666666666667 0  1.305217391304348 0.06666666666666667 0  1.321739130434783 0.06666666666666667 0  1.338260869565217 0.06666666666666667 0  1.354782608695652 0.06666666666666667 0  1.371304347826087 0.06666666666666667 0  1.387826086956522 0.06666666666666667 0  1.090434782608696 0.08333333333333333 0  1.10695652173913 0.08333333333333333 0  1.123478260869565 0.08333333333333333 0  1.14 0.08333333333333333 0  1.156521739130435 0.08333333333333333 0  1.17304347826087 0.08333333333333333 0  1.189565217391304 0.08333333333333333 0  1.206086956521739 0.08333333333333333 0  1.222608695652174 0.08333333333333333 0  1.239130434782609 0.08333333333333333 0  1.255652173913044 0.08333333333333333 0  1.272173913043478 0.08333333333333333 0  1.288695652173913 0.08333333333333333 0  1.305217391304348 0.08333333333333333 0  1.321739130434783 0.08333333333333333 0  1.338260869565217 0.08333333333333333 0  1.354782608695652 0.08333333333333333 0  1.371304347826087 0.08333333333333333 0  1.387826086956522 0.08333333333333333 0  1.404347826086957 0.08333333333333333 0  1.10695652173913 0.1 0  1.123478260869565 0.1 0  1.14 0.1 0  1.156521739130435 0.1 0  1.17304347826087 0.1 0  1.189565217391304 0.1 0  1.206086956521739 0.1 0  1.222608695652174 0.1 0  1.239130434782609 0.1 0  1.255652173913044 0.1 0  1.272173913043478 0.1 0  1.288695652173913 0.1 0  1.305217391304348 0.1 0  1.321739130434783 0.1 0  1.338260869565217 0.1 0  1.354782608695652 0.1 0  1.371304347826087 0.1 0  1.387826086956522 0.1 0  1.404347826086957 0.1 0  1.420869565217391 0.1 0  1.123478260869565 0.1166666666666667 0  1.14 0.1166666666666667 0  1.156521739130435 0.1166666666666667 0  1.17304347826087 0.1166666666666667 0  1.189565217391304 0.1166666666666667 0  1.206086956521739 0.1166666666666667 0  1.222608695652174 0.1166666666666667 0  1.239130434782609 0.1166666666666667 0  1.255652173913044 0.1166666666666667 0  1.272173913043478 0.1166666666666667 0  1.288695652173913 0.1166666666666667 0  1.305217391304348 0.1166666666666667 0  1.321739130434783 0.1166666666666667 0  1.338260869565217 0.1166666666666667 0  1.354782608695652 0.1166666666666667 0  1.371304347826087 0.1166666666666667 0  1.387826086956522 0.1166666666666667 0  1.404347826086957 0.1166666666666667 0  1.420869565217391 0.1166666666666667 0  1.437391304347826 0.1166666666666667 0  1.14 0.1333333333333333 0  1.156521739130435 0.1333333333333333 0  1.17304347826087 0.1333333333333333 0  1.189565217391304 0.1333333333333333 0  1.206086956521739 0.1333333333333333 0  1.222608695652174 0.1333333333333333 0  1.239130434782609 0.1333333333333333 0  1.255652173913044 0.1333333333333333 0  1.272173913043478 0.1333333333333333 0  1.288695652173913 0.1333333333333333 0  1.305217391304348 0.1333333333333333 0  1.321739130434783 0.1333333333333333 0  1.338260869565217 0.1333333333333333 0  1.354782608695652 0.1333333333333333 0  1.371304347826087 0.1333333333333333 0  1.387826086956522 0.1333333333333333 0  1.404347826086957 0.1333333333333333 0  1.420869565217391 0.1333333333333333 0  1.437391304347826 0.1333333333333333 0  1.453913043478261 0.1333333333333333 0  1.156521739130435 0.15 0  1.17304347826087 0.15 0  1.189565217391304 0.15 0  1.206086956521739 0.15 0  1.222608695652174 0.15 0  1.239130434782609 0.15 0  1.255652173913044 0.15 0  1.272173913043478 0.15 0  1.288695652173913 0.15 0  1.305217391304348 0.15 0  1.321739130434783 0.15 0  1.338260869565217 0.15 0  1.354782608695652 0.15 0  1.371304347826087 0.15 0  1.387826086956522 0.15 0  1.404347826086957 0.15 0  1.420869565217391 0.15 0  1.437391304347826 0.15 0  1.453913043478261 0.15 0  1.470434782608696 0.15 0  1.17304347826087 0.1666666666666667 0  1.189565217391304 0.1666666666666667 0  1.206086956521739 0.1666666666666667 0  1.222608695652174 0.1666666666666667 0  1.239130434782609 0.1666666666666667 0  1.255652173913044 0.1666666666666667 0  1.272173913043478 0.1666666666666667 0  1.288695652173913 0.1666666666666667 0  1.305217391304348 0.1666666666666667 0  1.321739130434783 0.1666666666666667 0  1.338260869565217 0.1666666666666667 0  1.354782608695652 0.1666666666666667 0  1.371304347826087 0.1666666666666667 0  1.387826086956522 0.1666666666666667 0  1.404347826086957 0.1666666666666667 0  1.420869565217391 0.1666666666666667 0  1.437391304347826 0.1666666666666667 0  1.453913043478261 0.1666666666666667 0  1.470434782608696 0.1666666666666667 0  1.486956521739131 0.1666666666666667 0  1.189565217391304 0.1833333333333333 0  1.206086956521739 0.1833333333333333 0  1.222608695652174 0.1833333333333333 0  1.239130434782609 0.1833333333333333 0  1.255652173913044 0.1833333333333333 0  1.272173913043478 0.1833333333333333 0  1.288695652173913 0.1833333333333333 0  1.305217391304348 0.1833333333333333 0  1.321739130434783 0.1833333333333333 0  1.338260869565217 0.1833333333333333 0  1.354782608695652 0.1833333333333333 0  1.371304347826087 0.1833333333333333 0  1.387826086956522 0.1833333333333333 0  1.404347826086957 0.1833333333333333 0  1.420869565217391 0.1833333333333333 0  1.437391304347826 0.1833333333333333 0  1.453913043478261 0.1833333333333333 0  1.470434782608696 0.1833333333333333 0  1.486956521739131 0.1833333333333333 0  1.503478260869565 0.1833333333333333 0  1.206086956521739 0.2 0  1.222608695652174 0.2 0  1.239130434782609 0.2 0  1.255652173913044 0.2 0  1.272173913043478 0.2 0  1.288695652173913 0.2 0  1.305217391304348 0.2 0  1.321739130434783 0.2 0  1.338260869565217 0.2 0  1.354782608695652 0.2 0  1.371304347826087 0.2 0  1.387826086956522 0.2 0  1.404347826086957 0.2 0  1.420869565217391 0.2 0  1.437391304347826 0.2 0  1.453913043478261 0.2 0  1.470434782608696 0.2 0  1.486956521739131 0.2 0  1.503478260869565 0.2 0  1.52 0.2 0  1.222608695652174 0.2166666666666667 0  1.239130434782609 0.2166666666666667 0  1.255652173913044 0.2166666666666667 0  1.272173913043478 0.2166666666666667 0  1.288695652173913 0.2166666666666667 0  1.305217391304348 0.2166666666666667 0  1.321739130434783 0.2166666666666667 0  1.338260869565217 0.2166666666666667 0  1.354782608695652 0.2166666666666667 0  1.371304347826087 0.2166666666666667 0  1.387826086956522 0.2166666666666667 0  1.404347826086957 0.2166666666666667 0  1.420869565217391 0.2166666666666667 0  1.437391304347826 0.2166666666666667 0  1.453913043478261 0.2166666666666667 0  1.470434782608696 0.2166666666666667 0  1.486956521739131 0.2166666666666667 0  1.503478260869565 0.2166666666666667 0  1.52 0.2166666666666667 0  1.536521739130435 0.2166666666666667 0  1.239130434782609 0.2333333333333333 0  1.255652173913044 0.2333333333333333 0  1.272173913043478 0.2333333333333333 0  1.288695652173913 0.2333333333333333 0  1.305217391304348 0.23333
[...]
<PointData  Vectors="Displacement"> 
<DataArray  type="Float64"  Name="Displacement"  NumberOfComponents="3" format="ascii">1.8874482749402984e-04 1.8177234231991943e-03 0.0000000000000000e+00  1.9158040683810970e-04 1.8436742277269337e-03 0.0000000000000000e+00  1.6556507182153947e-04 1.8426695581186432e-03 0.0000000000000000e+00  1.6242191007617999e-04 1.8167262052720496e-03 0.0000000000000000e+00  1.9442064111970038e-04 1.8693028967009704e-03 0.0000000000000000e+00  1.6874772751987086e-04 1.8682905390681461e-03 0.0000000000000000e+00  1.9726555220487535e-04 1.8945740903372496e-03 0.0000000000000000e+00  1.7197130896430318e-04 1.8935543758355131e-03 0.0000000000000000e+00  2.0011452168202501e-04 1.9194520218235357e-03 0.0000000000000000e+00  1.7523473364713406e-04 1.9184258796565061e-03 0.0000000000000000e+00  2.0296630045198998e-04 1.9439024897422823e-03 0.0000000000000000e+00  1.7853410324415495e-04 1.9428713226705705e-03 0.0000000000000000e+00  2.0581920378636082e-04 1.9678949567248469e-03 0.0000000000000000e+00  1.8186314477763597e-04 1.9668603466498533e-03 0.0000000000000000e+00  2.0867143473918089e-04 1.9914040040633465e-03 0.0000000000000000e+00  1.8521447162958018e-04 1.9903673796048829e-03 0.0000000000000000e+00  2.1152140883871670e-04 2.0144096660120168e-03 0.0000000000000000e+00  1.8858114700869190e-04 2.0133720671409758e-03 0.0000000000000000e+00  2.1436794912165020e-04 2.0368965547474722e-03 0.0000000000000000e+00  1.9195793735268292e-04 2.0358586294469193e-03 0.0000000000000000e+00  2.1721030530008026e-04 2.0588523547289675e-03 0.0000000000000000e+00  1.9534155561159631e-04 2.0578145276155886e-03 0.0000000000000000e+00  2.2004806472867937e-04 2.0802666940654647e-03 0.0000000000000000e+00  1.9872991257605108e-04 2.0792293082355705e-03 0.0000000000000000e+00  2.2288095997584568e-04 2.1011309079642538e-03 0.0000000000000000e+00  2.0212118788957823e-04 2.1000943522818450e-03 0.0000000000000000e+00  2.2570853440462689e-04 2.1214382527416872e-03 0.0000000000000000e+00  2.0551314861483444e-04 2.1204031923885264e-03 0.0000000000000000e+00  2.2852984975019319e-04 2.1411841029584425e-03 0.0000000000000000e+00  2.0890248909719613e-04 2.1401516622563347e-03 0.0000000000000000e+00  2.3134359232672257e-04 2.1603667617880172e-03 0.0000000000000000e+00  2.1228417288736445e-04 2.1593381851349467e-03 0.0000000000000000e+00  2.3414902844027554e-04 2.1789891579434570e-03 0.0000000000000000e+00  2.1565242167912761e-04 2.1779642731629403e-03 0.0000000000000000e+00  2.3694769474756885e-04 2.1970582297859511e-03 0.0000000000000000e+00  2.1900684937149954e-04 2.1960335722254116e-03 0.0000000000000000e+00  2.3974354391620962e-04 2.2145763667292344e-03 0.0000000000000000e+00  2.2236132568217133e-04 2.2135471503470202e-03 0.0000000000000000e+00  2.2573763383530003e-04 2.2304957692241929e-03 0.0000000000000000e+00  1.3943688679862371e-04 1.8416118391945851e-03 0.0000000000000000e+00  1.4295023525718592e-04 1.8672181132687083e-03 0.0000000000000000e+00  1.4653927698669161e-04 1.8924667286451574e-03 0.0000000000000000e+00  1.5020276432447667e-04 1.9173234488514428e-03 0.0000000000000000e+00  1.5393486477494750e-04 1.9417556016213540e-03 0.0000000000000000e+00  1.5772574413686980e-04 1.9657337011701600e-03 0.0000000000000000e+00  1.6156338853767042e-04 1.9892325587758984e-03 0.0000000000000000e+00  1.6543611043580623e-04 2.0122316104975498e-03 0.0000000000000000e+00  1.6933484393236839e-04 2.0347144211613931e-03 0.0000000000000000e+00  1.7325405434664504e-04 2.0566677538616717e-03 0.0000000000000000e+00  1.7719021886176823e-04 2.0780807702342058e-03 0.0000000000000000e+00  1.8113859546516262e-04 2.0989447788401518e-03 0.0000000000000000e+00  1.8509227079024237e-04 2.1192534534000759e-03 0.0000000000000000e+00  1.8904463461296374e-04 2.1390030680199516e-03 0.0000000000000000e+00  1.9298961737553952e-04 2.1581926504725983e-03 0.0000000000000000e+00  1.9692133842161299e-04 2.1768236424562410e-03 0.0000000000000000e+00  2.0084007094017358e-04 2.1948972926000383e-03 0.0000000000000000e+00  2.0476134261406665e-04 2.2124097111251091e-03 0.0000000000000000e+00  2.0871120523002811e-04 2.2293497583613579e-03 0.0000000000000000e+00  2.1270022022244872e-04 2.2457022352385479e-03 0.0000000000000000e+00  1.4327832336715726e-04 1.8533259681626283e-03 0.0000000000000000e+00  1.4732439372040125e-04 1.8790653912723052e-03 0.0000000000000000e+00  1.5137847565101144e-04 1.9044450700504644e-03 0.0000000000000000e+00  1.5543335188747661e-04 1.9294336862240350e-03 0.0000000000000000e+00  1.5947929178351743e-04 1.9540019836315000e-03 0.0000000000000000e+00  1.6350502199356470e-04 1.9781233384867083e-03 0.0000000000000000e+00  1.6749898296464276e-04 2.0017739599534471e-03 0.0000000000000000e+00  1.7145044240272808e-04 2.0249327720620017e-03 0.0000000000000000e+00  1.7535004283518896e-04 2.0475812164122685e-03 0.0000000000000000e+00  1.7918961377627333e-04 2.0697031831947671e-03 0.0000000000000000e+00  1.8296158807718443e-04 2.0912849346800631e-03 0.0000000000000000e+00  1.8665880597855893e-04 2.1123146277756940e-03 0.0000000000000000e+00  1.9027509667040142e-04 2.1327818052263164e-03 0.0000000000000000e+00  1.9380617707249114e-04 2.1526775167549448e-03 0.0000000000000000e+00  1.9725078656221190e-04 2.1719936556760214e-03 0.0000000000000000e+00  2.0061235559584264e-04 2.1907203517716346e-03 0.0000000000000000e+00  2.0389988868075893e-04 2.2088435605951777e-03 0.0000000000000000e+00  2.0712546724696069e-04 2.2263468144218973e-03 0.0000000000000000e+00  2.1029885663508577e-04 2.2432153639759026e-03 0.0000000000000000e+00  2.1342502930873819e-04 2.2594343273781535e-03 0.0000000000000000e+00  1.4701667449301169e-04 1.8655170737136401e-03 0.0000000000000000e+00  1.5141755815094540e-04 1.8914731168305629e-03 0.0000000000000000e+00  1.5575827851956866e-04 1.9170715814526239e-03 0.0000000000000000e+00  1.6002845566772132e-04 1.9422826300658053e-03 0.0000000000000000e+00  1.6421651685842540e-04 1.9670779888731689e-03 0.0000000000000000e+00  1.6831040315455007e-04 1.9914311082702882e-03 0.0000000000000000e+00  1.7229821977312628e-04 2.0153171937974381e-03 0.0000000000000000e+00  1.7616869192818986e-04 2.0387132179351224e-03 0.0000000000000000e+00  1.7991141708257211e-04 2.0615979492125151e-03 0.0000000000000000e+00  1.8351705211423641e-04 2.0839518363089111e-03 0.0000000000000000e+00  1.8697761161486442e-04 2.1057565440114894e-03 0.0000000000000000e+00  1.9028694525277760e-04 2.1269944076085850e-03 0.0000000000000000e+00  1.9344140091019275e-04 2.1476481755201334e-03 0.0000000000000000e+00  1.9644063983762143e-04 2.1677003978743197e-03 0.0000000000000000e+00  1.9928821880697294e-04 2.1871320627365361e-03 0.0000000000000000e+00  2.0199128698483412e-04 2.2059219027434282e-03 0.0000000000000000e+00  2.0455923068886058e-04 2.2240481770774536e-03 0.0000000000000000e+00  2.0700219399520688e-04 2.2414911373809586e-03 0.0000000000000000e+00  2.0933048026558086e-04 2.2582314658017512e-03 0.0000000000000000e+00  2.1155427323002416e-04 2.2742450117063935e-03 0.0000000000000000e+00  1.5040238614191689e-04 1.8784225399876148e-03 0.0000000000000000e+00  1.5499413790820139e-04 1.9046801145829191e-03 0.0000000000000000e+00  1.5945976294824736e-04 1.9305830502272425e-03 0.0000000000000000e+00  1.6378712327142189e-04 1.9561012574385401e-03 0.0000000000000000e+00  1.6796357562903972e-04 1.9812055613462306e-03 0.0000000000000000e+00  1.7197641144230366e-04 2.0058677626934606e-03 0.0000000000000000e+00  1.7581325801231483e-04 2.0300606576435908e-03 0.0000000000000000e+00  1.7946246717797179e-04 2.0537580053486895e-03 0.0000000000000000e+00  1.8291354796521201e-04 2.0769343446067315e-03 0.0000000000000000e+00  1.8615766974384862e-04 2.0995645899043272e-03 0.0000000000000000e+00  1.8918821089692389e-04 2.1216235760352980e-03 0.0000000000000000e+00  1.9200133712759035e-04 2.1430857455212648e-03 0.0000000000000000e+00  1.9459655214748646e-04 2.1639247754728663e-03 0.0000000000000000e+00  1.9697694861153350e-04 2.1841131346976351e-03 0.0000000000000000e+00  1.9914885605603960e-04 2.2036223444602738e-03 0.0000000000000000e+00  2.0112097728377512e-04 2.2224246110217533e-03 0.0000000000000000e+00  2.0290343133444252e-04 2.2404946625103109e-03 0.0000000000000000e+00  2.0450657371324745e-04 2.2578096025264041e-03 0.0000000000000000e+00  2.0593848120722274e-04 2.2743472571848909e-03 0.0000000000000000e+00  2.0719961827794867e-04 2.2900863231242563e-03 0.0000000000000000e+00  1.5321466312683089e-04 1.8922688351049038e-03 0.0000000000000000e+00  1.5784876508234815e-04 1.9189093896042535e-03 0.0000000000000000e+00  1.6229442414700189e-04 1.9451962015411271e-03 0.0000000000000000e+00  1.6653855971750025e-04 1.9710974814641721e-03 0.0000000000000000e+00  1.7056795106122424e-04 1.9965817436448105e-03 0.0000000000000000e+00  1.7436956990790937e-04 2.0216177588070813e-03 0.0000000000000000e+00  1.7793097978207131e-04 2.0461744112422551e-03 0.0000000000000000e+00  1.8124083440553031e-04 2.0702204285912539e-03 0.0000000000000000e+00  1.8428946630355303e-04 2.0937239959755447e-03 0.0000000000000000e+00  1.8706951479823420e-04 2.1166523862678945e-03 0.0000000000000000e+00  1.8957653342240082e-04 2.1389717431802820e-03 0.0000000000000000e+00  1.9180948271931228e-04 2.1606470091408525e-03 0.0000000000000000e+00  1.9377092524419854e-04 2.1816421092331300e-03 0.0000000000000000e+00  1.9546677492891703e-04 2.2019208012596303e-03 0.0000000000000000e+00  1.9690566122637252e-04 2.2214484367310766e-03 0.0000000000000000e+00  1.9809801734027116e-04 2.2401940247003620e-03 0.0000000000000000e+00  1.9905458629070034e-04 2.2581316608153070e-03 0.0000000000000000e+00  1.9978373404238372e-04 2.2752415141337164e-03 0.0000000000000000e+00  2.0028713113048736e-04 2.2915128574312357e-03 0.0000000000000000e+00  2.0055432009129256e-04 2.3069540458432957e-03 0.0000000000000000e+00  1.5525949585936899e-04 1.9072667734135052e-03 0.0000000000000000e+00  1.5980365179630226e-04 1.9343647395970156e-03 0.0000000000000000e+00  1.6410191611937233e-04 1.9611056504161557e-03 0.0000000000000000e+00  1.6814088264409646e-04 1.9874548202134220e-03 0.0000000000000000e+00  1.7190720247507735e-04 2.0133771563286846e-03 0.0000000000000000e+00  1.7538792400596193e-04 2.0388368725716365e-03 0.0000000000000000e+00  1.7857098387884614e-04 2.0637970905752370e-03 0.0000000000000000e+00  1.8144584508497454e-04 2.0882194019240887e-03 0.0000000000000000e+00  1.8400422977582698e-04 2.1120635315415772e-03 0.0000000000000000e+00  1.8624085533533246e-04 2.1352872428012570e-03 0.0000000000000000e+00  1.8815403563718225e-04 2.1578465632764976e-03 0.0000000000000000e+00  1.8974596777682789e-04 2.1796964508262432e-03 0.0000000000000000e+00  1.9102258580023227e-04 2.2007921010372532e-03 0.0000000000000000e+00  1.9199301636309740e-04 2.2210910168879764e-03 0.0000000000000000e+00  1.9266871285434392e-04 2.2405556465634265e-03 0.0000000000000000e+00  1.9306210823008516e-04 2.2591562164729247e-03 0.0000000000000000e+00  1.9318474989289900e-04 2.2768731662114786e-03 0.0000000000000000e+00  1.9304468688035548e-04 2.2937009010468605e-03 0.0000000000000000e+00  1.9264301097653540e-04 2.3096559912839949e-03 0.0000000000000000e+00  1.9196995991398207e-04 2.3247906785379005e-03 0.0000000000000000e+00  1.5636751161316744e-04 1.9236082613040336e-03 0.0000000000000000e+00  1.6070662092659485e-04 1.9512282220392778e-03 0.0000000000000000e+00  1.6474853101700344e-04 1.9784819053941896e-03 0.0000000000000000e+00  1.6847993482066304e-04 2.0053306009448148e-03 0.0000000000000000e+00  1.7188761666611275e-04 2.0317341746596616e-03 0.0000000000000000e+00  1.7495888689389279e-04 2.0576504671520387e-03 0.0000000000000000e+00  1.7768226026708081e-04 2.0830346979138171e-03 0.0000000000000000e+00  1.8004834507588270e-04 2.1078390626249927e-03 0.0000000000000000e+00  1.8205083315079822e-04 2.1320127131046764e-03 0.0000000000000000e+00  1.8368739168790689e-04 2.1555022627752062e-03 0.0000000000000000e+00  1.8496019323013208e-04 2.1782529199525090e-03 0.0000000000000000e+00  1.8587586961139470e-04 2.2002102863387871e-03 0.0000000000000000e+00  1.8644483196753574e-04 2.2213228406628531e-03 0.0000000000000000e+00  1.8668016536243533e-04 2.2415451338604958e-03 0.0000000000000000e+00  1.8659651633078615e-04 2.2608416838650093e-03 0.0000000000000000e+00  1.8620998475474203e-04 2.2791896657647225e-03 0.0000000000000000e+00  1.8553840604556768e-04 2.2965826382165991e-03 0.0000000000000000e+00  1.8459895371462709e-04 2.3130385532455474e-03 0.0000000000000000e+00  1.8339942230282118e-04 2.3286152471578472e-03 0.0000000000000000e+00  1.8191534006265202e-04 2.3434217081716602e-03 0.0000000000000000e+00  1.5639209862614324e-04 1.9414634515029785e-03 0.0000000000000000e+00  1.6042955788154727e-04 1.9696578430358829e-03 0.0000000000000000e+00  1.6412584644576769e-04 1.9974695406459039e-03 0.0000000000000000e+00  1.6746781804554491e-04 2.0248545645398749e-03 0.0000000000000000e+00  1.7044227302364374e-04 2.0517659880046704e-03 0.0000000000000000e+00  1.7303665238508175e-04 2.0781530219948080e-03 0.0000000000000000e+00  1.7524013797393014e-04 2.1039603726450591e-03 0.0000000000000000e+00  1.7704506282980288e-04 2.1291281679750528e-03 0.0000000000000000e+00  1.7844836237178419e-04 2.1535927070329744e-03 0.0000000000000000e+00  1.7945263055776646e-04 2.1772881634404147e-03 0.0000000000000000e+00  1.8006630210849476e-04 2.2001491339125800e-03 0.0000000000000000e+00  1.8030255145522916e-04 2.2221138958259867e-03 0.0000000000000000e+00  1.8017690219655769e-04 2.2431281057453808e-03 0.0000000000000000e+00  1.7970510649622216e-04 2.2631488294597387e-03 0.0000000000000000e+00  1.7890625231638859e-04 2.2821450357485705e-03 0.0000000000000000e+00  1.7780977020513187e-04 2.3001003393358179e-03 0.0000000000000000e+00  1.7645817655474031e-04 2.3170257974624710e-03 0.0000000000000000e+00  1.7488724443129430e-04 2.3329873203960885e-03 0.0000000000000000e+00  1.7308016198734280e-04 2.3481567864205087e-03 0.0000000000000000e+00  1.7095835570747419e-04 2.3625829888464511e-03 0.0000000000000000e+00  1.5520796194223901e-04 1.9609781625606875e-03 0.0000000000000000e+00  1.5886719956314960e-04 1.9897857314705000e-03 0.0000000000000000e+00  1.6214948852980067e-04 2.0181861505676820e-03 0.0000000000000000e+00  1.6504134760312553e-04 2.0461285474383550e-03 0.0000000000000000e+00  1.6752899642056570e-04 2.0735567751016216e-03 0.0000000000000000e+00  1.6959967253243218e-04 2.1004082325669117e-03 0.0000000000000000e+00  1.7124364800639308e-04 2.1266134600594106e-03 0.0000000000000000e+00  1.7245664971282795e-04 2.1520970016481989e-03 0.0000000000000000e+00  1.7324199960910678e-04 2.1767798384474905e-03 0.0000000000000000e+00  1.7361155024936943e-04 2.2005832359320125e-03 0.0000000000000000e+00  1.7358413698984220e-04 2.2234338380733259e-03 0.0000000000000000e+00  1.7318049439671749e-04 2.2452692230367720e-03 0.0000000000000000e+00  1.7241538169753538e-04 2.2660407359378844e-03 0.0000000000000000e+00  1.7130256283208838e-04 2.2857028515776271e-03 0.0000000000000000e+00  1.6988021990317802e-04 2.3042124887463619e-03 0.0000000000000000e+00  1.6822795177158054e-04 2.3215502636525333e-03 0.0000000000000000e+00  1.6644720736915729e-04 2.3377970311086829e-03 0.0000000000000000e+00  1.6451178028087349e-04 2.3532260735034073e-03 0.0000000000000000e+00  1.6247199612062487e-04 2.3679776467899630e-03 0.0000000000000000e+00  1.6011260556612173e-04 2.3815298235373575e-03 0.0000000000000000e+00  1.5271020540081831e-04 1.9822719995814622e-03 0.0000000000000000e+00  1.5593629202596766e-04 2.0117174034252347e-03 0.0000000000000000e+00  1.5875806769315355e-04 2.0407226859092921e-03 0.0000000000000000e+00  1.6116046975014984e-04 2.0692275322775388e-03 0.0000000000000000e+00  1.6312804367401963e-04 2.0971626510879484e-03 0.0000000000000000e+00  1.6464766524986889e-04 2.1244484699772981e-03 0.0000000000000000e+00  1.6571246960894078e-04 2.1509956918421653e-03 0.0000000000000000e+00  1.6632608125293153e-04 2.1767085118714708e-03 0.0000000000000000e+00  1.6650552178307484e-04 2.2014904338259348e-03 0.0000000000000000e+00  1.6628013717448045e-04 2.2252534255130570e-03 0.0000000000000000e+00  1.6568235453086970e-04 2.2479292705420311e-03 0.0000000000000000e+00  1.6472938751010440e-04 2.2694773815457123e-03 0.0000000000000000e+00  1.6341336199169845e-04 2.2898393910532155e-03 0.0000000000000000e+00  1.6175092567315979e-04 2.3089073407781785e-03 0.0000000000000000e+00  1.5987829834819331e-04 2.3265878480986067e-03 0.0000000000000000e+00  1.5797728757972342e-04 2.3429313632844471e-03 0.0000000000000000e+00  1.5611495755759008e-04 2.3585742986468252e-03 0.0000000000000000e+00  1.5406045171810839e-04 2.3732115586737120e-03 0.0000000000000000e+00  1.5331729664103995e-04 2.3873332963266561e-03 0.0000000000000000e+00  1.5179026376944466e-04 2.3955432151970945e-03 0.0000000000000000e+00  1.4881393779111801e-04 2.0054378934127024e-03 0.0000000000000000e+00  1.5157505085223620e-04 2.0355328587267278e-03 0.0000000000000000e+00  1.5391208035039254e-04 2.0651457765496696e-03 0.0000000000000000e+00  1.5580609771672071e-04 2.0942022716955201e-03 0.0000000000000000e+00  1.5723844985840961e-04 2.1226127329150258e-03 0.0000000000000000e+00  1.5819666222603390e-04 2.1502714559910601e-03 0.0000000000000000e+00  1.5868232545572882e-04 2.1770601383024036e-03 0.0000000000000000e+00  1.5871865080709237e-04 2.2028562422991048e-03 0.0000000000000000e+00  1.5835168669448661e-04 2.2275489054662373e-03 0.0000000000000000e+00  1.5763799419138630e-04 2.2510658544987621e-03 0.0000000000000000e+00  1.5660461743909662e-04 2.2733966414497436e-03 0.0000000000000000e+00  1.5524309834683104e-04 2.2945217670473882e-03 0.0000000000000000e+00  1.5347175629812468e-04 2.3142215124765937e-03 0.0000000000000000e+00  1.5140293983859684e-04 2.3321310948135844e-03 0.0000000000000000e+00  1.4957358462374973e-04 2.3483435390605884e-03 0.0000000000000000e+00  1.4771520636074591e-04 2.3637062385795196e-03 0.0000000000000000e+00  1.4725455377439636e-04 2.3787155727906482e-03 0.0000000000000000e+00  1.4624480124691901e-04 2.3873694640490356e-03 0.0000000000000000e+00  1.4572523162797516e-04 2.3952974553232832e-03 0.0000000000000000e+00  1.4515907026873258e-04 2.4028420690090434e-03 0.0000000000000000e+00  1.4345419262653693e-04 2.0305440348876128e-03 0.0000000000000000e+00  1.4574255229253403e-04 2.0612905735960391e-03 0.0000000000000000e+00  1.4759202928067545e-04 2.0915030464200156e-03 0.0000000000000000e+00  1.4897594275221969e-04 2.1210837919308583e-03 0.0000000000000000e+00  1.4987078710140218e-04 2.1499085973187212e-03 0.0000000000000000e+00  1.5026991626657891e-04 2.1778285069504210e-03 0.0000000000000000e+00  1.5020054236558353e-04 2.2046796936401806e-03 0.0000000000000000e+00  1.4973378179430696e-04 2.2303120439839254e-03 0.0000000000000000e+00  1.4896235215230256e-04 2.2546398589429468e-03 0.0000000000000000e+00  1.4794633824598662e-04 2.2777299296056173e-03 0.0000000000000000e+00  1.4665624091356714e-04 2.2996007768565337e-03 0.0000000000000000e+00  1.4519657634340854e-04 2.3201968445653708e-03 0.0000000000000000e+00  1.4308494842096774e-04 2.3383731545094776e-03 0.0000000000000000e+00  1.4109326239446465e-04 2.3534728505352777e-03 0.0000000000000000e+00  1.4087019445047254e-04 2.3691311981286359e-03 0.0000000000000000e+00  1.3989113643388351e-04 2.3786273995623566e-03 0.0000000000000000e+00  1.3939148353019949e-04 2.3872107832148405e-03 0.0000000000000000e+00  1.3894540077237554e-04 2.3952143836369895e-03 0.0000000000000000e+00  1.3861287917997200e-04 2.4027904257548187e-03 0.0000000000000000e+00  1.3833555484109140e-04 2.4098858895828150e-03 0.0000000000000000e+00  1.3658556402568772e-04 2.0576397799564440e-03 0.0000000000000000e+00  1.3841709320293631e-04 2.0890363918389851e-03 0.0000000000000000e+00  1.3979422886005926e-04 2.1198333070937877e-03 0.0000000000000000e+00  1.4067563685651131e-04 2.1498896801793376e-03 0.0000000000000000e+00  1.4103241513724966e-04 2.1790156533394497e-03 0.0000000000000000e+