<?xml version="1.0"?>
<VTKFile type="UnstructuredGrid"  version="0.1"  >
<UnstructuredGrid>
<Piece  NumberOfPoints="639" NumberOfCells="1175">
<Points>
<DataArray  type="Float64"  NumberOfComponents="3"  format="ascii">1.321739130434783 0 0  1.338260869565217 0 0  1.338260869565217 0.01666666666666667 0  1.354782608695652 0 0  1.354782608695652 0.01666666666666667 0  1.371304347826087 0 0  1.371304347826087 0.01666666666666667 0  1.387826086956522 0 0  1.387826086956522 0.01666666666666667 0  1.404347826086957 0 0  1.404347826086957 0.01666666666666667 0  1.420869565217391 0 0  1.420869565217391 0.01666666666666667 0  1.437391304347826 0 0  1.437391304347826 0.01666666666666667 0  1.453913043478261 0 0  1.453913043478261 0.01666666666666667 0  1.470434782608696 0 0  1.470434782608696 0.01666666666666667 0  1.486956521739131 0 0  1.486956521739131 0.01666666666666667 0  1.503478260869565 0 0  1.503478260869565 0.01666666666666667 0  1.52 0 0  1.52 0.01666666666666667 0  1.536521739130435 0 0  1.536521739130435 0.01666666666666667 0  1.55304347826087 0 0  1.55304347826087 0.01666666666666667 0  1.569565217391304 0 0  1.569565217391304 0.01666666666666667 0  1.586086956521739 0 0  1.586086956521739 0.01666666666666667 0  1.602608695652174 0 0  1.602608695652174 0.01666666666666667 0  1.619130434782609 0 0  1.619130434782609 0.01666666666666667 0  1.635652173913043 0 0  1.635652173913043 0.01666666666666667 0  1.652173913043478 0 0  1.652173913043478 0.01666666666666667 0  1.668695652173913 0 0  1.668695652173913 0.01666666666666667 0  1.685217391304348 0 0  1.685217391304348 0.01666666666666667 0  1.701739130434782 0 0  1.701739130434782 0.01666666666666667 0  1.718260869565217 0 0  1.718260869565217 0.01666666666666667 0  1.734782608695652 0 0  1.734782608695652 0.01666666666666667 0  1.751304347826087 0 0  1.751304347826087 0.01666666666666667 0  1.767826086956522 0 0  1.767826086956522 0.01666666666666667 0  1.784347826086957 0 0  1.784347826086957 0.01666666666666667 0  1.800869565217391 0 0  1.800869565217391 0.01666666666666667 0  1.817391304347826 0 0  1.817391304347826 0.01666666666666667 0  1.833913043478261 0 0  1.833913043478261 0.01666666666666667 0  1.850434782608696 0 0  1.850434782608696 0.01666666666666667 0  1.86695652173913 0 0  1.86695652173913 0.01666666666666667 0  1.883478260869565 0 0  1.883478260869565 0.01666666666666667 0  1.354782608695652 0.03333333333333333 0  1.371304347826087 0.03333333333333333 0  1.387826086956522 0.03333333333333333 0  1.404347826086957 0.03333333333333333 0  1.420869565217391 0.03333333333333333 0  1.437391304347826 0.03333333333333333 0  1.453913043478261 0.03333333333333333 0  1.470434782608696 0.03333333333333333 0  1.486956521739131 0.03333333333333333 0  1.503478260869565 0.03333333333333333 0  1.52 0.03333333333333333 0  1.536521739130435 0.03333333333333333 0  1.55304347826087 0.03333333333333333 0  1.569565217391304 0.03333333333333333 0  1.586086956521739 0.03333333333333333 0  1.602608695652174 0.03333333333333333 0  1.619130434782609 0.03333333333333333 0  1.635652173913043 0.03333333333333333 0  1.652173913043478 0.03333333333333333 0  1.668695652173913 0.03333333333333333 0  1.685217391304348 0.03333333333333333 0  1.701739130434782 0.03333333333333333 0  1.718260869565217 0.03333333333333333 0  1.734782608695652 0.03333333333333333 0  1.751304347826087 0.03333333333333333 0  1.767826086956522 0.03333333333333333 0  1.784347826086957 0.03333333333333333 0  1.800869565217391 0.03333333333333333 0  1.817391304347826 0.03333333333333333 0  1.833913043478261 0.03333333333333333 0  1.850434782608696 0.03333333333333333 0  1.86695652173913 0.03333333333333333 0  1.883478260869565 0.03333333333333333 0  1.371304347826087 0.05 0  1.387826086956522 0.05 0  1.404347826086957 0.05 0  1.420869565217391 0.05 0  1.437391304347826 0.05 0  1.453913043478261 0.05 0  1.470434782608696 0.05 0  1.486956521739131 0.05 0  1.503478260869565 0.05 0  1.52 0.05 0  1.536521739130435 0.05 0  1.55304347826087 0.05 0  1.569565217391304 0.05 0  1.586086956521739 0.05 0  1.602608695652174 0.05 0  1.619130434782609 0.05 0  1.635652173913043 0.05 0  1.652173913043478 0.05 0  1.668695652173913 0.05 0  1.685217391304348 0.05 0  1.701739130434782 0.05 0  1.718260869565217 0.05 0  1.734782608695652 0.05 0  1.751304347826087 0.05 0  1.767826086956522 0.05 0  1.784347826086957 0.05 0  1.800869565217391 0.05 0  1.817391304347826 0.05 0  1.833913043478261 0.05 0  1.850434782608696 0.05 0  1.86695652173913 0.05 0  1.883478260869565 0.05 0  1.387826086956522 0.06666666666666667 0  1.404347826086957 0.06666666666666667 0  1.420869565217391 0.06666666666666667 0  1.437391304347826 0.06666666666666667 0  1.453913043478261 0.06666666666666667 0  1.470434782608696 0.06666666666666667 0  1.486956521739131 0.06666666666666667 0  1.503478260869565 0.06666666666666667 0  1.52 0.06666666666666667 0  1.536521739130435 0.06666666666666667 0  1.55304347826087 0.06666666666666667 0  1.569565217391304 0.06666666666666667 0  1.586086956521739 0.06666666666666667 0  1.602608695652174 0.06666666666666667 0  1.619130434782609 0.06666666666666667 0  1.635652173913043 0.06666666666666667 0  1.652173913043478 0.06666666666666667 0  1.668695652173913 0.06666666666666667 0  1.685217391304348 0.06666666666666667 0  1.701739130434782 0.06666666666666667 0  1.718260869565217 0.06666666666666667 0  1.734782608695652 0.06666666666666667 0  1.751304347826087 0.06666666666666667 0  1.767826086956522 0.06666666666666667 0  1.784347826086957 0.06666666666666667 0  1.800869565217391 0.06666666666666667 0  1.817391304347826 0.06666666666666667 0  1.833913043478261 0.06666666666666667 0  1.850434782608696 0.06666666666666667 0  1.86695652173913 0.06666666666666667 0  1.883478260869565 0.06666666666666667 0  1.404347826086957 0.08333333333333333 0  1.420869565217391 0.08333333333333333 0  1.437391304347826 0.08333333333333333 0  1.453913043478261 0.08333333333333333 0  1.470434782608696 0.08333333333333333 0  1.486956521739131 0.08333333333333333 0  1.503478260869565 0.08333333333333333 0  1.52 0.08333333333333333 0  1.536521739130435 0.08333333333333333 0  1.55304347826087 0.08333333333333333 0  1.569565217391304 0.08333333333333333 0  1.586086956521739 0.08333333333333333 0  1.602608695652174 0.08333333333333333 0  1.619130434782609 0.08333333333333333 0  1.635652173913043 0.08333333333333333 0  1.652173913043478 0.08333333333333333 0  1.668695652173913 0.08333333333333333 0  1.685217391304348 0.08333333333333333 0  1.701739130434782 0.08333333333333333 0  1.718260869565217 0.08333333333333333 0  1.734782608695652 0.08333333333333333 0  1.751304347826087 0.08333333333333333 0  1.767826086956522 0.08333333333333333 0  1.784347826086957 0.08333333333333333 0  1.800869565217391 0.08333333333333333 0  1.817391304347826 0.08333333333333333 0  1.833913043478261 0.08333333333333333 0  1.850434782608696 0.08333333333333333 0  1.86695652173913 0.08333333333333333 0  1.883478260869565 0.08333333333333333 0  1.420869565217391 0.1 0  1.437391304347826 0.1 0  1.453913043478261 0.1 0  1.470434782608696 0.1 0  1.486956521739131 0.1 0  1.503478260869565 0.1 0  1.52 0.1 0  1.536521739130435 0.1 0  1.55304347826087 0.1 0  1.569565217391304 0.1 0  1.586086956521739 0.1 0  1.602608695652174 0.1 0  1.619130434782609 0.1 0  1.635652173913043 0.1 0  1.652173913043478 0.1 0  1.668695652173913 0.1 0  1.685217391304348 0.1 0  1.701739130434782 0.1 0  1.718260869565217 0.1 0  1.734782608695652 0.1 0  1.751304347826087 0.1 0  1.767826086956522 0.1 0  1.784347826086957 0.1 0  1.800869565217391 0.1 0  1.817391304347826 0.1 0  1.833913043478261 0.1 0  1.850434782608696 0.1 0  1.86695652173913 0.1 0  1.883478260869565 0.1 0  1.437391304347826 0.1166666666666667 0  1.453913043478261 0.1166666666666667 0  1.470434782608696 0.1166666666666667 0  1.486956521739131 0.1166666666666667 0  1.503478260869565 0.1166666666666667 0  1.52 0.1166666666666667 0  1.536521739130435 0.1166666666666667 0  1.55304347826087 0.1166666666666667 0  1.569565217391304 0.1166666666666667 0  1.586086956521739 0.1166666666666667 0  1.602608695652174 0.1166666666666667 0  1.619130434782609 0.1166666666666667 0  1.635652173913043 0.1166666666666667 0  1.652173913043478 0.1166666666666667 0  1.668695652173913 0.1166666666666667 0  1.685217391304348 0.1166666666666667 0  1.701739130434782 0.1166666666666667 0  1.718260869565217 0.1166666666666667 0  1.734782608695652 0.1166666666666667 0  1.751304347826087 0.1166666666666667 0  1.767826086956522 0.1166666666666667 0  1.784347826086957 0.1166666666666667 0  1.800869565217391 0.1166666666666667 0  1.817391304347826 0.1166666666666667 0  1.833913043478261 0.1166666666666667 0  1.850434782608696 0.1166666666666667 0  1.86695652173913 0.1166666666666667 0  1.883478260869565 0.1166666666666667 0  1.453913043478261 0.1333333333333333 0  1.470434782608696 0.1333333333333333 0  1.486956521739131 0.1333333333333333 0  1.503478260869565 0.1333333333333333 0  1.52 0.1333333333333333 0  1.536521739130435 0.1333333333333333 0  1.55304347826087 0.1333333333333333 0  1.569565217391304 0.1333333333333333 0  1.586086956521739 0.1333333333333333 0  1.602608695652174 0.1333333333333333 0  1.619130434782609 0.1333333333333333 0  1.635652173913043 0.1333333333333333 0  1.652173913043478 0.1333333333333333 0  1.668695652173913 0.1333333333333333 0  1.685217391304348 0.1333333333333333 0  1.701739130434782 0.1333333333333333 0  1.718260869565217 0.1333333333333333 0  1.734782608695652 0.1333333333333333 0  1.751304347826087 0.1333333333333333 0  1.767826086956522 0.1333333333333333 0  1.784347826086957 0.1333333333333333 0  1.800869565217391 0.1333333333333333 0  1.817391304347826 0.1333333333333333 0  1.833913043478261 0.1333333333333333 0  1.850434782608696 0.1333333333333333 0  1.86695652173913 0.1333333333333333 0  1.883478260869565 0.1333333333333333 0  1.470434782608696 0.15 0  1.486956521739131 0.15 0  1.503478260869565 0.15 0  1.52 0.15 0  1.5365217391304
[...]
<PointData  Vectors="Displacement"> 
<DataArray  type="Float64"  Name="Displacement"  NumberOfComponents="3" format="ascii">1.7895752832788037e-04 1.6270265256497220e-03 0.0000000000000000e+00  1.8085685515737727e-04 1.6457053750288096e-03 0.0000000000000000e+00  1.6205688538912993e-04 1.6450505889588738e-03 0.0000000000000000e+00  1.8274063073669519e-04 1.6644129221901921e-03 0.0000000000000000e+00  1.6400090558930065e-04 1.6637245937287874e-03 0.0000000000000000e+00  1.8456604281686764e-04 1.6831077163579312e-03 0.0000000000000000e+00  1.6604430833742559e-04 1.6823825874377489e-03 0.0000000000000000e+00  1.8625261598463472e-04 1.7015584336800324e-03 0.0000000000000000e+00  1.6827400144121216e-04 1.7008302420742395e-03 0.0000000000000000e+00  1.8775128228619258e-04 1.7192776216668037e-03 0.0000000000000000e+00  1.7073477598599307e-04 1.7185698265512158e-03 0.0000000000000000e+00  1.8906530232829251e-04 1.7357182393410915e-03 0.0000000000000000e+00  1.7341296522269570e-04 1.7350775880492113e-03 0.0000000000000000e+00  1.9030590914306971e-04 1.7503761379215491e-03 0.0000000000000000e+00  1.7620181797416419e-04 1.7498135742106632e-03 0.0000000000000000e+00  1.9167096521906083e-04 1.7632982139906797e-03 0.0000000000000000e+00  1.7883315431232587e-04 1.7627397660580832e-03 0.0000000000000000e+00  1.9324282359356478e-04 1.7752232394941869e-03 0.0000000000000000e+00  1.8111921393096169e-04 1.7746559851318797e-03 0.0000000000000000e+00  1.9500108083419986e-04 1.7867878023290667e-03 0.0000000000000000e+00  1.8309930504630908e-04 1.7862132385420364e-03 0.0000000000000000e+00  1.9691100563654120e-04 1.7983952475606243e-03 0.0000000000000000e+00  1.8488012228360358e-04 1.7978044857525990e-03 0.0000000000000000e+00  1.9892579160940050e-04 1.8103515380266072e-03 0.0000000000000000e+00  1.8653130926837204e-04 1.8097471918725174e-03 0.0000000000000000e+00  2.0099293116882232e-04 1.8228067722453681e-03 0.0000000000000000e+00  1.8812105659183682e-04 1.8222045587809777e-03 0.0000000000000000e+00  2.0307197372025428e-04 1.8357959139409441e-03 0.0000000000000000e+00  1.8966669404730819e-04 1.8352136853945656e-03 0.0000000000000000e+00  2.0520437671128980e-04 1.8492320395674898e-03 0.0000000000000000e+00  1.9121789587684879e-04 1.8486455162681440e-03 0.0000000000000000e+00  2.0751017835049068e-04 1.8631016284385881e-03 0.0000000000000000e+00  1.9284964444088193e-04 1.8624656640262628e-03 0.0000000000000000e+00  2.1011764682910867e-04 1.8775558341406376e-03 0.0000000000000000e+00  1.9461790215827187e-04 1.8768362004836264e-03 0.0000000000000000e+00  2.1310806817883670e-04 1.8928716924357701e-03 0.0000000000000000e+00  1.9653804175574511e-04 1.8920546791145886e-03 0.0000000000000000e+00  2.1648597749079906e-04 1.9094063903211847e-03 0.0000000000000000e+00  1.9857215506198018e-04 1.9085060025469623e-03 0.0000000000000000e+00  2.2018593018857552e-04 1.9275147735836220e-03 0.0000000000000000e+00  2.0064445834590313e-04 1.9265656535203607e-03 0.0000000000000000e+00  2.2412458644638155e-04 1.9474713858868512e-03 0.0000000000000000e+00  2.0268297145673193e-04 1.9465017618461029e-03 0.0000000000000000e+00  2.2822043660824718e-04 1.9695732711569425e-03 0.0000000000000000e+00  2.0459239665724247e-04 1.9685928077848107e-03 0.0000000000000000e+00  2.3247445049443723e-04 1.9940219597497579e-03 0.0000000000000000e+00  2.0643339498008838e-04 1.9929499691329908e-03 0.0000000000000000e+00  2.3659308486463160e-04 2.0214557853464868e-03 0.0000000000000000e+00  2.0807619624414259e-04 2.0204615609595838e-03 0.0000000000000000e+00  2.4037132586176324e-04 2.0514552100258866e-03 0.0000000000000000e+00  2.0959605241500250e-04 2.0505262697596395e-03 0.0000000000000000e+00  2.4369910603364334e-04 2.0836875400470673e-03 0.0000000000000000e+00  2.1103233358918196e-04 2.0828291384295764e-03 0.0000000000000000e+00  2.4652577337359849e-04 2.1176691994726111e-03 0.0000000000000000e+00  2.1247515267136581e-04 2.1168412342082135e-03 0.0000000000000000e+00  2.4874363012045636e-04 2.1528514933152241e-03 0.0000000000000000e+00  2.1404804321437722e-04 2.1521133937431945e-03 0.0000000000000000e+00  2.5025951594954304e-04 2.1882396368908428e-03 0.0000000000000000e+00  2.1580703131390090e-04 2.1876683579850429e-03 0.0000000000000000e+00  2.5114495316184873e-04 2.2227673976970008e-03 0.0000000000000000e+00  2.1764125419263919e-04 2.2223413705723069e-03 0.0000000000000000e+00  2.5152977827162457e-04 2.2559732757296527e-03 0.0000000000000000e+00  2.1933761873838497e-04 2.2556472745772467e-03 0.0000000000000000e+00  2.5146060438175228e-04 2.2877346098080322e-03 0.0000000000000000e+00  2.2081782074845498e-04 2.2875216281388290e-03 0.0000000000000000e+00  2.5092036868061015e-04 2.3177577623738161e-03 0.0000000000000000e+00  2.2209828143111225e-04 2.3177395602819030e-03 0.0000000000000000e+00  2.5003431503350048e-04 2.3456401337017606e-03 0.0000000000000000e+00  2.2306217623142629e-04 2.3457623517645870e-03 0.0000000000000000e+00  1.4506453518262793e-04 1.6630580312127700e-03 0.0000000000000000e+00  1.4699487158487476e-04 1.6816330607885258e-03 0.0000000000000000e+00  1.4930307174441210e-04 1.6999846048912771e-03 0.0000000000000000e+00  1.5249494335686813e-04 1.7176670416892538e-03 0.0000000000000000e+00  1.5657070175371520e-04 1.7341077037476107e-03 0.0000000000000000e+00  1.6174919119046744e-04 1.7488042018046818e-03 0.0000000000000000e+00  1.6687905713171230e-04 1.7619004072824845e-03 0.0000000000000000e+00  1.6990541052372372e-04 1.7740378230473362e-03 0.0000000000000000e+00  1.7168741672119147e-04 1.7856260916714588e-03 0.0000000000000000e+00  1.7324936498215563e-04 1.7973399465237311e-03 0.0000000000000000e+00  1.7429613615734459e-04 1.8092925069573974e-03 0.0000000000000000e+00  1.7528020853975411e-04 1.8217907487032435e-03 0.0000000000000000e+00  1.7618075403061758e-04 1.8349005795968564e-03 0.0000000000000000e+00  1.7703338912090780e-04 1.8483761039394865e-03 0.0000000000000000e+00  1.7790624637443130e-04 1.8621539555957996e-03 0.0000000000000000e+00  1.7882244002661565e-04 1.8764422907447422e-03 0.0000000000000000e+00  1.7974887632732795e-04 1.8915789942122009e-03 0.0000000000000000e+00  1.8058263623554050e-04 1.9080007791950505e-03 0.0000000000000000e+00  1.8118597112863223e-04 1.9261035423923571e-03 0.0000000000000000e+00  1.8149303158120002e-04 1.9461080174926542e-03 0.0000000000000000e+00  1.8139550630373819e-04 1.9683598448155533e-03 0.0000000000000000e+00  1.8089117542151491e-04 1.9925048318283332e-03 0.0000000000000000e+00  1.7987208631704509e-04 2.0202110447796380e-03 0.0000000000000000e+00  1.7905563139172234e-04 2.0502586003923631e-03 0.0000000000000000e+00  1.7850401899096761e-04 2.0825152105733804e-03 0.0000000000000000e+00  1.7846974422633532e-04 2.1163118127825093e-03 0.0000000000000000e+00  1.7904463717876234e-04 2.1514088911465069e-03 0.0000000000000000e+00  1.8100909158519745e-04 2.1869132651069299e-03 0.0000000000000000e+00  1.8447865560466002e-04 2.2216069119932024e-03 0.0000000000000000e+00  1.8781355976617436e-04 2.2549640737404369e-03 0.0000000000000000e+00  1.9051239843708359e-04 2.2867353273971387e-03 0.0000000000000000e+00  1.9363629260788881e-04 2.3171093018362031e-03 0.0000000000000000e+00  1.9683530118939438e-04 2.3455380920447562e-03 0.0000000000000000e+00  1.4006499353985658e-04 1.6814355059113534e-03 0.0000000000000000e+00  1.4226332781611659e-04 1.6992855358732050e-03 0.0000000000000000e+00  1.4492159793387256e-04 1.7163456669238579e-03 0.0000000000000000e+00  1.4806303358431356e-04 1.7323207124168973e-03 0.0000000000000000e+00  1.5151446602379453e-04 1.7469587445450075e-03 0.0000000000000000e+00  1.5486401076410413e-04 1.7605391141244122e-03 0.0000000000000000e+00  1.5769574305309197e-04 1.7734069618538762e-03 0.0000000000000000e+00  1.5999641908708738e-04 1.7850344941888064e-03 0.0000000000000000e+00  1.6171689219291653e-04 1.7970078072309513e-03 0.0000000000000000e+00  1.6224044096312037e-04 1.8091099894820438e-03 0.0000000000000000e+00  1.6246290109210194e-04 1.8216092668772177e-03 0.0000000000000000e+00  1.6265487315028450e-04 1.8349081238534369e-03 0.0000000000000000e+00  1.6282494990787938e-04 1.8484681905539143e-03 0.0000000000000000e+00  1.6301134069138181e-04 1.8621648994365336e-03 0.0000000000000000e+00  1.6320564768624083e-04 1.8763156202195323e-03 0.0000000000000000e+00  1.6332516521519073e-04 1.8913250019772737e-03 0.0000000000000000e+00  1.6318558015302798e-04 1.9077447327451897e-03 0.0000000000000000e+00  1.6253790734667935e-04 1.9259843942046543e-03 0.0000000000000000e+00  1.6135862038469062e-04 1.9460352075682506e-03 0.0000000000000000e+00  1.5975161313374066e-04 1.9683919235757553e-03 0.0000000000000000e+00  1.5844983903274987e-04 1.9922415296158859e-03 0.0000000000000000e+00  1.5353422964689854e-04 2.0203861514632594e-03 0.0000000000000000e+00  1.5006412293157228e-04 2.0503626212744915e-03 0.0000000000000000e+00  1.4596699372250858e-04 2.0826989267938058e-03 0.0000000000000000e+00  1.5202494486545663e-04 2.1177676080727631e-03 0.0000000000000000e+00  1.5602970908322713e-04 2.1522968620229423e-03 0.0000000000000000e+00  1.5882314122239133e-04 2.1863495244931904e-03 0.0000000000000000e+00  1.6125368342047441e-04 2.2198996165764236e-03 0.0000000000000000e+00  1.6303254408255158e-04 2.2528633720616379e-03 0.0000000000000000e+00  1.6336913697462404e-04 2.2850612976283392e-03 0.0000000000000000e+00  1.6361927416741833e-04 2.3160189711285560e-03 0.0000000000000000e+00  1.7105907915088348e-04 2.3444214225431807e-03 0.0000000000000000e+00  1.3462442838293895e-04 1.6990957748728697e-03 0.0000000000000000e+00  1.3667694991631061e-04 1.7158604504294388e-03 0.0000000000000000e+00  1.3896192678756100e-04 1.7316623942567324e-03 0.0000000000000000e+00  1.4134157610508067e-04 1.7464182449612449e-03 0.0000000000000000e+00  1.4360258319427057e-04 1.7603044391812622e-03 0.0000000000000000e+00  1.4557995126811507e-04 1.7735064316599116e-03 0.0000000000000000e+00  1.4715846824197936e-04 1.7859209448605076e-03 0.0000000000000000e+00  1.4819714085265658e-04 1.7982449422807218e-03 0.0000000000000000e+00  1.4879203660393141e-04 1.8104719840409890e-03 0.0000000000000000e+00  1.4896658859849885e-04 1.8216425820345790e-03 0.0000000000000000e+00  1.4887609221429218e-04 1.8351922885535494e-03 0.0000000000000000e+00  1.4866455324376795e-04 1.8488823432297851e-03 0.0000000000000000e+00  1.4843442821184532e-04 1.8623970317537993e-03 0.0000000000000000e+00  1.4819431974325906e-04 1.8762872801316760e-03 0.0000000000000000e+00  1.4786985904310747e-04 1.8910564677887252e-03 0.0000000000000000e+00  1.4714713000621649e-04 1.9074224098051152e-03 0.0000000000000000e+00  1.4582069782850623e-04 1.9258486950789189e-03 0.0000000000000000e+00  1.4381517439650379e-04 1.9459100699297748e-03 0.0000000000000000e+00  1.3989708865922985e-04 1.9685272610497468e-03 0.0000000000000000e+00  1.4027320497564697e-04 1.9967116861262257e-03 0.0000000000000000e+00  1.3893291897460933e-04 2.0265213347268086e-03 0.0000000000000000e+00  1.3695703980438870e-04 2.0561697650954397e-03 0.0000000000000000e+00  1.3563602308238885e-04 2.0873210448923434e-03 0.0000000000000000e+00  1.3614087858635705e-04 2.1189661229501721e-03 0.0000000000000000e+00  1.3794922452208775e-04 2.1524823672795738e-03 0.0000000000000000e+00  1.3989148105484348e-04 2.1858496063672218e-03 0.0000000000000000e+00  1.4181355806647714e-04 2.2187021343348639e-03 0.0000000000000000e+00  1.4370742776689978e-04 2.2510064364346478e-03 0.0000000000000000e+00  1.4565166287835594e-04 2.2825243484871590e-03 0.0000000000000000e+00  1.4804522337779578e-04 2.3124911095719260e-03 0.0000000000000000e+00  1.5136228217702273e-04 2.3399854883094794e-03 0.0000000000000000e+00  1.2805300131322155e-04 1.7161481970402585e-03 0.0000000000000000e+00  1.2961771931759795e-04 1.7319191793910044e-03 0.0000000000000000e+00  1.3118877287964781e-04 1.7468037036601220e-03 0.0000000000000000e+00  1.3264482330227093e-04 1.7609119662835653e-03 0.0000000000000000e+00  1.3389520910780196e-04 1.7743653762327528e-03 0.0000000000000000e+00  1.3486417752566114e-04 1.7872253050928118e-03 0.0000000000000000e+00  1.3547106396746595e-04 1.7998571709782040e-03 0.0000000000000000e+00  1.3572801012614694e-04 1.8122872146900796e-03 0.0000000000000000e+00  1.3555766463131707e-04 1.8242218186721863e-03 0.0000000000000000e+00  1.3499263801734852e-04 1.8358058901619782e-03 0.0000000000000000e+00  1.3478246977128203e-04 1.8494998890177666e-03 0.0000000000000000e+00  1.3450580562540383e-04 1.8626630103667978e-03 0.0000000000000000e+00  1.3419960199470546e-04 1.8761180832931365e-03 0.0000000000000000e+00  1.3383618654136300e-04 1.8903883123116507e-03 0.0000000000000000e+00  1.3312547544749829e-04 1.9067833065486346e-03 0.0000000000000000e+00  1.3053191140486437e-04 1.9256360406683481e-03 0.0000000000000000e+00  1.3080817919957792e-04 1.9506832515159540e-03 0.0000000000000000e+00  1.2876841915540361e-04 1.9753589682505335e-03 0.0000000000000000e+00  1.2649093501055638e-04 2.0022027266286485e-03 0.0000000000000000e+00  1.2468855307190020e-04 2.0313815602494845e-03 0.0000000000000000e+00  1.2310232199012653e-04 2.0609367889647067e-03 0.0000000000000000e+00  1.2186062540371969e-04 2.0911760266167242e-03 0.0000000000000000e+00  1.2137460791485029e-04 2.1219067639103176e-03 0.0000000000000000e+00  1.2164036087634600e-04 2.1537755440933417e-03 0.0000000000000000e+00  1.2262810333539174e-04 2.1859801012249569e-03 0.0000000000000000e+00  1.2404499391378986e-04 2.2179130651877065e-03 0.0000000000000000e+00  1.2578689272293409e-04 2.2493310248520530e-03 0.0000000000000000e+00  1.2787418187702512e-04 2.2799527501919936e-03 0.0000000000000000e+00  1.3033992463221545e-04 2.3092962486156643e-03 0.0000000000000000e+00  1.3303358562084596e-04 2.3371083382204608e-03 0.0000000000000000e+00  1.2016682482523099e-04 1.7329363280688946e-03 0.0000000000000000e+00  1.2109217248193494e-04 1.7479391468546495e-03 0.0000000000000000e+00  1.2190979874937372e-04 1.7622115109898482e-03 0.0000000000000000e+00  1.2256754703815771e-04 1.7758443598793942e-03 0.0000000000000000e+00  1.2301812249613253e-04 1.7889500271206537e-03 0.0000000000000000e+00  1.2321309826385116e-04 1.8017873191772864e-03 0.0000000000000000e+00  1.2315911936693519e-04 1.8145036487612078e-03 0.0000000000000000e+00  1.2263413251821953e-04 1.8270370905272377e-03 0.0000000000000000e+00  1.2206657607769441e-04 1.8385697854142510e-03 0.0000000000000000e+00  1.2175521979388245e-04 1.8502376678406316e-03 0.0000000000000000e+00  1.2166019057213691e-04 1.8627458895242668e-03 0.0000000000000000e+00  1.2164968569470863e-04 1.8755604873023585e-03 0.0000000000000000e+00  1.2168183924490007e-04 1.8889964566841417e-03 0.0000000000000000e+00  1.2158177028886794e-04 1.9040187914463459e-03 0.0000000000000000e+00  1.2087179725480006e-04 1.9298551229559020e-03 0.0000000000000000e+00  1.1849508054455309e-04 1.9549383514194615e-03 0.0000000000000000e+00  1.1609591137567680e-04 1.9809619256232380e-03 0.0000000000000000e+00  1.1339995145297386e-04 2.0080103101287224e-03 0.0000000000000000e+00  1.1093416997536327e-04 2.0363979699409827e-03 0.0000000000000000e+00  1.0896184091981345e-04 2.0654388593024783e-03 0.0000000000000000e+00  1.0742522276422167e-04 2.0950114234867174e-03 0.0000000000000000e+00  1.0641873582323539e-04 2.1250207327813764e-03 0.0000000000000000e+00  1.0600195026331665e-04 2.1557124228430901e-03 0.0000000000000000e+00  1.0627190518957684e-04 2.1867043796221942e-03 0.0000000000000000e+00  1.0714905904447852e-04 2.2175919801870900e-03 0.0000000000000000e+00  1.0852434010824434e-04 2.2480719159374525e-03 0.0000000000000000e+00  1.1033170741759381e-04 2.2778749386987017e-03 0.0000000000000000e+00  1.1248137118724824e-04 2.3067317186415853e-03 0.0000000000000000e+00  1.1478005985605691e-04 2.3346286539766589e-03 0.0000000000000000e+00  1.1108504008512094e-04 1.7497126908764050e-03 0.0000000000000000e+00  1.1138836231814054e-04 1.7641042196155923e-03 0.0000000000000000e+00  1.1156607134019670e-04 1.7778446980844837e-03 0.0000000000000000e+00  1.1159073991121314e-04 1.7910736869776003e-03 0.0000000000000000e+00  1.1138749368760686e-04 1.8040225523369203e-03 0.0000000000000000e+00  1.1095879641336384e-04 1.8168569354084759e-03 0.0000000000000000e+00  1.1052260619544835e-04 1.8301649726247232e-03 0.0000000000000000e+00  1.1039480121530100e-04 1.8404169844850539e-03 0.0000000000000000e+00  1.1014593287771674e-04 1.8509624568890141e-03 0.0000000000000000e+00  1.0996762232199205e-04 1.8626798055984455e-03 0.0000000000000000e+00  1.0990820867012485e-04 1.8747412501411475e-03 0.0000000000000000e+00  1.0993360863510539e-04 1.8877964094235250e-03 0.0000000000000000e+00  1.1020363537039254e-04 1.9082205024092995e-03 0.0000000000000000e+00  1.0814922921038307e-04 1.9337127033600071e-03 0.0000000000000000e+00  1.0573211239438518e-04 1.9599277185781009e-03 0.0000000000000000e+00  1.0284108128793191e-04 1.9864327043433508e-03 0.0000000000000000e+00  9.9857030694365536e-05 2.0136152639344549e-03 0.0000000000000000e+00  9.7052656963072530e-05 2.0415513348986457e-03 0.0000000000000000e+00  9.4671499392758851e-05 2.0700132844889483e-03 0.0000000000000000e+00  9.2764891633531434e-05 2.0989279587865701e-03 0.0000000000000000e+00  9.1367534057416286e-05 2.1282202252472251e-03 0.0000000000000000e+00  9.0522698520902157e-05 2.1579394592211739e-03 0.0000000000000000e+00  9.0304947663097336e-05 2.1878660426314298e-03 0.0000000000000000e+00  9.0701948374140719e-05 2.2177353053002280e-03 0.0000000000000000e+00  9.1646722282671535e-05 2.2473010693866854e-03 0.0000000000000000e+00  9.3053003341423755e-05 2.2763467527585042e-03 0.0000000000000000e+00  9.4805673976926689e-05 2.3047202991458484e-03 0.0000000000000000e+00  9.6746961082711284e-05 2.3324691971555252e-03 0.0000000000000000e+00  1.0110862981054998e-04 1.7665069307764593e-03 0.0000000000000000e+00  1.0094183770648822e-04 1.7802679389597169e-03 0.0000000000000000e+00  1.0070557355547456e-04 1.7934768343400964e-03 0.0000000000000000e+00  1.0037968496902690e-04 1.8064523061975799e-03 0.0000000000000000e+00  9.9885627030415068e-05 1.8190423320687153e-03 0.0000000000000000e+00  9.9843295211535419e-05 1.8311292952633374e-03 0.0000000000000000e+00  9.9749495487936417e-05 1.8408988002324965e-03 0.0000000000000000e+00  9.9576708710382599e-05 1.8513623604309855e-03 0.0000000000000000e+00  9.9376572553486507e-05 1.8625137577946026e-03 0.0000000000000000e+00  9.9348745089589986e-05 1.8739052037948817e-03 0.0000000000000000e+00  9.9509588765419704e-05 1.8853171788632927e-03 0.0000000000000000e+00  9.8955167217761668e-05 1.9110986319409754e-03 0.0000000000000000e+00  9.6145596687222874e-05 1.9380775014739358e-03 0.0000000000000000e+00  9.2826074019453905e-05 1.9650190328725915e-03 0.0000000000000000e+00  8.9376787744323093e-05 1.9919729332032021e-03 0.0000000000000000e+00  8.5988886086202273e-05 2.0191654963579060e-03 0.0000000000000000e+00  8.2869911201148439e-05 2.0467470903516253e-03 0.0000000000000000e+00  8.0166484028439404e-05 2.0746774915977764e-03 0.0000000000000000e+00  7.7940902190957212e-05 2.1029457758997777e-03 0.0000000000000000e+00  7.6227807699508527e-05 2.1315143728507231e-03 0.0000000000000000e+00  7.5057689860721970e-05 2.1603627673675643e-03 0.0000000000000000e+00  7.4472089927583773e-05 2.1893450689307405e-03 0.0000000000000000e+00  7.4468878472685511e-05 2.2182806766438113e-03 0.0000000000000000e+00  7.5003621190291764e-05 2.2469891143465310e-03 0.0000000000000000e+00  7.6000873155001567e-05 2.2753145771815457e-03 0.0000000000000000e+00  7.7358972295349376e-05 2.3031682590025815e-03 0.0000000000000000e+00  7.8962539893613737e-05 2.3305994358943536e-03 0.0000000000000000e+00  9.0656392948591235e-05 1.7830286829472186e-03 0.0000000000000000e+00  9.0319553000727554e-05 1.7960894518739875e-03 0.0000000000000000e+00  8.9867331350057579e-05 1.8088584031232470e-03 0.0000000000000000e+00  8.9958196370272292e-05 1.8214371919572636e-03 0.0000000000000000e+00  8.9868008610200403e-05 1.8312537048359554e-03 0.0000000000000000e+