<?xml version="1.0"?>
<VTKFile type="UnstructuredGrid"  version="0.1"  >
<UnstructuredGrid>
<Piece  NumberOfPoints="2431" NumberOfCells="4624">
<Points>
<DataArray  type="Float64"  NumberOfComponents="3"  format="ascii">1.933043478260869 0.2166666666666667 0  1.941304347826087 0.2166666666666667 0  1.941304347826087 0.225 0  1.933043478260869 0.225 0  1.949565217391304 0.225 0  1.941304347826087 0.2333333333333333 0  1.933043478260869 0.2333333333333333 0  1.949565217391304 0.2333333333333333 0  1.957826086956522 0.225 0  1.957826086956522 0.2333333333333333 0  1.966086956521739 0.225 0  1.966086956521739 0.2333333333333333 0  1.974347826086956 0.225 0  1.974347826086956 0.2333333333333333 0  1.982608695652174 0.225 0  1.982608695652174 0.2333333333333333 0  1.990869565217391 0.225 0  1.990869565217391 0.2333333333333333 0  1.999130434782608 0.2333333333333333 0  1.941304347826087 0.2416666666666667 0  1.949565217391304 0.2416666666666667 0  1.957826086956522 0.2416666666666667 0  1.966086956521739 0.2416666666666667 0  1.974347826086956 0.2416666666666667 0  1.982608695652174 0.2416666666666667 0  1.990869565217391 0.2416666666666667 0  1.999130434782608 0.2416666666666667 0  2.007391304347826 0.2416666666666667 0  1.949565217391304 0.25 0  1.941304347826087 0.25 0  1.957826086956522 0.25 0  1.966086956521739 0.25 0  1.974347826086956 0.25 0  1.982608695652174 0.25 0  1.990869565217391 0.25 0  1.999130434782608 0.25 0  2.007391304347826 0.25 0  2.015652173913043 0.2416666666666667 0  2.015652173913043 0.25 0  2.023913043478261 0.2416666666666667 0  2.023913043478261 0.25 0  2.032173913043478 0.25 0  1.933043478260869 0.25 0  1.941304347826087 0.2583333333333334 0  1.933043478260869 0.2583333333333334 0  1.949565217391304 0.2583333333333334 0  1.957826086956522 0.2583333333333334 0  1.966086956521739 0.2583333333333334 0  1.974347826086956 0.2583333333333334 0  1.982608695652174 0.2583333333333334 0  1.990869565217391 0.2583333333333334 0  1.999130434782608 0.2583333333333334 0  2.007391304347826 0.2583333333333334 0  2.015652173913043 0.2583333333333334 0  2.023913043478261 0.2583333333333334 0  2.032173913043478 0.2583333333333334 0  2.040434782608695 0.25 0  2.040434782608695 0.2583333333333334 0  2.048695652173913 0.25 0  2.048695652173913 0.2583333333333334 0  2.05695652173913 0.25 0  2.05695652173913 0.2583333333333334 0  2.065217391304348 0.25 0  2.065217391304348 0.2583333333333334 0  2.073478260869565 0.25 0  2.073478260869565 0.2583333333333334 0  2.081739130434782 0.25 0  2.081739130434782 0.2583333333333334 0  2.09 0.25 0  2.09 0.2583333333333334 0  2.098260869565217 0.25 0  2.098260869565217 0.2583333333333334 0  2.106521739130435 0.2583333333333334 0  1.941304347826087 0.2666666666666667 0  1.933043478260869 0.2666666666666667 0  1.949565217391304 0.2666666666666667 0  1.957826086956522 0.2666666666666667 0  1.966086956521739 0.2666666666666667 0  1.974347826086956 0.2666666666666667 0  1.982608695652174 0.2666666666666667 0  1.990869565217391 0.2666666666666667 0  1.999130434782608 0.2666666666666667 0  2.007391304347826 0.2666666666666667 0  2.015652173913043 0.2666666666666667 0  2.023913043478261 0.2666666666666667 0  2.032173913043478 0.2666666666666667 0  2.040434782608695 0.2666666666666667 0  2.048695652173913 0.2666666666666667 0  2.05695652173913 0.2666666666666667 0  2.065217391304348 0.2666666666666667 0  2.073478260869565 0.2666666666666667 0  2.081739130434782 0.2666666666666667 0  2.09 0.2666666666666667 0  2.098260869565217 0.2666666666666667 0  2.106521739130435 0.2666666666666667 0  2.114782608695652 0.2666666666666667 0  1.941304347826087 0.275 0  1.933043478260869 0.275 0  1.949565217391304 0.275 0  1.957826086956522 0.275 0  1.966086956521739 0.275 0  1.974347826086956 0.275 0  1.982608695652174 0.275 0  1.990869565217391 0.275 0  1.999130434782608 0.275 0  2.007391304347826 0.275 0  2.015652173913043 0.275 0  2.023913043478261 0.275 0  2.032173913043478 0.275 0  2.040434782608695 0.275 0  2.048695652173913 0.275 0  2.05695652173913 0.275 0  2.065217391304348 0.275 0  2.073478260869565 0.275 0  2.081739130434782 0.275 0  2.09 0.275 0  2.098260869565217 0.275 0  2.106521739130435 0.275 0  2.114782608695652 0.275 0  2.12304347826087 0.275 0  1.941304347826087 0.2833333333333333 0  1.933043478260869 0.2833333333333333 0  1.949565217391304 0.2833333333333333 0  1.957826086956522 0.2833333333333333 0  1.966086956521739 0.2833333333333333 0  1.974347826086956 0.2833333333333333 0  1.982608695652174 0.2833333333333333 0  1.990869565217391 0.2833333333333333 0  1.999130434782608 0.2833333333333333 0  2.007391304347826 0.2833333333333333 0  2.015652173913043 0.2833333333333333 0  2.023913043478261 0.2833333333333333 0  2.032173913043478 0.2833333333333333 0  2.040434782608695 0.2833333333333333 0  2.048695652173913 0.2833333333333333 0  2.05695652173913 0.2833333333333333 0  2.065217391304348 0.2833333333333333 0  2.073478260869565 0.2833333333333333 0  2.081739130434782 0.2833333333333333 0  2.09 0.2833333333333333 0  2.098260869565217 0.2833333333333333 0  2.106521739130435 0.2833333333333333 0  2.114782608695652 0.2833333333333333 0  2.12304347826087 0.2833333333333333 0  2.131304347826087 0.2833333333333333 0  1.941304347826087 0.2916666666666667 0  1.933043478260869 0.2916666666666667 0  1.949565217391304 0.2916666666666667 0  1.957826086956522 0.2916666666666667 0  1.966086956521739 0.2916666666666667 0  1.974347826086956 0.2916666666666667 0  1.982608695652174 0.2916666666666667 0  1.990869565217391 0.2916666666666667 0  1.999130434782608 0.2916666666666667 0  2.007391304347826 0.2916666666666667 0  2.015652173913043 0.2916666666666667 0  2.023913043478261 0.2916666666666667 0  2.032173913043478 0.2916666666666667 0  2.040434782608695 0.2916666666666667 0  2.048695652173913 0.2916666666666667 0  2.05695652173913 0.2916666666666667 0  2.065217391304348 0.2916666666666667 0  2.073478260869565 0.2916666666666667 0  2.081739130434782 0.2916666666666667 0  2.09 0.2916666666666667 0  2.098260869565217 0.2916666666666667 0  2.106521739130435 0.2916666666666667 0  2.114782608695652 0.2916666666666667 0  2.12304347826087 0.2916666666666667 0  2.131304347826087 0.2916666666666667 0  2.139565217391304 0.2916666666666667 0  1.941304347826087 0.3 0  1.933043478260869 0.3 0  1.949565217391304 0.3 0  1.957826086956522 0.3 0  1.966086956521739 0.3 0  1.974347826086956 0.3 0  1.982608695652174 0.3 0  1.990869565217391 0.3 0  1.999130434782608 0.3 0  2.007391304347826 0.3 0  2.015652173913043 0.3 0  2.023913043478261 0.3 0  2.032173913043478 0.3 0  2.040434782608695 0.3 0  2.048695652173913 0.3 0  2.05695652173913 0.3 0  2.065217391304348 0.3 0  2.073478260869565 0.3 0  2.081739130434782 0.3 0  2.09 0.3 0  2.098260869565217 0.3 0  2.106521739130435 0.3 0  2.114782608695652 0.3 0  2.12304347826087 0.3 0  2.131304347826087 0.3 0  2.139565217391304 0.3 0  2.147826086956522 0.2916666666666667 0  2.147826086956522 0.3 0  2.156086956521739 0.2916666666666667 0  2.156086956521739 0.3 0  2.164347826086956 0.2916666666666667 0  2.164347826086956 0.3 0  2.172608695652174 0.2916666666666667 0  2.172608695652174 0.3 0  2.180869565217391 0.2916666666666667 0  2.180869565217391 0.3 0  2.189130434782609 0.2916666666666667 0  2.189130434782609 0.3 0  2.197391304347826 0.2916666666666667 0  2.197391304347826 0.3 0  2.205652173913043 0.2916666666666667 0  2.205652173913043 0.3 0  2.213913043478261 0.2916666666666667 0  2.213913043478261 0.3 0  2.222173913043478 0.2916666666666667 0  2.222173913043478 0.3 0  2.230434782608695 0.2916666666666667 0  2.230434782608695 0.3 0  2.238695652173913 0.2916666666666667 0  2.238695652173913 0.3 0  2.24695652173913 0.3 0  1.941304347826087 0.3083333333333333 0  1.933043478260869 0.3083333333333333 0  1.949565217391304 0.3083333333333333 0  1.957826086956522 0.3083333333333333 0  1.966086956521739 0.3083333333333333 0  1.974347826086956 0.3083333333333333 0  1.982608695652174 0.3083333333333333 0  1.990869565217391 0.3083333333333333 0  1.999130434782608 0.3083333333333333 0  2.007391304347826 0.3083333333333333 0  2.015652173913043 0.3083333333333333 0  2.023913043478261 0.3083333333333333 0  2.032173913043478 0.3083333333333333 0  2.040434782608695 0.3083333333333333 0  2.048695652173913 0.3083333333333333 0  2.05695652173913 0.3083333333333333 0  2.065217391304348 0.3083333333333333 0  2.073478260869565 0.3083333333333333 0  2.081739130434782 0.3083333333333333 0  2.09 0.3083333333333333 0  2.098260869565217 0.3083333333333333 0  2.106521739130435 0.3083333333333333 0  2.114782608695652 0.3083333333333333 0  2.12304347826087 0.3083333333333333 0  2.131304347826087 0.3083333333333333 0  2.139565217391304 0.3083333333333333 0  2.147826086956522 0.3083333333333333 0  2.156086956521739 0.3083333333333333 0  2.164347826086956 0.3083333333333333 0  2.172608695652174 0.3083333333333333 0  2.180869565217391 0.3083333333333333 0  2.189130434782609 0.3083333333333333 0  2.197391304347826 0.3083333333333333 0  2.205652173913043 0.3083333333333333 0  2.213913043478261 0.3083333333333333 0  2.222173913043478 0.3083333333333333 0  2.230434782608695 0.3083333333333333 0  2.238695652173913 0.3083333333333333 0  2.24695652173913 0.3083333333333333 0  2.255217391304348 0.3083333333333333 0  1.941304347826087 0.3166666666666667 0  1.933043478260869 0.3166666666666667 0  1.949565217391304 0.3166666666666667 0  1.957826086956522 0.3166666666666667 0  1.966086956521739 0.3166666666666667 0  1.974347826086956 0.3166666666666667 0  1.982608695652174 0.3166666666666667 0  1.990869565217391 0.3166666666666667 0  1.999130434782608 0.3166666666666667 0  2.007391304347826 0.3166666666666667 0  2.015652173913043 0.3166666666666667 0  2.023913043478261 0.3166666666666667 0  2.032173913043478 0.3166666666666667 0  2.040434782608695 0.3166666666666667 0  2.048695652173913 0.3166666666666667 0  2.05695652173913 0.3166666666666667 0  2.065217391304348 0.3166666666666667 0  2.073478260869565 0.316666666666666
[...]
<CellData  Scalars="rho_bar"> 
<DataArray  type="Float64"  Name="rho_bar"  format="ascii">0.0000000000000000e+00   0.0000000000000000e+00   0.0000000000000000e+00   0.0000000000000000e+00   0.0000000000000000e+00   0.0000000000000000e+00   0.0000000000000000e+00   0.0000000000000000e+00   0.0000000000000000e+00   0.0000000000000000e+00   0.0000000000000000e+00   0.0000000000000000e+00   0.0000000000000000e+00   0.0000000000000000e+00   0.0000000000000000e+00   0.0000000000000000e+00   0.0000000000000000e+00   0.0000000000000000e+00   0.0000000000000000e+00   0.0000000000000000e+00   0.0000000000000000e+00   0.0000000000000000e+00   0.0000000000000000e+00   0.0000000000000000e+00   0.0000000000000000e+00   0.0000000000000000e+00   0.0000000000000000e+00   0.0000000000000000e+00   0.0000000000000000e+00   0.0000000000000000e+00   0.0000000000000000e+00   0.0000000000000000e+00   0.0000000000000000e+00   0.0000000000000000e+00   9.2518585385429722e-18   4.6612713688887207e-13   0.0000000000000000e+00   0.0000000000000000e+00   0.0000000000000000e+00   0.0000000000000000e+00   0.0000000000000000e+00   0.0000000000000000e+00   0.0000000000000000e+00   0.0000000000000000e+00   0.0000000000000000e+00   0.0000000000000000e+00   0.0000000000000000e+00   0.0000000000000000e+00   0.0000000000000000e+00   0.0000000000000000e+00   0.0000000000000000e+00   0.0000000000000000e+00   0.0000000000000000e+00   0.0000000000000000e+00   0.0000000000000000e+00   7.6746064310110696e-07   2.7337533796200269e-04   2.8540299753151053e-11   9.4455619908950794e-08   6.4763009769800802e-17   2.0576410945475723e-12   0.0000000000000000e+00   0.0000000000000000e+00   0.0000000000000000e+00   0.0000000000000000e+00   0.0000000000000000e+00   0.0000000000000000e+00   0.0000000000000000e+00   0.0000000000000000e+00   0.0000000000000000e+00   0.0000000000000000e+00   0.0000000000000000e+00   0.0000000000000000e+00   0.0000000000000000e+00   0.0000000000000000e+00   0.0000000000000000e+00   0.0000000000000000e+00   0.0000000000000000e+00   0.0000000000000000e+00   0.0000000000000000e+00   0.0000000000000000e+00   0.0000000000000000e+00   0.0000000000000000e+00   0.0000000000000000e+00   0.0000000000000000e+00   0.0000000000000000e+00   0.0000000000000000e+00   0.0000000000000000e+00   0.0000000000000000e+00   0.0000000000000000e+00   0.0000000000000000e+00   0.0000000000000000e+00   0.0000000000000000e+00   0.0000000000000000e+00   0.0000000000000000e+00   0.0000000000000000e+00   3.0663823586326855e-03   9.0949873765066400e-02   2.2618962935520379e-06   6.2357537672711816e-04   1.0919451454149963e-10   2.8295122928937794e-07   3.1456319031046109e-16   8.0669915192288483e-12   0.0000000000000000e+00   1.8503717077085941e-17   0.0000000000000000e+00   0.0000000000000000e+00   0.0000000000000000e+00   0.0000000000000000e+00   0.0000000000000000e+00   0.0000000000000000e+00   0.0000000000000000e+00   0.0000000000000000e+00   0.0000000000000000e+00   0.0000000000000000e+00   0.0000000000000000e+00   0.0000000000000000e+00   0.0000000000000000e+00   0.0000000000000000e+00   0.0000000000000000e+00   0.0000000000000000e+00   0.0000000000000000e+00   0.0000000000000000e+00   0.0000000000000000e+00   0.0000000000000000e+00   0.0000000000000000e+00   0.0000000000000000e+00   0.0000000000000000e+00   0.0000000000000000e+00   0.0000000000000000e+00   0.0000000000000000e+00   0.0000000000000000e+00   0.0000000000000000e+00   0.0000000000000000e+00   0.0000000000000000e+00   0.0000000000000000e+00   0.0000000000000000e+00   0.0000000000000000e+00   3.0323666059357107e-01   7.0065287166023549e-01   6.2813523218821958e-03   1.3698181735072726e-01   6.1587671753756306e-06   1.3435973743386176e-03   3.9829478604147539e-10   8.1017019325687245e-07   1.5728159515523048e-15   3.1738149145847202e-11   0.0000000000000000e+00   8.3266726846886741e-17   0.0000000000000000e+00   0.0000000000000000e+00   0.0000000000000000e+00   0.0000000000000000e+00   0.0000000000000000e+00   0.0000000000000000e+00   0.0000000000000000e+00   0.0000000000000000e+00   0.0000000000000000e+00   0.0000000000000000e+00   0.0000000000000000e+00   0.0000000000000000e+00   0.0000000000000000e+00   0.0000000000000000e+00   0.0000000000000000e+00   0.0000000000000000e+00   0.0000000000000000e+00   0.0000000000000000e+00   0.0000000000000000e+00   0.0000000000000000e+00   0.0000000000000000e+00   0.0000000000000000e+00   0.0000000000000000e+00   0.0000000000000000e+00   0.0000000000000000e+00   0.0000000000000000e+00   0.0000000000000000e+00   0.0000000000000000e+00   0.0000000000000000e+00   0.0000000000000000e+00   0.0000000000000000e+00   0.0000000000000000e+00   0.0000000000000000e+00   8.0660624356401545e-01   8.0171164829660280e-01   3.8717554624393236e-01   7.5407521469370842e-01   1.2448849118118414e-02   1.9886737766268672e-01   1.6570695173384612e-05   2.8572789555320888e-03   1.5013889205957773e-09   2.3522817657328768e-06   8.5579691481522494e-15   1.3256253502310264e-10   0.0000000000000000e+00   4.8109664400423447e-16   0.0000000000000000e+00   0.0000000000000000e+00   0.0000000000000000e+00   0.0000000000000000e+00   0.0000000000000000e+00   0.0000000000000000e+00   0.0000000000000000e+00   0.0000000000000000e+00   0.0000000000000000e+00   0.0000000000000000e+00   0.0000000000000000e+00   0.0000000000000000e+00   0.0000000000000000e+00   0.0000000000000000e+00   0.0000000000000000e+00   0.0000000000000000e+00   0.0000000000000000e+00   0.0000000000000000e+00   0.0000000000000000e+00   0.0000000000000000e+00   0.0000000000000000e+00   0.0000000000000000e+00   0.0000000000000000e+00   0.0000000000000000e+00   0.0000000000000000e+00   0.0000000000000000e+00   0.0000000000000000e+00   0.0000000000000000e+00   0.0000000000000000e+00   0.0000000000000000e+00   0.0000000000000000e+00   0.0000000000000000e+00   0.0000000000000000e+00   7.0672460825590389e-01   3.0129034285334028e-01   8.3371018841968481e-01   7.9901324851851641e-01   4.7771918461638824e-01   8.0114425970259828e-01   2.4337116548209057e-02   2.7884075559969129e-01   4.5585644314357250e-05   6.0850513689297558e-03   6.0249585968434145e-09   7.0873866342413524e-06   5.1653126220685414e-14   5.9736828446806578e-10   0.0000000000000000e+00   3.2844097811827554e-15   0.0000000000000000e+00   0.0000000000000000e+00   0.0000000000000000e+00   0.0000000000000000e+00   0.0000000000000000e+00   0.0000000000000000e+00   0.0000000000000000e+00   0.0000000000000000e+00   0.0000000000000000e+00   0.0000000000000000e+00   0.0000000000000000e+00   0.0000000000000000e+00   0.0000000000000000e+00   0.0000000000000000e+00   0.0000000000000000e+00   0.0000000000000000e+00   0.0000000000000000e+00   0.0000000000000000e+00   0.0000000000000000e+00   0.0000000000000000e+00   0.0000000000000000e+00   0.0000000000000000e+00   0.0000000000000000e+00   0.0000000000000000e+00   0.0000000000000000e+00   0.0000000000000000e+00   0.0000000000000000e+00   0.0000000000000000e+00   0.0000000000000000e+00   0.0000000000000000e+00   0.0000000000000000e+00   0.0000000000000000e+00   0.0000000000000000e+00   9.7856101624156880e-02   3.2500198568916985e-03   6.8654473495971757e-01   2.6187857389528979e-01   8.5610341353377017e-01   7.9442061449176671e-01   5.6859220118624765e-01   8.3706518762426330e-01   4.6738639629670842e-02   3.7502380497906973e-01   1.3075140163309093e-04   1.3002549430130792e-02   2.6776498425936282e-08   2.2808029607218609e-05   3.8384110704707065e-13   3.1241234506781024e-09   0.0000000000000000e+00   3.0244325562496969e-14   0.0000000000000000e+00   0.0000000000000000e+00   0.0000000000000000e+00   0.0000000000000000e+00   0.0000000000000000e+00   0.0000000000000000e+00   0.0000000000000000e+00   0.0000000000000000e+00   0.0000000000000000e+00   0.0000000000000000e+00   0.0000000000000000e+00   0.0000000000000000e+00   0.0000000000000000e+00   0.0000000000000000e+00   0.0000000000000000e+00   0.0000000000000000e+00   0.0000000000000000e+00   0.0000000000000000e+00   0.0000000000000000e+00   0.0000000000000000e+00   0.0000000000000000e+00   0.0000000000000000e+00   0.0000000000000000e+00   0.0000000000000000e+00   0.0000000000000000e+00   0.0000000000000000e+00   0.0000000000000000e+00   0.0000000000000000e+00   0.0000000000000000e+00   0.0000000000000000e+00   0.0000000000000000e+00   0.0000000000000000e+00   0.0000000000000000e+00   0.0000000000000000e+00   0.0000000000000000e+00   0.0000000000000000e+00   0.0000000000000000e+00   0.0000000000000000e+00   0.0000000000000000e+00   0.0000000000000000e+00   0.0000000000000000e+00   0.0000000000000000e+00   0.0000000000000000e+00   0.0000000000000000e+00   0.0000000000000000e+00   0.0000000000000000e+00   0.0000000000000000e+00   0.0000000000000000e+00   0.0000000000000000e+00   0.0000000000000000e+00   0.0000000000000000e+00   0.0000000000000000e+00   1.7578531223231642e-16   1.2027416100105862e-16   1.6938432138384010e-10   1.0850200367803118e-10   5.5677294743816663e-06   3.4835063402816990e-04   9.8200423807407832e-07   7.6664607815737487e-02   2.0718476072131564e-03   6.5349869502106905e-01   2.1576419266221830e-01   8.6875509056334566e-01   7.7448337943437318e-01   6.5232704954490273e-01   8.5929268516910207e-01   8.7615538036896645e-02   4.8292380587047490e-01   4.0787711890441508e-04   2.8264695490989110e-02   1.4578317096095952e-07   8.3663649344876509e-05   4.2414682877023324e-12   2.1571468259799314e-08   9.2518585385429722e-18   4.6314803843946117e-13   0.0000000000000000e+00   0.0000000000000000e+00   0.0000000000000000e+00   0.0000000000000000e+00   0.0000000000000000e+00   0.0000000000000000e+00   0.0000000000000000e+00   0.0000000000000000e+00   0.0000000000000000e+00   0.0000000000000000e+00   0.0000000000000000e+00   0.0000000000000000e+00   0.0000000000000000e+00   0.0000000000000000e+00   0.0000000000000000e+00   0.0000000000000000e+00   0.0000000000000000e+00   0.0000000000000000e+00   0.0000000000000000e+00   0.0000000000000000e+00   0.0000000000000000e+00   0.0000000000000000e+00   0.0000000000000000e+00   0.0000000000000000e+00   0.0000000000000000e+00   0.0000000000000000e+00   0.0000000000000000e+00   0.0000000000000000e+00   0.0000000000000000e+00   0.0000000000000000e+00   0.0000000000000000e+00   0.0000000000000000e+00   0.0000000000000000e+00   0.0000000000000000e+00   0.0000000000000000e+00   0.0000000000000000e+00   0.0000000000000000e+00   0.0000000000000000e+00   0.0000000000000000e+00   0.0000000000000000e+00   0.0000000000000000e+00   0.0000000000000000e+00   0.0000000000000000e+00   0.0000000000000000e+00   0.0000000000000000e+00   0.0000000000000000e+00   0.0000000000000000e+00   0.0000000000000000e+00   3.7007434154171889e-17   2.7755575615628914e-17   3.3901927561548925e-11   2.4521190633564061e-11   2.1628594445803153e-06   1.5978785002275972e-06   5.3592087646370714e-03   4.2230169648163627e-03   2.5014390081876831e-01   4.8511948763652071e-08   1.2003629571803268e-11   1.9907959161870786e-04   4.7605520545057622e-07   5.2868240260436544e-02   1.1098938672984373e-03   5.8669241320537413e-01   1.5314562981280283e-01   8.6851533330704900e-01   7.2507150239666673e-01   7.2519835359441920e-01   8.6840172913714375e-01   1.6015392347957455e-01   5.9726717991085276e-01   1.4697494131357309e-03   6.3579122329966514e-02   1.0706845527489832e-06   3.7364088472155443e-04   7.7283771974615930e-11   2.1239695445022616e-07   6.4763009769800805e-16   1.2428391649166313e-11   0.0000000000000000e+00   1.0177044392397269e-16   0.0000000000000000e+00   0.0000000000000000e+00   0.0000000000000000e+00   0.0000000000000000e+00   0.0000000000000000e+00   0.0000000000000000e+00   0.0000000000000000e+00   0.0000000000000000e+00   0.0000000000000000e+00   0.0000000000000000e+00   0.0000000000000000e+00   0.0000000000000000e+00   0.0000000000000000e+00   0.0000000000000000e+00   0.0000000000000000e+00   0.0000000000000000e+00   0.0000000000000000e+00   0.0000000000000000e+00   0.0000000000000000e+00   0.0000000000000000e+00   0.0000000000000000e+00   0.0000000000000000e+00   0.0000000000000000e+00   0.0000000000000000e+00   0.0000000000000000e+00   0.0000000000000000e+00   0.0000000000000000e+00   0.0000000000000000e+00   0.0000000000000000e+00   0.0000000000000000e+00   0.0000000000000000e+00   0.0000000000000000e+00   0.0000000000000000e+00   0.0000000000000000e+00   0.0000000000000000e+00   0.0000000000000000e+00   0.0000000000000000e+00   0.0000000000000000e+00   0.0000000000000000e+00   0.0000000000000000e+00   0.0000000000000000e+00   0.0000000000000000e+00   9.2518585385429707e-18   9.2518585385429707e-18   1.1817565444734631e-11   1.0135364769681134e-11   7.9095710070475889e-07   6.5287560985227699e-07   2.5038712186784187e-03   2.0968351682847659e-03   2.1298225683876673e-01   1.9032746633539291e-01   7.1002987167151843e-01   6.9933717945589513e-01   7.0155313136929587e-01   7.1595906582251667e-01   1.8371681496984832e-01   2.1790383163140603e-01   1.6777490489309210e-03   2.3683070944230202e-03   3.2646823160583277e-07   5.5477292394227418e-07   1.8587631434030527e-12   3.8929785321310346e-12   0.0000000000000000e+00   0.0000000000000000e+00   0.0000000000000000e+00   0.0000000000000000e+00   0.0000000000000000e+00   0.0000000000000000e+00   0.0000000000000000e+00   0.0000000000000000e+00   0.0000000000000000e+00   0.0000000000000000e+00   0.0000000000000000e+00   0.0000000000000000e+00   0.0000000000000000e+00   0.0000000000000000e+00   0.0000000000000000e+00   0.0000000000000000e+00   0.0000000000000000e+00   0.0000000000000000e+00   0.0000000000000000e+00   0.0000000000000000e+00   0.0000000000000000e+00   0.0000000000000000e+00   0.0000000000000000e+00   0.0000000000000000e+00   0.0000000000000000e+00   0.0000000000000000e+00   0.0000000000000000e+00   0.0000000000000000e+00   0.0000000000000000e+00   0.0000000000000000e+00   0.0000000000000000e+00   0.0000000000000000e+00   0.0000000000000000e+00   0.0000000000000000e+00   0.0000000000000000e+00   0.0000000000000000e+00   0.0000000000000000e+00   0.0000000000000000e+00   0.0000000000000000e+00   0.0000000000000000e+00   0.0000000000000000e+00   0.0000000000000000e+00   0.0000000000000000e+00   0.0000000000000000e+00   0.0000000000000000e+00   0.0000000000000000e+00   0.0000000000000000e+00   0.0000000000000000e+00   0.0000000000000000e+00   0.0000000000000000e+00   0.0000000000000000e+00   0.0000000000000000e+00   0.0000000000000000e+00   0.0000000000000000e+00   0.0000000000000000e+00   0.0000000000000000e+00   0.0000000000000000e+00   0.0000000000000000e+00   0.0000000000000000e+00   0.0000000000000000e+00   0.0000000000000000e+00   0.0000000000000000e+00   0.0000000000000000e+00   0.0000000000000000e+00   0.0000000000000000e+00   0.0000000000000000e+00   0.0000000000000000e+00   0.0000000000000000e+00   0.0000000000000000e+00   0.0000000000000000e+00   0.0000000000000000e+00   0.0000000000000000e+00   0.0000000000000000e+00   2.5573062186386630e-13   0.0000000000000000e+00   1.9152082466241297e-08   4.0128271076393202e-12   8.5806350063721837e-05   1.6203015261913775e-07   2.8757193983640888e-02   4.3622930904863949e-04   4.7443014324247557e-01   8.5634469731131618e-02   8.5270062402185065e-01   6.3447114606398902e-01   7.8688722834317926e-01   8.6539957748174412e-01   2.8080596230716004e-01   7.0882711568106715e-01   6.2865635069164205e-03   1.4493870141422971e-01   1.0738006437555068e-05   2.0511983039222244e-03   2.2243816510947316e-09   2.8947984922478294e-06   6.2681341598628634e-14   5.2188689481091889e-10   0.0000000000000000e+00   1.3174646558885190e-14   0.0000000000000000e+00   0.0000000000000000e+00   0.0000000000000000e+00   0.0000000000000000e+00   0.0000000000000000e+00   0.0000000000000000e+00   0.0000000000000000e+00   0.0000000000000000e+00   0.0000000000000000e+00   0.0000000000000000e+00   0.0000000000000000e+00   0.0000000000000000e+00   0.0000000000000000e+00   0.0000000000000000e+00   0.0000000000000000e+00   0.0000000000000000e+00   0.0000000000000000e+00   0.0000000000000000e+00   0.0000000000000000e+00   0.0000000000000000e+00   0.0000000000000000e+00   0.0000000000000000e+00   0.0000000000000000e+00   0.0000000000000000e+00   0.0000000000000000e+00   0.0000000000000000e+00   0.0000000000000000e+00   0.0000000000000000e+00   0.0000000000000000e+00   0.0000000000000000e+00   0.0000000000000000e+00   0.0000000000000000e+00   0.0000000000000000e+00   0.0000000000000000e+00   0.0000000000000000e+00   0.0000000000000000e+00   0.0000000000000000e+00   0.0000000000000000e+00   9.2518585385429722e-18   9.2518585385429722e-18   7.6008921379155952e-12   7.2573613785209561e-12   4.4993938760895519e-07   4.1645970020690959e-07   1.4935439124352150e-03   1.3553606265280425e-03   1.6633824786248189e-01   1.5438308450062899e-01   6.6839126531249282e-01   6.5932505871052771e-01   7.4383212219190320e-01   7.5125486564706145e-01   2.6085537225068234e-01   2.9019928081376667e-01   4.9987883974073428e-03   6.3758058795947521e-03   2.1365771735078658e-06   3.1472597851189836e-06   2.9934887901816871e-11   5.4200172128204827e-11   1.8503717077085944e-17   3.7007434154171889e-17   0.0000000000000000e+00   0.0000000000000000e+00   0.0000000000000000e+00   0.0000000000000000e+00   0.0000000000000000e+00   0.0000000000000000e+00   0.0000000000000000e+00   0.0000000000000000e+00   0.0000000000000000e+00   0.0000000000000000e+00   0.0000000000000000e+00   0.0000000000000000e+00   0.0000000000000000e+00   0.0000000000000000e+00   0.0000000000000000e+00   0.0000000000000000e+00   0.0000000000000000e+00   0.0000000000000000e+00   0.0000000000000000e+00   0.0000000000000000e+00   0.0000000000000000e+00   0.0000000000000000e+00   0.0000000000000000e+00   0.0000000000000000e+00   0.0000000000000000e+00   0.0000000000000000e+00   0.0000000000000000e+00   0.0000000000000000e+00   0.0000000000000000e+00   0.0000000000000000e+00   0.0000000000000000e+00   0.0000000000000000e+00   0.0000000000000000e+00   0.0000000000000000e+00   0.0000000000000000e+00   0.0000000000000000e+00   0.0000000000000000e+00   0.0000000000000000e+00   0.0000000000000000e+00   0.0000000000000000e+00   0.0000000000000000e+00   0.0000000000000000e+00   0.0000000000000000e+00   0.0000000000000000e+00   0.0000000000000000e+00   0.0000000000000000e+00   0.0000000000000000e+00   0.0000000000000000e+00   0.0000000000000000e+00   0.0000000000000000e+00   0.0000000000000000e+00   0.0000000000000000e+00   0.0000000000000000e+00   0.0000000000000000e+00   0.0000000000000000e+00   0.0000000000000000e+00   0.0000000000000000e+00   0.0000000000000000e+00   0.0000000000000000e+00   0.0000000000000000e+00   0.0000000000000000e+00   0.0000000000000000e+00   0.0000000000000000e+00   0.0000000000000000e+00   0.0000000000000000e+00   0.0000000000000000e+00   0.0000000000000000e+00   0.0000000000000000e+00   0.0000000000000000e+00   0.0000000000000000e+00   0.0000000000000000e+00   0.0000000000000000e+00   0.0000000000000000e+00   0.0000000000000000e+00   0.0000000000000000e+00   0.0000000000000000e+00   0.0000000000000000e+00   5.8666034992900976e-14   0.0000000000000000e+00   4.6478820699598807e-09   7.3787272588295606e-13   2.5172364971663239e-05   3.4261386792448313e-08   1.1609722497287284e-02   1.1905015932534012e-04   3.2986506980890218e-01   3.5639936831561407e-02   8.1567036706561558e-01   5.0104036509937644e-01   8.3628516187808344e-01   8.4852870717167606e-01   4.5425652399318078e-01   8.0261831795024641e-01   2.9983096382192299e-02   3.1059964602096390e-01   1.3216537363104167e-04   1.2634164311045351e-02   7.8569617293725954e-08   4.5847238468741752e-05   6.4111123817175058e-12   2.3371979129827028e-08   8.3266726846886741e-17   1.5906350310975386e-12   0.0000000000000000e+00   1.8503717077085941e-17   0.0000000000000000e+00   0.0000000000000000e+00   0.0000000000000000e+00   0.0000000000000000e+00   0.0000000000000000e+00   0.0000000000000000e+00   0.0000000000000000e+00   0.0000000000000000e+00   0.0000000000000000e+00   0.0000000000000000e+00   0.00000000