<?xml version="1.0"?>
<VTKFile type="UnstructuredGrid"  version="0.1"  >
<UnstructuredGrid>
<Piece  NumberOfPoints="2380" NumberOfCells="4561">
<Points>
<DataArray  type="Float64"  NumberOfComponents="3"  format="ascii">2.288260869565217 0 0  2.296521739130434 0 0  2.296521739130434 0.008333333333333333 0  2.304782608695652 0 0  2.304782608695652 0.008333333333333333 0  2.31304347826087 0 0  2.31304347826087 0.008333333333333333 0  2.321304347826087 0 0  2.321304347826087 0.008333333333333333 0  2.329565217391304 0 0  2.329565217391304 0.008333333333333333 0  2.337826086956521 0 0  2.337826086956521 0.008333333333333333 0  2.346086956521739 0 0  2.346086956521739 0.008333333333333333 0  2.354347826086956 0 0  2.354347826086956 0.008333333333333333 0  2.362608695652174 0 0  2.362608695652174 0.008333333333333333 0  2.370869565217391 0 0  2.370869565217391 0.008333333333333333 0  2.379130434782609 0 0  2.379130434782609 0.008333333333333333 0  2.387391304347826 0 0  2.387391304347826 0.008333333333333333 0  2.395652173913044 0 0  2.395652173913044 0.008333333333333333 0  2.403913043478261 0 0  2.403913043478261 0.008333333333333333 0  2.412173913043478 0 0  2.412173913043478 0.008333333333333333 0  2.420434782608695 0 0  2.420434782608695 0.008333333333333333 0  2.428695652173913 0 0  2.428695652173913 0.008333333333333333 0  2.43695652173913 0 0  2.43695652173913 0.008333333333333333 0  2.445217391304348 0 0  2.445217391304348 0.008333333333333333 0  2.453478260869565 0 0  2.453478260869565 0.008333333333333333 0  2.461739130434782 0 0  2.461739130434782 0.008333333333333333 0  2.47 0 0  2.47 0.008333333333333333 0  2.478260869565217 0 0  2.478260869565217 0.008333333333333333 0  2.486521739130435 0 0  2.486521739130435 0.008333333333333333 0  2.494782608695652 0 0  2.494782608695652 0.008333333333333333 0  2.503043478260869 0 0  2.503043478260869 0.008333333333333333 0  2.511304347826087 0 0  2.511304347826087 0.008333333333333333 0  2.519565217391305 0 0  2.519565217391305 0.008333333333333333 0  2.527826086956522 0 0  2.527826086956522 0.008333333333333333 0  2.536086956521739 0 0  2.536086956521739 0.008333333333333333 0  2.544347826086956 0 0  2.544347826086956 0.008333333333333333 0  2.552608695652174 0 0  2.552608695652174 0.008333333333333333 0  2.560869565217391 0 0  2.560869565217391 0.008333333333333333 0  2.569130434782608 0 0  2.569130434782608 0.008333333333333333 0  2.577391304347826 0 0  2.577391304347826 0.008333333333333333 0  2.585652173913043 0 0  2.585652173913043 0.008333333333333333 0  2.593913043478261 0 0  2.593913043478261 0.008333333333333333 0  2.602173913043478 0 0  2.602173913043478 0.008333333333333333 0  2.610434782608696 0.008333333333333333 0  2.304782608695652 0.01666666666666667 0  2.31304347826087 0.01666666666666667 0  2.321304347826087 0.01666666666666667 0  2.329565217391304 0.01666666666666667 0  2.337826086956521 0.01666666666666667 0  2.346086956521739 0.01666666666666667 0  2.354347826086956 0.01666666666666667 0  2.362608695652174 0.01666666666666667 0  2.370869565217391 0.01666666666666667 0  2.379130434782609 0.01666666666666667 0  2.387391304347826 0.01666666666666667 0  2.395652173913044 0.01666666666666667 0  2.403913043478261 0.01666666666666667 0  2.412173913043478 0.01666666666666667 0  2.420434782608695 0.01666666666666667 0  2.428695652173913 0.01666666666666667 0  2.43695652173913 0.01666666666666667 0  2.445217391304348 0.01666666666666667 0  2.453478260869565 0.01666666666666667 0  2.461739130434782 0.01666666666666667 0  2.47 0.01666666666666667 0  2.478260869565217 0.01666666666666667 0  2.486521739130435 0.01666666666666667 0  2.494782608695652 0.01666666666666667 0  2.503043478260869 0.01666666666666667 0  2.511304347826087 0.01666666666666667 0  2.519565217391305 0.01666666666666667 0  2.527826086956522 0.01666666666666667 0  2.536086956521739 0.01666666666666667 0  2.544347826086956 0.01666666666666667 0  2.552608695652174 0.01666666666666667 0  2.560869565217391 0.01666666666666667 0  2.569130434782608 0.01666666666666667 0  2.577391304347826 0.01666666666666667 0  2.585652173913043 0.01666666666666667 0  2.593913043478261 0.01666666666666667 0  2.602173913043478 0.01666666666666667 0  2.610434782608696 0.01666666666666667 0  2.618695652173913 0.01666666666666667 0  2.31304347826087 0.025 0  2.321304347826087 0.025 0  2.329565217391304 0.025 0  2.337826086956521 0.025 0  2.346086956521739 0.025 0  2.354347826086956 0.025 0  2.362608695652174 0.025 0  2.370869565217391 0.025 0  2.379130434782609 0.025 0  2.387391304347826 0.025 0  2.395652173913044 0.025 0  2.403913043478261 0.025 0  2.412173913043478 0.025 0  2.420434782608695 0.025 0  2.428695652173913 0.025 0  2.43695652173913 0.025 0  2.445217391304348 0.025 0  2.453478260869565 0.025 0  2.461739130434782 0.025 0  2.47 0.025 0  2.478260869565217 0.025 0  2.486521739130435 0.025 0  2.494782608695652 0.025 0  2.503043478260869 0.025 0  2.511304347826087 0.025 0  2.519565217391305 0.025 0  2.527826086956522 0.025 0  2.536086956521739 0.025 0  2.544347826086956 0.025 0  2.552608695652174 0.025 0  2.560869565217391 0.025 0  2.569130434782608 0.025 0  2.577391304347826 0.025 0  2.585652173913043 0.025 0  2.593913043478261 0.025 0  2.602173913043478 0.025 0  2.610434782608696 0.025 0  2.618695652173913 0.025 0  2.62695652173913 0.025 0  2.321304347826087 0.03333333333333333 0  2.329565217391304 0.03333333333333333 0  2.337826086956521 0.03333333333333333 0  2.346086956521739 0.03333333333333333 0  2.354347826086956 0.03333333333333333 0  2.362608695652174 0.03333333333333333 0  2.370869565217391 0.03333333333333333 0  2.379130434782609 0.03333333333333333 0  2.387391304347826 0.03333333333333333 0  2.395652173913044 0.03333333333333333 0  2.403913043478261 0.03333333333333333 0  2.412173913043478 0.03333333333333333 0  2.420434782608695 0.03333333333333333 0  2.428695652173913 0.03333333333333333 0  2.43695652173913 0.03333333333333333 0  2.445217391304348 0.03333333333333333 0  2.453478260869565 0.03333333333333333 0  2.461739130434782 0.03333333333333333 0  2.47 0.03333333333333333 0  2.478260869565217 0.03333333333333333 0  2.486521739130435 0.03333333333333333 0  2.494782608695652 0.03333333333333333 0  2.503043478260869 0.03333333333333333 0  2.511304347826087 0.03333333333333333 0  2.519565217391305 0.03333333333333333 0  2.527826086956522 0.03333333333333333 0  2.536086956521739 0.03333333333333333 0  2.544347826086956 0.03333333333333333 0  2.552608695652174 0.03333333333333333 0  2.560869565217391 0.03333333333333333 0  2.569130434782608 0.03333333333333333 0  2.577391304347826 0.03333333333333333 0  2.585652173913043 0.03333333333333333 0  2.593913043478261 0.03333333333333333 0  2.602173913043478 0.03333333333333333 0  2.610434782608696 0.03333333333333333 0  2.618695652173913 0.03333333333333333 0  2.62695652173913 0.03333333333333333 0  2.635217391304348 0.03333333333333333 0  2.329565217391304 0.04166666666666666 0  2.337826086956521 0.04166666666666666 0  2.346086956521739 0.04166666666666666 0  2.354347826086956 0.04166666666666666 0  2.362608695652174 0.04166666666666666 0  2.370869565217391 0.04166666666666666 0  2.379130434782609 0.04166666666666666 0  2.387391304347826 0.04166666666666666 0  2.395652173913044 0.04166666666666666 0  2.403913043478261 0.04166666666666666 0  2.412173913043478 0.04166666666666666 0  2.420434782608695 0.04166666666666666 0  2.428695652173913 0.04166666666666666 0  2.43695652173913 0.04166666666666666 0  2.445217391304348 0.04166666666666666 0  2.453478260869565 0.04166666666666666 0  2.461739130434782 0.04166666666666666 0  2.47 0.04166666666666666 0  2.478260869565217 0.04166666666666666 0  2.486521739130435 0.04166666666666666 0  2.494782608695652 0.04166666666666666 0  2.503043478260869 0.04166666666666666 0  2.511304347826087 0.04166666666666666 0  2.519565217391305 0.04166666666666666 0  2.527826086956522 0.04166666666666666 0  2.536086956521739 0.04166666666666666 0  2.544347826086956 0.04166666666666666 0  2.552608695652174 0.04166666666666666 0  2.560869565217391 0.04166666666666666 0  2.569130434782608 0.04166666666666666 0  2.577391304347826 0.04166666666666666 0  2.585652173913043 0.04166666666666666 0  2.593913043478261 0.04166666666666666 0  2.602173913043478 0.04166666666666666 0  2.610434782608696 0.04166666666666666 0  2.618695652173913 0.04166666666666666 0  2.62695652173913 0.04166666666666666 0  2.635217391304348 0.04166666666666666 0  2.643478260869565 0.04166666666666666 0  2.337826086956521 0.05 0  2.346086956521739 0.05 0  2.354347826086956 0.05 0  2.362608695652174 0.05 0  2.370869565217391 0.05 0  2.379130434782609 0.05 0  2.387391304347826 0.05 0  2.395652173913044 0.05 0  2.403913043478261 0.05 0  2.412173913043478 0.05 0  2.420434782608695 0.05 0  2.428695652173913 0.05 0  2.43695652173913 0.05 0  2.445217391304348 0.05 0  2.453478260869565 0.05 0  2.461739130434782 0.05 0  2.47 0.05 0  2.478260869565217 0.05 0  2.486521739130435 0.05 0  2.494782608695652 0.05 0  2.503043478260869 0.05 0  2.511304347826087 0.05 0  2.519565217391305 0.05 0  2.527826086956522 0.05 0  2.536086956521739 0.05 0  2.544347826086956 0.05 0  2.552608695652174 0.05 0  2.560869565217391 0.05 0  2.569130434782608 0.05 0  2.577391304347826 0.05 0  2.585652173913043 0.05 0  2.593913043478261 0.05 0  2.602173913043478 0.05 0  2.610434782608696 0.05 0  2.618695652173913 0.05 0  2.62695652173913 0.05 0  2.635217391304348 0.05 0  2.643478260869565 0.05 0  2.651739130434783 0.05 0  2.346086956521739 0.05833333333333333 0  2.354347826086956 0.05833333333333333 0  2.362608695652174 0.05833333333333333 0  2.370869565217391 0.05833333333333333 0  2.379130434782609 0.05833333333333333 0  2.387391304347826 0.05833333333333333 0  2.395652173913044 0.05833333333333333 0  2.403913043478261 0.05833333333333333 0  2.412173913043478 0.05833333333333333 0  2.420434782608695 0.05833333333333333 0  2.428695652173913 0.05833333333333333 0  2.43695652173913 0.05833333333333333
[...]
<PointData  Vectors="Displacement"> 
<DataArray  type="Float64"  Name="Displacement"  NumberOfComponents="3" format="ascii">2.9303998070430876e-04 2.2765468103045526e-03 0.0000000000000000e+00  2.9370821707586331e-04 2.2858083097858223e-03 0.0000000000000000e+00  2.8433709790581568e-04 2.2855893849748998e-03 0.0000000000000000e+00  2.9438435429024701e-04 2.2951069987303136e-03 0.0000000000000000e+00  2.8497989857202786e-04 2.2948856974046102e-03 0.0000000000000000e+00  2.9506258813788726e-04 2.3044497388436005e-03 0.0000000000000000e+00  2.8562343300925181e-04 2.3042272351047866e-03 0.0000000000000000e+00  2.9573526186976083e-04 2.3138368186917317e-03 0.0000000000000000e+00  2.8626656424245715e-04 2.3136148560044165e-03 0.0000000000000000e+00  2.9639368729866323e-04 2.3232599954862107e-03 0.0000000000000000e+00  2.8690785264811171e-04 2.3230407384641017e-03 0.0000000000000000e+00  2.9702975048794022e-04 2.3327010044414047e-03 0.0000000000000000e+00  2.8754616164077597e-04 2.3324867099633879e-03 0.0000000000000000e+00  2.9763825317852716e-04 2.3421315822543544e-03 0.0000000000000000e+00  2.8818125146032602e-04 2.3419241644747420e-03 0.0000000000000000e+00  2.9821984856536875e-04 2.3515165885298751e-03 0.0000000000000000e+00  2.8881381874090967e-04 2.3513167143591716e-03 0.0000000000000000e+00  2.9878238369052514e-04 2.3608242896111038e-03 0.0000000000000000e+00  2.8944377282662974e-04 2.3606310472105759e-03 0.0000000000000000e+00  2.9934069517457648e-04 2.3700376817965127e-03 0.0000000000000000e+00  2.9006992686482480e-04 2.3698476817510645e-03 0.0000000000000000e+00  2.9991536405170875e-04 2.3791617685707585e-03 0.0000000000000000e+00  2.9069420772450647e-04 2.3789685296301787e-03 0.0000000000000000e+00  3.0052636453670319e-04 2.3882289683089331e-03 0.0000000000000000e+00  2.9132185578778676e-04 2.3880262860492343e-03 0.0000000000000000e+00  3.0118409891000673e-04 2.3972926837133798e-03 0.0000000000000000e+00  2.9195603316582117e-04 2.3970785641392973e-03 0.0000000000000000e+00  3.0188887968792449e-04 2.4064051052223160e-03 0.0000000000000000e+00  2.9259829613470381e-04 2.4061798211020384e-03 0.0000000000000000e+00  3.0263340675340533e-04 2.4156104084550639e-03 0.0000000000000000e+00  2.9324807184401595e-04 2.4153761476510675e-03 0.0000000000000000e+00  3.0340579741617186e-04 2.4249403332798226e-03 0.0000000000000000e+00  2.9390279365089725e-04 2.4247001855554058e-03 0.0000000000000000e+00  3.0419078774917917e-04 2.4344162076394629e-03 0.0000000000000000e+00  2.9455674828027966e-04 2.4341745475481460e-03 0.0000000000000000e+00  3.0497089331688428e-04 2.4440481350075944e-03 0.0000000000000000e+00  2.9520136424878753e-04 2.4438102218753625e-03 0.0000000000000000e+00  3.0572877224488432e-04 2.4538344325163771e-03 0.0000000000000000e+00  2.9582689149636220e-04 2.4536055158145401e-03 0.0000000000000000e+00  3.0645096058268229e-04 2.4637619332143869e-03 0.0000000000000000e+00  2.9642533853843547e-04 2.4635457265118200e-03 0.0000000000000000e+00  3.0713090251187916e-04 2.4738105593851011e-03 0.0000000000000000e+00  2.9699252457020866e-04 2.4736084445831840e-03 0.0000000000000000e+00  3.0777011283355399e-04 2.4839592067845699e-03 0.0000000000000000e+00  2.9752886765481169e-04 2.4837700971040767e-03 0.0000000000000000e+00  3.0837768030713818e-04 2.4941910035212876e-03 0.0000000000000000e+00  2.9803928393172324e-04 2.4940115773236719e-03 0.0000000000000000e+00  3.0896847255760119e-04 2.5044974768427893e-03 0.0000000000000000e+00  2.9853238765652055e-04 2.5043227049007391e-03 0.0000000000000000e+00  3.0956011325376759e-04 2.5148814825841060e-03 0.0000000000000000e+00  2.9901891602568083e-04 2.5147055211252895e-03 0.0000000000000000e+00  3.1016866019177813e-04 2.5253584168257450e-03 0.0000000000000000e+00  2.9950926247060698e-04 2.5251760174340560e-03 0.0000000000000000e+00  3.1080282673040923e-04 2.5359552639469280e-03 0.0000000000000000e+00  3.0000960642659037e-04 2.5357640417050915e-03 0.0000000000000000e+00  3.1145998559266915e-04 2.5467023180677549e-03 0.0000000000000000e+00  3.0051972882949921e-04 2.5465038393398683e-03 0.0000000000000000e+00  3.1212776694037372e-04 2.5576187274290786e-03 0.0000000000000000e+00  3.0103569620763598e-04 2.5574176279680081e-03 0.0000000000000000e+00  3.1279101197994100e-04 2.5687026145411020e-03 0.0000000000000000e+00  3.0155287453501685e-04 2.5685038320786176e-03 0.0000000000000000e+00  3.1344056268987436e-04 2.5799330125064945e-03 0.0000000000000000e+00  3.0206915241663999e-04 2.5797381498583161e-03 0.0000000000000000e+00  3.1407425231078133e-04 2.5912877365996960e-03 0.0000000000000000e+00  3.0258382320208526e-04 2.5910967512293441e-03 0.0000000000000000e+00  3.1469402899068856e-04 2.6027496094563622e-03 0.0000000000000000e+00  3.0309652570754459e-04 2.6025618094541415e-03 0.0000000000000000e+00  3.1530334786846403e-04 2.6143080131088773e-03 0.0000000000000000e+00  3.0360676323455883e-04 2.6141224928717135e-03 0.0000000000000000e+00  3.1590543891417861e-04 2.6259581939866994e-03 0.0000000000000000e+00  3.0411416810577775e-04 2.6257741501434883e-03 0.0000000000000000e+00  3.1650222356598552e-04 2.6376992434648415e-03 0.0000000000000000e+00  3.0461854664704804e-04 2.6375163202901194e-03 0.0000000000000000e+00  3.1709425913480321e-04 2.6495310029411496e-03 0.0000000000000000e+00  3.0511990551596702e-04 2.6493491744167524e-03 0.0000000000000000e+00  3.1768123241976269e-04 2.6614525060538190e-03 0.0000000000000000e+00  3.0561829842998376e-04 2.6612719061335386e-03 0.0000000000000000e+00  3.0611377984194861e-04 2.6732823300452554e-03 0.0000000000000000e+00  2.7557818139610258e-04 2.2946711819725484e-03 0.0000000000000000e+00  2.7618885613999513e-04 2.3040101348588563e-03 0.0000000000000000e+00  2.7680374002351631e-04 2.3133956088803886e-03 0.0000000000000000e+00  2.7742758744633920e-04 2.3228206751318746e-03 0.0000000000000000e+00  2.7806501973858146e-04 2.3322674176784273e-03 0.0000000000000000e+00  2.7872142034632036e-04 2.3417072323914552e-03 0.0000000000000000e+00  2.7940140524138811e-04 2.3511033845908425e-03 0.0000000000000000e+00  2.8009999990491913e-04 2.3604244777516814e-03 0.0000000000000000e+00  2.8079776415841385e-04 2.3696511651335565e-03 0.0000000000000000e+00  2.8147098416657715e-04 2.3787758463593846e-03 0.0000000000000000e+00  2.8211148701900101e-04 2.3878286905754933e-03 0.0000000000000000e+00  2.8271941918197745e-04 2.3968764554334531e-03 0.0000000000000000e+00  2.8329965034192364e-04 2.4059731564528581e-03 0.0000000000000000e+00  2.8385980778444943e-04 2.4151659068651840e-03 0.0000000000000000e+00  2.8440786818190606e-04 2.4244868409966313e-03 0.0000000000000000e+00  2.8494679871652316e-04 2.4339613491888854e-03 0.0000000000000000e+00  2.8547364466641775e-04 2.4436028084714851e-03 0.0000000000000000e+00  2.8598150018698822e-04 2.4534105111838627e-03 0.0000000000000000e+00  2.8646390748264495e-04 2.4633674648349316e-03 0.0000000000000000e+00  2.8691719559513143e-04 2.4734482044549834e-03 0.0000000000000000e+00  2.8734089814065616e-04 2.4836263688644304e-03 0.0000000000000000e+00  2.8773774953409390e-04 2.4938802938348427e-03 0.0000000000000000e+00  2.8811368684122289e-04 2.5041974463037467e-03 0.0000000000000000e+00  2.8847742507394987e-04 2.5145781947571093e-03 0.0000000000000000e+00  2.8883877057850051e-04 2.5250385902792832e-03 0.0000000000000000e+00  2.8920378597913131e-04 2.5356138014183444e-03 0.0000000000000000e+00  2.8957129286607966e-04 2.5463453395591384e-03 0.0000000000000000e+00  2.8993826790285572e-04 2.5572568206395749e-03 0.0000000000000000e+00  2.9031189895942509e-04 2.5683473225004754e-03 0.0000000000000000e+00  2.9069767627656049e-04 2.5795848897494987e-03 0.0000000000000000e+00  2.9109527101641938e-04 2.5909445128612170e-03 0.0000000000000000e+00  2.9150327520989955e-04 2.6024097907824937e-03 0.0000000000000000e+00  2.9191672034892724e-04 2.6139705198288906e-03 0.0000000000000000e+00  2.9233072820633121e-04 2.6256219577096979e-03 0.0000000000000000e+00  2.9274283883325218e-04 2.6373640118653226e-03 0.0000000000000000e+00  2.9315316275515494e-04 2.6491969475034086e-03 0.0000000000000000e+00  2.9356263142947401e-04 2.6611199815785073e-03 0.0000000000000000e+00  2.9397207489201298e-04 2.6731307521318023e-03 0.0000000000000000e+00  2.9438224990801945e-04 2.6852258696354733e-03 0.0000000000000000e+00  2.6674882898601062e-04 2.3038028157858232e-03 0.0000000000000000e+00  2.6732012923523090e-04 2.3131835480245757e-03 0.0000000000000000e+00  2.6791055928097657e-04 2.3226043274152575e-03 0.0000000000000000e+00  2.6853232409664279e-04 2.3320473883232935e-03 0.0000000000000000e+00  2.6919884003114155e-04 2.3414803737054914e-03 0.0000000000000000e+00  2.6993148567047779e-04 2.3508652845732154e-03 0.0000000000000000e+00  2.7073279868683920e-04 2.3601837498601888e-03 0.0000000000000000e+00  2.7155971115863051e-04 2.3694295954952548e-03 0.0000000000000000e+00  2.7233968787158074e-04 2.3785846213333801e-03 0.0000000000000000e+00  2.7299991604843704e-04 2.3876410797213660e-03 0.0000000000000000e+00  2.7357038805193520e-04 2.3966938979450673e-03 0.0000000000000000e+00  2.7406883848832796e-04 2.4057916802293867e-03 0.0000000000000000e+00  2.7451831136998970e-04 2.4149821385737666e-03 0.0000000000000000e+00  2.7494678544778199e-04 2.4242966405248405e-03 0.0000000000000000e+00  2.7536729036439946e-04 2.4337681508915898e-03 0.0000000000000000e+00  2.7577985103902840e-04 2.4434157240063362e-03 0.0000000000000000e+00  2.7617590594156529e-04 2.4532413730261899e-03 0.0000000000000000e+00  2.7654717534046880e-04 2.4632233776607838e-03 0.0000000000000000e+00  2.7688880578651643e-04 2.4733310756456022e-03 0.0000000000000000e+00  2.7719885727575422e-04 2.4835340973170276e-03 0.0000000000000000e+00  2.7747793819958138e-04 2.4938071025286937e-03 0.0000000000000000e+00  2.7772998461464979e-04 2.5041335902713179e-03 0.0000000000000000e+00  2.7796318951481871e-04 2.5145103694990513e-03 0.0000000000000000e+00  2.7818898071125658e-04 2.5249528705567482e-03 0.0000000000000000e+00  2.7841214462874731e-04 2.5355063720746353e-03 0.0000000000000000e+00  2.7862846096871063e-04 2.5462290029424294e-03 0.0000000000000000e+00  2.7882946146945675e-04 2.5571447599928993e-03 0.0000000000000000e+00  2.7902480417723983e-04 2.5682287396965801e-03 0.0000000000000000e+00  2.7929158395287345e-04 2.5794712210733665e-03 0.0000000000000000e+00  2.7957758172560821e-04 2.5908263308211271e-03 0.0000000000000000e+00  2.7989369980549391e-04 2.6022881870379658e-03 0.0000000000000000e+00  2.8022408586440975e-04 2.6138486012812945e-03 0.0000000000000000e+00  2.8055304637559234e-04 2.6255009292236822e-03 0.0000000000000000e+00  2.8087352618473706e-04 2.6372432238798457e-03 0.0000000000000000e+00  2.8118977018178179e-04 2.6490753122614362e-03 0.0000000000000000e+00  2.8150749489160086e-04 2.6609975143102389e-03 0.0000000000000000e+00  2.8182886743012705e-04 2.6730075295635148e-03 0.0000000000000000e+00  2.8215481581424402e-04 2.6851015818835531e-03 0.0000000000000000e+00  2.8248669934070848e-04 2.6972755580597419e-03 0.0000000000000000e+00  2.5778897864880962e-04 2.3129945499988512e-03 0.0000000000000000e+00  2.5829949634651947e-04 2.3224055682124038e-03 0.0000000000000000e+00  2.5886962446817162e-04 2.3318372834580047e-03 0.0000000000000000e+00  2.5954576867401590e-04 2.3412566682587408e-03 0.0000000000000000e+00  2.6037048454751030e-04 2.3506205989319360e-03 0.0000000000000000e+00  2.6130199228125702e-04 2.3599154804152265e-03 0.0000000000000000e+00  2.6227265334937441e-04 2.3691510069204511e-03 0.0000000000000000e+00  2.6328437846374084e-04 2.3783303724576616e-03 0.0000000000000000e+00  2.6415629914082348e-04 2.3874840672082486e-03 0.0000000000000000e+00  2.6461388397562330e-04 2.3965476827202429e-03 0.0000000000000000e+00  2.6499553249523234e-04 2.4056664553867070e-03 0.0000000000000000e+00  2.6526488773015000e-04 2.4148471134561576e-03 0.0000000000000000e+00  2.6553265255669387e-04 2.4241396523888262e-03 0.0000000000000000e+00  2.6581414909676717e-04 2.4335948810580966e-03 0.0000000000000000e+00  2.6610677878559374e-04 2.4432432197080633e-03 0.0000000000000000e+00  2.6639266150697876e-04 2.4530921361335272e-03 0.0000000000000000e+00  2.6665748548623130e-04 2.4631090691664250e-03 0.0000000000000000e+00  2.6689372339561244e-04 2.4732546291077839e-03 0.0000000000000000e+00  2.6709726092559097e-04 2.4834932337865490e-03 0.0000000000000000e+00  2.6726559852959620e-04 2.4937949490782788e-03 0.0000000000000000e+00  2.6739908187075798e-04 2.5041369638968787e-03 0.0000000000000000e+00  2.6750462732866748e-04 2.5145088372398755e-03 0.0000000000000000e+00  2.6759651131329210e-04 2.5249221957494481e-03 0.0000000000000000e+00  2.6767830441552288e-04 2.5354443133711020e-03 0.0000000000000000e+00  2.6772930998735460e-04 2.5461516993971131e-03 0.0000000000000000e+00  2.6776883111071989e-04 2.5570792185992701e-03 0.0000000000000000e+00  2.6780799117789671e-04 2.5681425777443639e-03 0.0000000000000000e+00  2.6791504039620279e-04 2.5793771413972840e-03 0.0000000000000000e+00  2.6808214650989796e-04 2.5907286507755242e-03 0.0000000000000000e+00  2.6832766210319151e-04 2.6021828603750357e-03 0.0000000000000000e+00  2.6856229998507993e-04 2.6137386485482000e-03 0.0000000000000000e+00  2.6879983520794557e-04 2.6253916032692296e-03 0.0000000000000000e+00  2.6903638029346632e-04 2.6371375958942787e-03 0.0000000000000000e+00  2.6927279657540935e-04 2.6489733977777758e-03 0.0000000000000000e+00  2.6949482304336963e-04 2.6608955430075729e-03 0.0000000000000000e+00  2.6971793490799677e-04 2.6729033660505401e-03 0.0000000000000000e+00  2.6995374779875680e-04 2.6849954076570430e-03 0.0000000000000000e+00  2.7020249231600669e-04 2.6971671128640301e-03 0.0000000000000000e+00  2.7046382430526313e-04 2.7094137964110204e-03 0.0000000000000000e+00  2.4843106138077207e-04 2.3209586146037430e-03 0.0000000000000000e+00  2.4909809910226085e-04 2.3302925804333484e-03 0.0000000000000000e+00  2.4984466566284786e-04 2.3396371005282371e-03 0.0000000000000000e+00  2.5067004350779734e-04 2.3489522084979516e-03 0.0000000000000000e+00  2.5155938819126813e-04 2.3582385299337470e-03 0.0000000000000000e+00  2.5248892216255231e-04 2.3675111767677269e-03 0.0000000000000000e+00  2.5343903348440193e-04 2.3767954852221222e-03 0.0000000000000000e+00  2.5439798567265391e-04 2.3862267057934406e-03 0.0000000000000000e+00  2.5551040132420762e-04 2.3963832542368071e-03 0.0000000000000000e+00  2.5592114464581100e-04 2.4055990401122924e-03 0.0000000000000000e+00  2.5607066673179142e-04 2.4147982409104224e-03 0.0000000000000000e+00  2.5614795605504012e-04 2.4240385202422684e-03 0.0000000000000000e+00  2.5625828354363007e-04 2.4334446497006855e-03 0.0000000000000000e+00  2.5642496685001731e-04 2.4430782140833144e-03 0.0000000000000000e+00  2.5660456570123966e-04 2.4529555634271241e-03 0.0000000000000000e+00  2.5677104047997759e-04 2.4630179645281588e-03 0.0000000000000000e+00  2.5691381379291961e-04 2.4732120825469400e-03 0.0000000000000000e+00  2.5702710896472706e-04 2.4834968810278938e-03 0.0000000000000000e+00  2.5710511471264171e-04 2.4938384010587860e-03 0.0000000000000000e+00  2.5714260251352234e-04 2.5042056587283889e-03 0.0000000000000000e+00  2.5714161768205672e-04 2.5145724348192735e-03 0.0000000000000000e+00  2.5712482146647667e-04 2.5249367129240446e-03 0.0000000000000000e+00  2.5709524989542352e-04 2.5353979584607127e-03 0.0000000000000000e+00  2.5705090166126999e-04 2.5460822742400923e-03 0.0000000000000000e+00  2.5692433427766540e-04 2.5570188460449939e-03 0.0000000000000000e+00  2.5669977608959080e-04 2.5681221166785448e-03 0.0000000000000000e+00  2.5723465102851811e-04 2.5797544603744353e-03 0.0000000000000000e+00  2.5750992787373206e-04 2.5911617799659237e-03 0.0000000000000000e+00  2.5772037283135511e-04 2.6026183939494183e-03 0.0000000000000000e+00  2.5790750625393985e-04 2.6141729243626989e-03 0.0000000000000000e+00  2.5808396338743123e-04 2.6258174343389566e-03 0.0000000000000000e+00  2.5825641247976009e-04 2.6375520248605334e-03 0.0000000000000000e+00  2.5842749036425591e-04 2.6493742748721840e-03 0.0000000000000000e+00  2.5859824223317657e-04 2.6612826592847753e-03 0.0000000000000000e+00  2.5877184359824468e-04 2.6732712262815179e-03 0.0000000000000000e+00  2.5895313007688663e-04 2.6853382685403612e-03 0.0000000000000000e+00  2.5914531960694585e-04 2.6974818742940719e-03 0.0000000000000000e+00  2.5934997251542320e-04 2.7096980473821147e-03 0.0000000000000000e+00  2.5956815400531052e-04 2.7219821076536086e-03 0.0000000000000000e+00  2.3921556124743715e-04 2.3286944563559639e-03 0.0000000000000000e+00  2.3999287564371104e-04 2.3380049904837652e-03 0.0000000000000000e+00  2.4081381129714390e-04 2.3473062949034775e-03 0.0000000000000000e+00  2.4166467357302000e-04 2.3566029636156354e-03 0.0000000000000000e+00  2.4252688139687423e-04 2.3659141612174424e-03 0.0000000000000000e+00  2.4337861847926787e-04 2.3752770074335879e-03 0.0000000000000000e+00  2.4420092891874691e-04 2.3847912627120581e-03 0.0000000000000000e+00  2.4501483443725204e-04 2.3946419355962301e-03 0.0000000000000000e+00  2.4582183605667519e-04 2.4043813952470401e-03 0.0000000000000000e+00  2.4659757018041285e-04 2.4146628461163043e-03 0.0000000000000000e+00  2.4665014272710179e-04 2.4239944560239873e-03 0.0000000000000000e+00  2.4662306565242502e-04 2.4333114167673134e-03 0.0000000000000000e+00  2.4667904489306369e-04 2.4429022910430116e-03 0.0000000000000000e+00  2.4676936646583682e-04 2.4528192605547008e-03 0.0000000000000000e+00  2.4685324205093144e-04 2.4629400907840862e-03 0.0000000000000000e+00  2.4692104705083875e-04 2.4731919630990697e-03 0.0000000000000000e+00  2.4696877968310023e-04 2.4835304784187160e-03 0.0000000000000000e+00  2.4699008609182306e-04 2.4939210612569735e-03 0.0000000000000000e+00  2.4697485306259925e-04 2.5043260428787802e-03 0.0000000000000000e+00  2.4691624842556876e-04 2.5146956785759502e-03 0.0000000000000000e+00  2.4683069532820709e-04 2.5249755550400196e-03 0.0000000000000000e+00  2.4674790480765422e-04 2.5353494685021001e-03 0.0000000000000000e+00  2.4661587855922992e-04 2.5459958276322025e-03 0.0000000000000000e+00  2.4680585815716074e-04 2.5574964557655245e-03 0.0000000000000000e+00  2.4681335036775415e-04 2.5687441981172687e-03 0.0000000000000000e+00  2.4688682010377252e-04 2.5801036075832188e-03 0.0000000000000000e+00  2.4704702480160740e-04 2.5915686280319214e-03 0.0000000000000000e+00  2.4717755200596677e-04 2.6030569455327409e-03 0.0000000000000000e+00  2.4729124025598602e-04 2.6146154080793770e-03 0.0000000000000000e+00  2.4739927975452438e-04 2.6262550867421249e-03 0.0000000000000000e+00  2.4750600924512245e-04 2.6379791325622059e-03 0.0000000000000000e+00  2.4761428985787561e-04 2.6497874169326319e-03 0.0000000000000000e+00  2.4772627049199196e-04 2.6616782764939907e-03 0.0000000000000000e+00  2.4784430795741504e-04 2.6736473807212995e-03 0.0000000000000000e+00  2.4797061800274162e-04 2.6856918305377350e-03 0.0000000000000000e+00  2.4810761418285840e-04 2.6978092737092855e-03 0.0000000000000000e+00  2.4825738931834443e-04 2.7099962904980745e-03 0.0000000000000000e+00  2.4842153658514987e-04 2.7222485746859182e-03 0.0000000000000000e+00  2.4860136023735605e-04 2.7345612828906804e-03 0.0000000000000000e+00  2.3003809599358356e-04 2.3363660345356971e-03 0.0000000000000000e+00  2.3085807463418554e-04 2.3456718440603703e-03 0.0000000000000000e+00  2.3168391597145970e-04 2.3549909027708029e-03 0.0000000000000000e+00  2.3249976123919513e-04 2.3643432679297193e-03 0.0000000000000000e+00  2.3328845101732099e-04 2.3737643291142541e-03 0.0000000000000000e+00  2.3403795974120975e-04 2.3833190396360653e-03 0.0000000000000000e+00  2.3475624136959052e-04 2.3930781322758173e-03 0.0000000000000000e+00  2.3544554721321328e-04 2.4029077337871015e-03 0.0000000000000000e+00  2.3603744591463915e-04 2.4130370095279698e-03 0.0000000000000000e+00  2.3654997378040867e-04 2.4231966310132281e-03 0.0000000000000000e+00  2.3673759866604108e-04 2.4330641378302680e-03 0.0000000000000000e+