<?xml version="1.0"?>
<VTKFile type="UnstructuredGrid"  version="0.1"  >
<UnstructuredGrid>
<Piece  NumberOfPoints="2404" NumberOfCells="4573">
<Points>
<DataArray  type="Float64"  NumberOfComponents="3"  format="ascii">0 0 0  0.008260869565217391 0 0  0.008260869565217391 0.008333333333333333 0  0 0.008333333333333333 0  0.01652173913043478 0 0  0.01652173913043478 0.008333333333333333 0  0.02478260869565217 0 0  0.02478260869565217 0.008333333333333333 0  0.03304347826086956 0 0  0.03304347826086956 0.008333333333333333 0  0.04130434782608695 0 0  0.04130434782608695 0.008333333333333333 0  0.04956521739130434 0 0  0.04956521739130434 0.008333333333333333 0  0.05782608695652174 0 0  0.05782608695652174 0.008333333333333333 0  0.06608695652173913 0 0  0.06608695652173913 0.008333333333333333 0  0.07434782608695652 0 0  0.07434782608695652 0.008333333333333333 0  0.08260869565217391 0 0  0.08260869565217391 0.008333333333333333 0  0.0908695652173913 0 0  0.0908695652173913 0.008333333333333333 0  0.09913043478260869 0 0  0.09913043478260869 0.008333333333333333 0  0.1073913043478261 0 0  0.1073913043478261 0.008333333333333333 0  0.1156521739130435 0 0  0.1156521739130435 0.008333333333333333 0  0.1239130434782609 0 0  0.1239130434782609 0.008333333333333333 0  0.1321739130434783 0 0  0.1321739130434783 0.008333333333333333 0  0.1404347826086956 0 0  0.1404347826086956 0.008333333333333333 0  0.148695652173913 0 0  0.148695652173913 0.008333333333333333 0  0.1569565217391304 0 0  0.1569565217391304 0.008333333333333333 0  0.1652173913043478 0 0  0.1652173913043478 0.008333333333333333 0  0.1734782608695652 0 0  0.1734782608695652 0.008333333333333333 0  0.1817391304347826 0 0  0.1817391304347826 0.008333333333333333 0  0.19 0 0  0.19 0.008333333333333333 0  0.1982608695652174 0 0  0.1982608695652174 0.008333333333333333 0  0.2065217391304348 0 0  0.2065217391304348 0.008333333333333333 0  0.2147826086956522 0 0  0.2147826086956522 0.008333333333333333 0  0.2230434782608696 0 0  0.2230434782608696 0.008333333333333333 0  0.2313043478260869 0 0  0.2313043478260869 0.008333333333333333 0  0.2395652173913043 0 0  0.2395652173913043 0.008333333333333333 0  0.2478260869565218 0 0  0.2478260869565218 0.008333333333333333 0  0.2560869565217391 0 0  0.2560869565217391 0.008333333333333333 0  0.2643478260869565 0 0  0.2643478260869565 0.008333333333333333 0  0.2726086956521739 0 0  0.2726086956521739 0.008333333333333333 0  0.2808695652173913 0 0  0.2808695652173913 0.008333333333333333 0  0.2891304347826087 0 0  0.2891304347826087 0.008333333333333333 0  0.2973913043478261 0 0  0.2973913043478261 0.008333333333333333 0  0.3056521739130434 0 0  0.3056521739130434 0.008333333333333333 0  0.008260869565217391 0.01666666666666667 0  0 0.01666666666666667 0  0.01652173913043478 0.01666666666666667 0  0.02478260869565217 0.01666666666666667 0  0.03304347826086956 0.01666666666666667 0  0.04130434782608695 0.01666666666666667 0  0.04956521739130434 0.01666666666666667 0  0.05782608695652174 0.01666666666666667 0  0.06608695652173913 0.01666666666666667 0  0.07434782608695652 0.01666666666666667 0  0.08260869565217391 0.01666666666666667 0  0.0908695652173913 0.01666666666666667 0  0.09913043478260869 0.01666666666666667 0  0.1073913043478261 0.01666666666666667 0  0.1156521739130435 0.01666666666666667 0  0.1239130434782609 0.01666666666666667 0  0.1321739130434783 0.01666666666666667 0  0.1404347826086956 0.01666666666666667 0  0.148695652173913 0.01666666666666667 0  0.1569565217391304 0.01666666666666667 0  0.1652173913043478 0.01666666666666667 0  0.1734782608695652 0.01666666666666667 0  0.1817391304347826 0.01666666666666667 0  0.19 0.01666666666666667 0  0.1982608695652174 0.01666666666666667 0  0.2065217391304348 0.01666666666666667 0  0.2147826086956522 0.01666666666666667 0  0.2230434782608696 0.01666666666666667 0  0.2313043478260869 0.01666666666666667 0  0.2395652173913043 0.01666666666666667 0  0.2478260869565218 0.01666666666666667 0  0.2560869565217391 0.01666666666666667 0  0.2643478260869565 0.01666666666666667 0  0.2726086956521739 0.01666666666666667 0  0.2808695652173913 0.01666666666666667 0  0.2891304347826087 0.01666666666666667 0  0.2973913043478261 0.01666666666666667 0  0.3056521739130434 0.01666666666666667 0  0.3139130434782609 0.01666666666666667 0  0.008260869565217391 0.025 0  0 0.025 0  0.01652173913043478 0.025 0  0.02478260869565217 0.025 0  0.03304347826086956 0.025 0  0.04130434782608695 0.025 0  0.04956521739130434 0.025 0  0.05782608695652174 0.025 0  0.06608695652173913 0.025 0  0.07434782608695652 0.025 0  0.08260869565217391 0.025 0  0.0908695652173913 0.025 0  0.09913043478260869 0.025 0  0.1073913043478261 0.025 0  0.1156521739130435 0.025 0  0.1239130434782609 0.025 0  0.1321739130434783 0.025 0  0.1404347826086956 0.025 0  0.148695652173913 0.025 0  0.1569565217391304 0.025 0  0.1652173913043478 0.025 0  0.1734782608695652 0.025 0  0.1817391304347826 0.025 0  0.19 0.025 0  0.1982608695652174 0.025 0  0.2065217391304348 0.025 0  0.2147826086956522 0.025 0  0.2230434782608696 0.025 0  0.2313043478260869 0.025 0  0.2395652173913043 0.025 0  0.2478260869565218 0.025 0  0.2560869565217391 0.025 0  0.2643478260869565 0.025 0  0.2726086956521739 0.025 0  0.2808695652173913 0.025 0  0.2891304347826087 0.025 0  0.2973913043478261 0.025 0  0.3056521739130434 0.025 0  0.3139130434782609 0.025 0  0.3221739130434783 0.01666666666666667 0  0.3221739130434783 0.025 0  0.3304347826086956 0.025 0  0.008260869565217391 0.03333333333333333 0  0 0.03333333333333333 0  0.01652173913043478 0.03333333333333333 0  0.02478260869565217 0.03333333333333333 0  0.03304347826086956 0.03333333333333333 0  0.04130434782608695 0.03333333333333333 0  0.04956521739130434 0.03333333333333333 0  0.05782608695652174 0.03333333333333333 0  0.06608695652173913 0.03333333333333333 0  0.07434782608695652 0.03333333333333333 0  0.08260869565217391 0.03333333333333333 0  0.0908695652173913 0.03333333333333333 0  0.09913043478260869 0.03333333333333333 0  0.1073913043478261 0.03333333333333333 0  0.1156521739130435 0.03333333333333333 0  0.1239130434782609 0.03333333333333333 0  0.1321739130434783 0.03333333333333333 0  0.1404347826086956 0.03333333333333333 0  0.148695652173913 0.03333333333333333 0  0.1569565217391304 0.03333333333333333 0  0.1652173913043478 0.03333333333333333 0  0.1734782608695652 0.03333333333333333 0  0.1817391304347826 0.03333333333333333 0  0.19 0.03333333333333333 0  0.1982608695652174 0.03333333333333333 0  0.2065217391304348 0.03333333333333333 0  0.2147826086956522 0.03333333333333333 0  0.2230434782608696 0.03333333333333333 0  0.2313043478260869 0.03333333333333333 0  0.2395652173913043 0.03333333333333333 0  0.2478260869565218 0.03333333333333333 0  0.2560869565217391 0.03333333333333333 0  0.2643478260869565 0.03333333333333333 0  0.2726086956521739 0.03333333333333333 0  0.2808695652173913 0.03333333333333333 0  0.2891304347826087 0.03333333333333333 0  0.2973913043478261 0.03333333333333333 0  0.3056521739130434 0.03333333333333333 0  0.3139130434782609 0.03333333333333333 0  0.3221739130434783 0.03333333333333333 0  0.3304347826086956 0.03333333333333333 0  0.338695652173913 0.025 0  0.338695652173913 0.03333333333333333 0  0.3469565217391304 0.03333333333333333 0  0.008260869565217391 0.04166666666666666 0  0 0.04166666666666666 0  0.01652173913043478 0.04166666666666666 0  0.02478260869565217 0.04166666666666666 0  0.03304347826086956 0.04166666666666666 0  0.04130434782608695 0.04166666666666666 0  0.04956521739130434 0.04166666666666666 0  0.05782608695652174 0.04166666666666666 0  0.06608695652173913 0.04166666666666666 0  0.07434782608695652 0.04166666666666666 0  0.08260869565217391 0.04166666666666666 0  0.0908695652173913 0.04166666666666666 0  0.09913043478260869 0.04166666666666666 0  0.1073913043478261 0.04166666666666666 0  0.1156521739130435 0.04166666666666666 0  0.1239130434782609 0.04166666666666666 0  0.1321739130434783 0.04166666666666666 0  0.1404347826086956 0.04166666666666666 0  0.148695652173913 0.04166666666666666 0  0.1569565217391304 0.04166666666666666 0  0.1652173913043478 0.04166666666666666 0  0.1734782608695652 0.04166666666666666 0  0.1817391304347826 0.04166666666666666 0  0.19 0.04166666666666666 0  0.1982608695652174 0.04166666666666666 0  0.2065217391304348 0.04166666666666666 0  0.2147826086956522 0.04166666666666666 0  0.2230434782608696 0.04166666666666666 0  0.2313043478260869 0.04166666666666666 0  0.2395652173913043 0.04166666666666666 0  0.2478260869565218 0.04166666666666666 0  0.2560869565217391 0.04166666666666666 0  0.2643478260869565 0.04166666666666666 0  0.2726086956521739 0.04166666666666666 0  0.2808695652173913 0.04166666666666666 0  0.2891304347826087 0.04166666666666666 0  0.2973913043478261 0.04166666666666666 0  0.3056521739130434 0.04166666666666666 0  0.3139130434782609 0.04166666666666666 0  0.3221739130434783 0.04166666666666666 0  0.3304347826086956 0.04166666666666666 0  0.338695652173913 0.04166666666666666 0  0.3469565217391304 0.04166666666666666 0  0.3552173913043478 0.03333333333333333 0  0.3552173913043478 0.04166666666666666 0  0.3634782608695652 0.04166666666666666 0  0.008260869565217391 0.05 0  0 0.05 0  0.01652173913043478 0.05 0  0.02478260869565217 0.05 0  0.03304347826086956 0.05 0  0.04130434782608695 0.05 0  0.04956521739130434 0.05 0  0.05782608695652174 0.05 0  0.06608695652173913 0.05 0  0.07434782608695652 0.05 0  0.08260869565217391 0.05 0  0.0908695652173913 0.05 0  0.09913043478260869 0.05 0  0.1073913043478261 0.05 0  0.1156521739130435 0.05 0  0.1239130434782609 0.05 0  0.1321739130434783 0.05 0  0.1404347826086956 0.05 0  0.148695652173913 0.05 0  0.1569565217391304 0.05 0  0.1652173913043478 0.05 0  0.1734782608695652 0.05 0  0.1817391304347826 0.05 0  0.19 0.05 0  0.1982608695652174 0.05 0  0.2065217391304348 0.05 0  0.2147826086956522 0.05 0  0.2230434782608696 0.05 0  0.2313043478260869 0.05 0  
[...]
<PointData  Vectors="Displacement"> 
<DataArray  type="Float64"  Name="Displacement"  NumberOfComponents="3" format="ascii">0.0000000000000000e+00 0.0000000000000000e+00 0.0000000000000000e+00  3.9141360503464285e-06 2.1442463058785763e-06 0.0000000000000000e+00  2.7016418886062749e-06 1.1658697346892617e-06 0.0000000000000000e+00  0.0000000000000000e+00 0.0000000000000000e+00 0.0000000000000000e+00  7.3780850636640385e-06 3.8502775692985957e-06 0.0000000000000000e+00  5.6438760193117765e-06 2.8261867911256105e-06 0.0000000000000000e+00  1.0749124960909223e-05 5.8587524806482056e-06 0.0000000000000000e+00  8.5226114948400127e-06 4.8364375623153441e-06 0.0000000000000000e+00  1.4094112739863302e-05 8.3328382611508793e-06 0.0000000000000000e+00  1.1346115709889227e-05 7.3156586436859926e-06 0.0000000000000000e+00  1.7426404425467767e-05 1.1333763223164796e-05 0.0000000000000000e+00  1.4129727151501529e-05 1.0322338198596460e-05 0.0000000000000000e+00  2.0748383968253340e-05 1.4888799111893860e-05 0.0000000000000000e+00  1.6883428610777482e-05 1.3882972223122242e-05 0.0000000000000000e+00  2.4062176852656842e-05 1.9011948143090910e-05 0.0000000000000000e+00  1.9614317550839830e-05 1.8010736361857237e-05 0.0000000000000000e+00  2.7371935702516066e-05 2.3713363752115805e-05 0.0000000000000000e+00  2.2328317777612781e-05 2.2715148036284415e-05 0.0000000000000000e+00  3.0683405141490232e-05 2.9004110572868870e-05 0.0000000000000000e+00  2.5030626405262238e-05 2.8007006804136737e-05 0.0000000000000000e+00  3.4002442933707843e-05 3.4898689806380883e-05 0.0000000000000000e+00  2.7725214480154892e-05 3.3901148747910005e-05 0.0000000000000000e+00  3.7333467764145651e-05 4.1415410368966627e-05 0.0000000000000000e+00  3.0414084940294494e-05 4.0416807304019154e-05 0.0000000000000000e+00  4.0680317294001732e-05 4.8572923793740426e-05 0.0000000000000000e+00  3.3098666711779704e-05 4.7572578875599790e-05 0.0000000000000000e+00  4.4047577227211999e-05 5.6391219483354596e-05 0.0000000000000000e+00  3.5780712478642192e-05 5.5387940789609034e-05 0.0000000000000000e+00  4.7440355333575165e-05 6.4894609287453531e-05 0.0000000000000000e+00  3.8461876699005171e-05 6.3887013678652158e-05 0.0000000000000000e+00  5.0861202726986856e-05 7.4115426248859970e-05 0.0000000000000000e+00  4.1140957286641838e-05 7.3103840433427856e-05 0.0000000000000000e+00  5.4311117271814942e-05 8.4086285077417382e-05 0.0000000000000000e+00  4.3816073784192191e-05 8.3070789387985685e-05 0.0000000000000000e+00  5.7790638613010693e-05 9.4842679739263111e-05 0.0000000000000000e+00  4.6485300185360503e-05 9.3822729427791047e-05 0.0000000000000000e+00  6.1294199617008036e-05 1.0643149637710794e-04 0.0000000000000000e+00  4.9141399036705753e-05 1.0540976341802714e-04 0.0000000000000000e+00  6.4811527287695074e-05 1.1889478170856632e-04 0.0000000000000000e+00  5.1776451013658854e-05 1.1787339691372007e-04 0.0000000000000000e+00  6.8328262638929716e-05 1.3227307899706751e-04 0.0000000000000000e+00  5.4382731811659200e-05 1.3125353623725500e-04 0.0000000000000000e+00  7.1810945657503928e-05 1.4662028264888382e-04 0.0000000000000000e+00  5.6939272608588987e-05 1.4561362109409882e-04 0.0000000000000000e+00  7.5215245836286485e-05 1.6195054292746168e-04 0.0000000000000000e+00  5.9427631013309251e-05 1.6096568178512898e-04 0.0000000000000000e+00  7.8485472826864513e-05 1.7825559865585782e-04 0.0000000000000000e+00  6.1826548669649618e-05 1.7730553498881299e-04 0.0000000000000000e+00  8.1546127825117673e-05 1.9549536644079737e-04 0.0000000000000000e+00  6.4103050511331682e-05 1.9460292278993181e-04 0.0000000000000000e+00  8.4324667894630160e-05 2.1354011702042459e-04 0.0000000000000000e+00  6.6235571655110014e-05 2.1272212883419867e-04 0.0000000000000000e+00  8.6761190991544511e-05 2.3220661402932811e-04 0.0000000000000000e+00  6.8206933143525534e-05 2.3148043789144028e-04 0.0000000000000000e+00  8.8815222116656430e-05 2.5126635145966746e-04 0.0000000000000000e+00  6.9997729856876922e-05 2.5064666053370069e-04 0.0000000000000000e+00  9.0491422710709817e-05 2.7045247435953464e-04 0.0000000000000000e+00  7.1606137402696946e-05 2.6993333845790838e-04 0.0000000000000000e+00  9.1836506031437422e-05 2.8954339242334216e-04 0.0000000000000000e+00  7.3048052376942013e-05 2.8910595115321300e-04 0.0000000000000000e+00  9.2900457908246594e-05 3.0840828040608765e-04 0.0000000000000000e+00  7.4335579500618931e-05 3.0804182149289530e-04 0.0000000000000000e+00  9.3716968314452108e-05 3.2695905149174315e-04 0.0000000000000000e+00  7.5471103888533406e-05 3.2666127552452914e-04 0.0000000000000000e+00  9.4315026493957629e-05 3.4511327115851749e-04 0.0000000000000000e+00  7.6456493825337584e-05 3.4487959104823870e-04 0.0000000000000000e+00  9.4737049067765067e-05 3.6279738971195687e-04 0.0000000000000000e+00  7.7307892159288852e-05 3.6261319531241275e-04 0.0000000000000000e+00  9.5035911483553023e-05 3.7997828626047604e-04 0.0000000000000000e+00  7.8053899702485384e-05 3.7982484644150035e-04 0.0000000000000000e+00  9.5245622376589353e-05 3.9668446126240106e-04 0.0000000000000000e+00  7.8709939408496936e-05 3.9655624520317922e-04 0.0000000000000000e+00  9.5376339482043391e-05 4.1294676843223118e-04 0.0000000000000000e+00  7.9279545396115990e-05 4.1284534101927977e-04 0.0000000000000000e+00  9.5430296126401679e-05 4.2877468971965838e-04 0.0000000000000000e+00  7.9764997211739851e-05 4.2870074799211769e-04 0.0000000000000000e+00  2.0074851977817930e-06 6.7431222705706020e-07 0.0000000000000000e+00  0.0000000000000000e+00 0.0000000000000000e+00 0.0000000000000000e+00  4.2082926232835469e-06 2.0653793478231313e-06 0.0000000000000000e+00  6.4681414085035757e-06 4.0157382454948045e-06 0.0000000000000000e+00  8.7062189451574831e-06 6.4889199568144923e-06 0.0000000000000000e+00  1.0907453804037897e-05 9.5035289385636931e-06 0.0000000000000000e+00  1.3072562001063027e-05 1.3074840782514514e-05 0.0000000000000000e+00  1.5205919965585186e-05 1.7212196143062178e-05 0.0000000000000000e+00  1.7312506362539738e-05 2.1923818690537536e-05 0.0000000000000000e+00  1.9396713750310979e-05 2.7220380574309463e-05 0.0000000000000000e+00  2.1460817431724974e-05 3.3117991315016824e-05 0.0000000000000000e+00  2.3503298896989009e-05 3.9638618369866911e-05 0.0000000000000000e+00  2.5522316602008991e-05 4.6799877301436945e-05 0.0000000000000000e+00  2.7517562845382614e-05 5.4619381166422237e-05 0.0000000000000000e+00  2.9489263450225053e-05 6.3120351855211720e-05 0.0000000000000000e+00  3.1432152080317970e-05 7.2341958959902105e-05 0.0000000000000000e+00  3.3342183524412681e-05 8.2313498753596917e-05 0.0000000000000000e+00  3.5218573147892076e-05 9.3066091683459347e-05 0.0000000000000000e+00  3.7051182367263653e-05 1.0465884455052196e-04 0.0000000000000000e+00  3.8835362683363814e-05 1.1712560865055315e-04 0.0000000000000000e+00  4.0576730830614192e-05 1.3049881751670681e-04 0.0000000000000000e+00  4.2258214482445192e-05 1.4486861003744163e-04 0.0000000000000000e+00  4.3884437822905706e-05 1.6022426998599630e-04 0.0000000000000000e+00  4.5469536027021693e-05 1.7656955910889325e-04 0.0000000000000000e+00  4.7005876369431229e-05 1.9390201037179454e-04 0.0000000000000000e+00  4.8516265414416967e-05 2.1205494603861616e-04 0.0000000000000000e+00  5.0034483077773857e-05 2.3085841136441369e-04 0.0000000000000000e+00  5.1565347545542596e-05 2.5009930404017150e-04 0.0000000000000000e+00  5.3098908521787592e-05 2.6944821579547886e-04 0.0000000000000000e+00  5.4623141571227447e-05 2.8864780857759740e-04 0.0000000000000000e+00  5.6116169894088784e-05 3.0760729042636069e-04 0.0000000000000000e+00  5.7552658898663082e-05 3.2627188363598718e-04 0.0000000000000000e+00  5.8899875291379232e-05 3.4454999650230866e-04 0.0000000000000000e+00  6.0142537476546811e-05 3.6232448301986176e-04 0.0000000000000000e+00  6.1301265956346384e-05 3.7954291909417785e-04 0.0000000000000000e+00  6.2381336644710112e-05 3.9628742365191015e-04 0.0000000000000000e+00  6.3373347871224615e-05 4.1260670405141790e-04 0.0000000000000000e+00  6.4269765323035310e-05 4.2850027797079244e-04 0.0000000000000000e+00  6.5078011644026417e-05 4.4394084995429914e-04 0.0000000000000000e+00  1.4200047218483476e-06 3.9224205777494041e-07 0.0000000000000000e+00  0.0000000000000000e+00 0.0000000000000000e+00 0.0000000000000000e+00  2.9619316889138521e-06 1.5818025770860841e-06 0.0000000000000000e+00  4.5682410163859669e-06 3.4332983945477344e-06 0.0000000000000000e+00  6.1834920033814758e-06 5.8780461000083782e-06 0.0000000000000000e+00  7.7762981528148335e-06 8.8934472014503935e-06 0.0000000000000000e+00  9.3356810231098870e-06 1.2475429810947667e-05 0.0000000000000000e+00  1.0860057934116761e-05 1.6624540675488175e-05 0.0000000000000000e+00  1.2351790290259717e-05 2.1345336404604507e-05 0.0000000000000000e+00  1.3814329420162044e-05 2.6647556202019271e-05 0.0000000000000000e+00  1.5248232632927250e-05 3.2549992157935964e-05 0.0000000000000000e+00  1.6646526031290873e-05 3.9081002182534034e-05 0.0000000000000000e+00  1.8003214053832382e-05 4.6254533249765065e-05 0.0000000000000000e+00  1.9317176635845448e-05 5.4083493558495272e-05 0.0000000000000000e+00  2.0589382862413643e-05 6.2589071965046139e-05 0.0000000000000000e+00  2.1807551670959233e-05 7.1823551625927899e-05 0.0000000000000000e+00  2.2965690340249613e-05 8.1805896309345043e-05 0.0000000000000000e+00  2.4068924448447369e-05 9.2558688252369393e-05 0.0000000000000000e+00  2.5097409457990446e-05 1.0416668072198080e-04 0.0000000000000000e+00  2.6045328655585957e-05 1.1663838015619758e-04 0.0000000000000000e+00  2.6939473114060723e-05 1.2998747962281924e-04 0.0000000000000000e+00  2.7747377527434394e-05 1.4437735255844606e-04 0.0000000000000000e+00  2.8490132660523727e-05 1.5972094941540081e-04 0.0000000000000000e+00  2.9221712502576640e-05 1.7603870578022094e-04 0.0000000000000000e+00  2.9957017966409567e-05 1.9340459414738341e-04 0.0000000000000000e+00  3.0766966978302033e-05 2.1155294428839343e-04 0.0000000000000000e+00  3.1753681346765905e-05 2.3032888368044053e-04 0.0000000000000000e+00  3.3017334481149279e-05 2.4959446801053463e-04 0.0000000000000000e+00  3.4574272705251316e-05 2.6897601591280616e-04 0.0000000000000000e+00  3.6286586119639352e-05 2.8815906018228647e-04 0.0000000000000000e+00  3.8032581883284304e-05 3.0709798838605501e-04 0.0000000000000000e+00  3.9786201400634744e-05 3.2577485188175478e-04 0.0000000000000000e+00  4.1546168941042089e-05 3.4412687110797876e-04 0.0000000000000000e+00  4.3217718409044042e-05 3.6195610723094995e-04 0.0000000000000000e+00  4.4787834696789846e-05 3.7914807075276383e-04 0.0000000000000000e+00  4.6273526776222797e-05 3.9588552494060889e-04 0.0000000000000000e+00  4.7670438216056489e-05 4.1223834457458159e-04 0.0000000000000000e+00  4.8963870391591380e-05 4.2818872057711417e-04 0.0000000000000000e+00  5.0152754786522871e-05 4.4366952629949167e-04 0.0000000000000000e+00  6.5816607173091083e-05 4.5891932270054263e-04 0.0000000000000000e+00  5.1263517983614592e-05 4.5865739194795463e-04 0.0000000000000000e+00  5.2298635362552155e-05 4.7323366378605443e-04 0.0000000000000000e+00  8.6872024276282378e-07 2.4006785112444538e-07 0.0000000000000000e+00  0.0000000000000000e+00 0.0000000000000000e+00 0.0000000000000000e+00  1.8005002741230564e-06 1.3056475411380001e-06 0.0000000000000000e+00  2.7745274941519864e-06 3.0784962649272172e-06 0.0000000000000000e+00  3.7616909515980127e-06 5.4889239842054773e-06 0.0000000000000000e+00  4.7362130560570557e-06 8.5000539801089298e-06 0.0000000000000000e+00  5.6821478615474891e-06 1.2091689951225557e-05 0.0000000000000000e+00  6.5928508890227751e-06 1.6253090370305496e-05 0.0000000000000000e+00  7.4679417474900848e-06 2.0982613649768806e-05 0.0000000000000000e+00  8.3111424524335608e-06 2.6287457568526404e-05 0.0000000000000000e+00  9.1224668374743852e-06 3.2192015154685815e-05 0.0000000000000000e+00  9.8859522449585930e-06 3.8739525445594976e-05 0.0000000000000000e+00  1.0589406871917542e-05 4.5932820537882025e-05 0.0000000000000000e+00  1.1232822272004858e-05 5.3773968883512945e-05 0.0000000000000000e+00  1.1823755979624632e-05 6.2280887768928229e-05 0.0000000000000000e+00  1.2335465487166227e-05 7.1540616933578709e-05 0.0000000000000000e+00  1.2756196129831120e-05 8.1539889765856215e-05 0.0000000000000000e+00  1.3107987877719218e-05 9.2281660275147755e-05 0.0000000000000000e+00  1.3353605982317369e-05 1.0392775735871994e-04 0.0000000000000000e+00  1.3472812416278725e-05 1.1641893724882213e-04 0.0000000000000000e+00  1.3513099640865199e-05 1.2970900101132168e-04 0.0000000000000000e+00  1.3416191819869433e-05 1.4417400479059986e-04 0.0000000000000000e+00  1.3204838155752615e-05 1.5951574959116149e-04 0.0000000000000000e+00  1.2940985484530443e-05 1.7577059853194656e-04 0.0000000000000000e+00  1.2681189269461331e-05 1.9318558152236196e-04 0.0000000000000000e+00  1.2666565971168273e-05 2.1130126775665168e-04 0.0000000000000000e+00  1.2951418157768814e-05 2.2992644475338257e-04 0.0000000000000000e+00  1.3765311780769902e-05 2.4908498293208897e-04 0.0000000000000000e+00  1.5617321942984285e-05 2.6841089179227784e-04 0.0000000000000000e+00  1.8037516018973259e-05 2.8763529135083073e-04 0.0000000000000000e+00  2.0013799921870370e-05 3.0651941435321894e-04 0.0000000000000000e+00  2.1990286585362542e-05 3.2513842203619618e-04 0.0000000000000000e+00  2.4178939535981270e-05 3.4348847593213976e-04 0.0000000000000000e+00  2.6610871899988868e-05 3.6152556561104055e-04 0.0000000000000000e+00  2.8585136334197880e-05 3.7865294015889284e-04 0.0000000000000000e+00  3.0420362348065307e-05 3.9536265465723051e-04 0.0000000000000000e+00  3.2163238883027925e-05 4.1173754718099628e-04 0.0000000000000000e+00  3.3855643081834332e-05 4.2777286254125748e-04 0.0000000000000000e+00  3.5435722080868882e-05 4.4331663167674538e-04 0.0000000000000000e+00  3.6910043089456317e-05 4.5829331004240665e-04 0.0000000000000000e+00  3.8295868940706883e-05 4.7289032453964674e-04 0.0000000000000000e+00  5.3243542111775736e-05 4.8743301398180644e-04 0.0000000000000000e+00  3.9567039680326451e-05 4.8715286918450641e-04 0.0000000000000000e+00  4.0711284592832770e-05 5.0101773913807819e-04 0.0000000000000000e+00  3.3367685931340928e-07 1.8761424270751712e-07 0.0000000000000000e+00  0.0000000000000000e+00 0.0000000000000000e+00 0.0000000000000000e+00  6.8042325000628862e-07 1.1978300922795042e-06 0.0000000000000000e+00  1.0438837618297663e-06 2.9251828580558333e-06 0.0000000000000000e+00  1.4146099348783924e-06 5.3114121908557320e-06 0.0000000000000000e+00  1.7758038787681262e-06 8.3205875654610478e-06 0.0000000000000000e+00  2.1122273965705988e-06 1.1923648720746464e-05 0.0000000000000000e+00  2.4142179268533308e-06 1.6098776658699779e-05 0.0000000000000000e+00  2.6782034467243843e-06 2.0835590109429088e-05 0.0000000000000000e+00  2.9102362703116549e-06 2.6134464696991672e-05 0.0000000000000000e+00  3.1139179153570246e-06 3.2030954017270412e-05 0.0000000000000000e+00  3.2594345156443782e-06 3.8604410115505702e-05 0.0000000000000000e+00  3.3261104590565692e-06 4.5829442831228776e-05 0.0000000000000000e+00  3.3133726107137043e-06 5.3682656395525883e-05 0.0000000000000000e+00  3.2476226686292194e-06 6.2171911627213928e-05 0.0000000000000000e+00  3.0815687262734702e-06 7.1481400480411436e-05 0.0000000000000000e+00  2.7901324676237973e-06 8.1513526256134526e-05 0.0000000000000000e+00  2.4102260641894520e-06 9.2204394216698361e-05 0.0000000000000000e+00  1.8926046888231671e-06 1.0392078517576792e-04 0.0000000000000000e+00  1.2442410019214061e-06 1.1647493001270070e-04 0.0000000000000000e+00  4.8011535683850574e-07 1.2964142878711188e-04 0.0000000000000000e+00  -5.8588284931584261e-07 1.4418880422810139e-04 0.0000000000000000e+00  -1.4344231555237878e-06 1.5947493895230314e-04 0.0000000000000000e+00  -2.3622783655590985e-06 1.7564076354887679e-04 0.0000000000000000e+00  -4.1588964143046261e-06 1.9316846647526710e-04 0.0000000000000000e+00  -5.5072509446049515e-06 2.1129422054083104e-04 0.0000000000000000e+00  -5.2869060249526181e-06 2.2979030573534658e-04 0.0000000000000000e+00  -5.5704723139239981e-07 2.4810317365965480e-04 0.0000000000000000e+00  2.3558312203234015e-06 2.6666125428853892e-04 0.0000000000000000e+00  4.1243892179696867e-06 2.8554929298862312e-04 0.0000000000000000e+00  4.5462526617196334e-06 3.0481098832553017e-04 0.0000000000000000e+00  3.2261790053324118e-06 3.2447773632647868e-04 0.0000000000000000e+00  6.4842346867373646e-06 3.4274517366927301e-04 0.0000000000000000e+00  9.5733578410902331e-06 3.6068773960572551e-04 0.0000000000000000e+00  1.3031307005444585e-05 3.7815055019539749e-04 0.0000000000000000e+00  1.4938461259306419e-05 3.9480665257853596e-04 0.0000000000000000e+00  1.6771118992107135e-05 4.1112195759243555e-04 0.0000000000000000e+00  1.8804929276331519e-05 4.2717340876706976e-04 0.0000000000000000e+00  2.1032988816004745e-05 4.4291558012095290e-04 0.0000000000000000e+00  2.2836055179906576e-05 4.5783624529208600e-04 0.0000000000000000e+00  2.4521413063664661e-05 4.7243379278203167e-04 0.0000000000000000e+00  2.6119284356483982e-05 4.8679542004371757e-04 0.0000000000000000e+00  2.7571917184880092e-05 5.0075371293399596e-04 0.0000000000000000e+00  4.1743118863273916e-05 5.1446430385909572e-04 0.0000000000000000e+00  2.8860762372543053e-05 5.1423796996178566e-04 0.0000000000000000e+00  2.9994196359518964e-05 5.2737476372532207e-04 0.0000000000000000e+00  -1.9355240391434344e-07 2.2647512512385305e-07 0.0000000000000000e+00  0.0000000000000000e+00 0.0000000000000000e+00 0.0000000000000000e+00  -4.2006122910362223e-07 1.2416885115522344e-06 0.0000000000000000e+00  -6.5263531869677079e-07 2.9541279301909501e-06 0.0000000000000000e+00  -8.8437535470049245e-07 5.3297276665594129e-06 0.0000000000000000e+00  -1.1237123498511270e-06 8.3439852819476837e-06 0.0000000000000000e+00  -1.3823727689552414e-06 1.1963334762378685e-05 0.0000000000000000e+00  -1.6716059694508218e-06 1.6156277041759931e-05 0.0000000000000000e+00  -2.0012762135303394e-06 2.0901972620157694e-05 0.0000000000000000e+00  -2.3656342859336548e-06 2.6180376665734803e-05 0.0000000000000000e+00  -2.7511827053597220e-06 3.2043969671002122e-05 0.0000000000000000e+00  -3.2050497793132811e-06 3.8658690891113669e-05 0.0000000000000000e+00  -3.7472984742962158e-06 4.5935140360456039e-05 0.0000000000000000e+00  -4.3850433373205498e-06 5.3807898252631335e-05 0.0000000000000000e+00  -5.0867130902797680e-06 6.2225162548310649e-05 0.0000000000000000e+00  -5.9133916281865536e-06 7.1615130233448860e-05 0.0000000000000000e+00  -6.8367646489038299e-06 8.1719279051538612e-05 0.0000000000000000e+00  -7.8660449385963662e-06 9.2306958467994351e-05 0.0000000000000000e+00  -9.2304053761184268e-06 1.0407109829633976e-04 0.0000000000000000e+00  -1.0435926256600209e-05 1.1661406758531864e-04 0.0000000000000000e+00  -1.1328270708422191e-05 1.2961188289559254e-04 0.0000000000000000e+00  -1.3738417644913066e-05 1.4433321113400412e-04 0.0000000000000000e+00  -1.6147535015156035e-05 1.5967995934411511e-04 0.0000000000000000e+00  -1.3213026736057074e-05 1.7688025475617788e-04 0.0000000000000000e+00  -1.2079148004401494e-05 1.9400975745366411e-04 0.0000000000000000e+00  -1.1323741347853824e-05 2.1135360710147058e-04 0.0000000000000000e+00  -1.0209265051816432e-05 2.2877877344923842e-04 0.0000000000000000e+00  -8.4094298706477571e-06 2.4607740464252628e-04 0.0000000000000000e+00  -6.5572772656872672e-06 2.6455053460096279e-04 0.0000000000000000e+00  -5.1086336547135439e-06 2.8333556124044508e-04 0.0000000000000000e+00  -4.0355046747569387e-06 3.0234710375338448e-04 0.0000000000000000e+00  -3.0497259157199360e-06 3.2128809858585441e-04 0.0000000000000000e+00  -1.5294171504801555e-06 3.3875018564963945e-04 0.0000000000000000e+00  1.5327805743979870e-07 3.5650628450977726e-04 0.0000000000000000e+00  1.4475492716974448e-06 3.7411896823076672e-04 0.0000000000000000e+00  1.6834238855338906e-06 3.9205725689037856e-04 0.0000000000000000e+00  3.7178346093509035e-07 4.10