<?xml version="1.0"?>
<VTKFile type="UnstructuredGrid"  version="0.1"  >
<UnstructuredGrid>
<Piece  NumberOfPoints="2353" NumberOfCells="4499">
<Points>
<DataArray  type="Float64"  NumberOfComponents="3"  format="ascii">0.9252173913043478 0.2333333333333333 0  0.9334782608695652 0.2333333333333333 0  0.9334782608695652 0.2416666666666667 0  0.9417391304347826 0.2333333333333333 0  0.9417391304347826 0.2416666666666667 0  0.95 0.2333333333333333 0  0.95 0.2416666666666667 0  0.9582608695652173 0.2333333333333333 0  0.9582608695652173 0.2416666666666667 0  0.9665217391304347 0.2333333333333333 0  0.9665217391304347 0.2416666666666667 0  0.9747826086956521 0.2333333333333333 0  0.9747826086956521 0.2416666666666667 0  0.9830434782608696 0.2333333333333333 0  0.9830434782608696 0.2416666666666667 0  0.991304347826087 0.2333333333333333 0  0.991304347826087 0.2416666666666667 0  0.9995652173913042 0.2333333333333333 0  0.9995652173913042 0.2416666666666667 0  1.007826086956522 0.2333333333333333 0  1.007826086956522 0.2416666666666667 0  1.016086956521739 0.2333333333333333 0  1.016086956521739 0.2416666666666667 0  1.024347826086957 0.2333333333333333 0  1.024347826086957 0.2416666666666667 0  1.032608695652174 0.2333333333333333 0  1.032608695652174 0.2416666666666667 0  1.040869565217391 0.2333333333333333 0  1.040869565217391 0.2416666666666667 0  1.049130434782609 0.2333333333333333 0  1.049130434782609 0.2416666666666667 0  1.057391304347826 0.2333333333333333 0  1.057391304347826 0.2416666666666667 0  1.065652173913043 0.2333333333333333 0  1.065652173913043 0.2416666666666667 0  1.073913043478261 0.2333333333333333 0  1.073913043478261 0.2416666666666667 0  1.082173913043478 0.2333333333333333 0  1.082173913043478 0.2416666666666667 0  1.090434782608696 0.2333333333333333 0  1.090434782608696 0.2416666666666667 0  1.098695652173913 0.2333333333333333 0  1.098695652173913 0.2416666666666667 0  1.10695652173913 0.2333333333333333 0  1.10695652173913 0.2416666666666667 0  1.115217391304348 0.2333333333333333 0  1.115217391304348 0.2416666666666667 0  1.123478260869565 0.2333333333333333 0  1.123478260869565 0.2416666666666667 0  1.131739130434783 0.2333333333333333 0  1.131739130434783 0.2416666666666667 0  1.14 0.2333333333333333 0  1.14 0.2416666666666667 0  1.148260869565217 0.2333333333333333 0  1.148260869565217 0.2416666666666667 0  1.156521739130435 0.2333333333333333 0  1.156521739130435 0.2416666666666667 0  1.164782608695652 0.2333333333333333 0  1.164782608695652 0.2416666666666667 0  1.17304347826087 0.2333333333333333 0  1.17304347826087 0.2416666666666667 0  1.181304347826087 0.2333333333333333 0  1.181304347826087 0.2416666666666667 0  1.189565217391304 0.2333333333333333 0  1.189565217391304 0.2416666666666667 0  1.197826086956522 0.2333333333333333 0  1.197826086956522 0.2416666666666667 0  1.206086956521739 0.2333333333333333 0  1.206086956521739 0.2416666666666667 0  1.214347826086956 0.2333333333333333 0  1.214347826086956 0.2416666666666667 0  1.222608695652174 0.2333333333333333 0  1.222608695652174 0.2416666666666667 0  1.230869565217391 0.2333333333333333 0  1.230869565217391 0.2416666666666667 0  1.239130434782609 0.2333333333333333 0  1.239130434782609 0.2416666666666667 0  1.247391304347826 0.2333333333333333 0  1.247391304347826 0.2416666666666667 0  1.255652173913044 0.2333333333333333 0  1.255652173913044 0.2416666666666667 0  1.263913043478261 0.2333333333333333 0  1.263913043478261 0.2416666666666667 0  1.272173913043478 0.2333333333333333 0  1.272173913043478 0.2416666666666667 0  1.280434782608696 0.2333333333333333 0  1.280434782608696 0.2416666666666667 0  1.288695652173913 0.2333333333333333 0  1.288695652173913 0.2416666666666667 0  1.296956521739131 0.2333333333333333 0  1.296956521739131 0.2416666666666667 0  1.305217391304348 0.2333333333333333 0  1.305217391304348 0.2416666666666667 0  1.313478260869565 0.2333333333333333 0  1.313478260869565 0.2416666666666667 0  1.321739130434783 0.2333333333333333 0  1.321739130434783 0.2416666666666667 0  1.33 0.2333333333333333 0  1.33 0.2416666666666667 0  1.338260869565217 0.2333333333333333 0  1.338260869565217 0.2416666666666667 0  1.346521739130435 0.2333333333333333 0  1.346521739130435 0.2416666666666667 0  1.354782608695652 0.2333333333333333 0  1.354782608695652 0.2416666666666667 0  1.36304347826087 0.2333333333333333 0  1.36304347826087 0.2416666666666667 0  1.371304347826087 0.2333333333333333 0  1.371304347826087 0.2416666666666667 0  1.379565217391304 0.2333333333333333 0  1.379565217391304 0.2416666666666667 0  1.387826086956522 0.2333333333333333 0  1.387826086956522 0.2416666666666667 0  1.396086956521739 0.2333333333333333 0  1.396086956521739 0.2416666666666667 0  1.404347826086957 0.2333333333333333 0  1.404347826086957 0.2416666666666667 0  1.412608695652174 0.2333333333333333 0  1.412608695652174 0.2416666666666667 0  1.420869565217391 0.2333333333333333 0  1.420869565217391 0.2416666666666667 0  1.429130434782609 0.2333333333333333 0  1.429130434782609 0.2416666666666667 0  1.437391304347826 0.2333333333333333 0  1.437391304347826 0.2416666666666667 0  1.445652173913043 0.2333333333333333 0  1.445652173913043 0.2416666666666667 0  1.453913043478261 0.2333333333333333 0  1.453913043478261 0.2416666666666667 0  1.462173913043478 0.2333333333333333 0  1.462173913043478 0.2416666666666667 0  1.470434782608696 0.2333333333333333 0  1.470434782608696 0.2416666666666667 0  1.478695652173913 0.2333333333333333 0  1.478695652173913 0.2416666666666667 0  1.486956521739131 0.2333333333333333 0  1.486956521739131 0.2416666666666667 0  1.495217391304348 0.2333333333333333 0  1.495217391304348 0.2416666666666667 0  1.503478260869565 0.2333333333333333 0  1.503478260869565 0.2416666666666667 0  1.511739130434782 0.2333333333333333 0  1.511739130434782 0.2416666666666667 0  1.52 0.2333333333333333 0  1.52 0.2416666666666667 0  1.528260869565217 0.2333333333333333 0  1.528260869565217 0.2416666666666667 0  1.536521739130435 0.2333333333333333 0  1.536521739130435 0.2416666666666667 0  1.544782608695652 0.2333333333333333 0  1.544782608695652 0.2416666666666667 0  1.55304347826087 0.2416666666666667 0  0.9417391304347826 0.25 0  0.95 0.25 0  0.9582608695652173 0.25 0  0.9665217391304347 0.25 0  0.9747826086956521 0.25 0  0.9830434782608696 0.25 0  0.991304347826087 0.25 0  0.9995652173913042 0.25 0  1.007826086956522 0.25 0  1.016086956521739 0.25 0  1.024347826086957 0.25 0  1.032608695652174 0.25 0  1.040869565217391 0.25 0  1.049130434782609 0.25 0  1.057391304347826 0.25 0  1.065652173913043 0.25 0  1.073913043478261 0.25 0  1.082173913043478 0.25 0  1.090434782608696 0.25 0  1.098695652173913 0.25 0  1.10695652173913 0.25 0  1.115217391304348 0.25 0  1.123478260869565 0.25 0  1.131739130434783 0.25 0  1.14 0.25 0  1.148260869565217 0.25 0  1.156521739130435 0.25 0  1.164782608695652 0.25 0  1.17304347826087 0.25 0  1.181304347826087 0.25 0  1.189565217391304 0.25 0  1.197826086956522 0.25 0  1.206086956521739 0.25 0  1.214347826086956 0.25 0  1.222608695652174 0.25 0  1.230869565217391 0.25 0  1.239130434782609 0.25 0  1.247391304347826 0.25 0  1.255652173913044 0.25 0  1.263913043478261 0.25 0  1.272173913043478 0.25 0  1.280434782608696 0.25 0  1.288695652173913 0.25 0  1.296956521739131 0.25 0  1.305217391304348 0.25 0  1.313478260869565 0.25 0  1.321739130434783 0.25 0  1.33 0.25 0  1.338260869565217 0.25 0  1.346521739130435 0.25 0  1.354782608695652 0.25 0  1.36304347826087 0.25 0  1.371304347826087 0.25 0  1.379565217391304 0.25 0  1.387826086956522 0.25 0  1.396086956521739 0.25 0  1.404347826086957 0.25 0  1.412608695652174 0.25 0  1.420869565217391 0.25 0  1.429130434782609 0.25 0  1.437391304347826 0.25 0  1.445652173913043 0.25 0  1.453913043478261 0.25 0  1.462173913043478 0.25 0  1.470434782608696 0.25 0  1.478695652173913 0.25 0  1.486956521739131 0.25 0  1.495217391304348 0.25 0  1.503478260869565 0.25 0  1.511739130434782 0.25 0  1.52 0.25 0  1.528260869565217 0.25 0  1.536521739130435 0.25 0  1.544782608695652 0.25 0  1.55304347826087 0.25 0  1.561304347826087 0.2416666666666667 0  1.561304347826087 0.25 0  1.569565217391304 0.2416666666666667 0  1.569565217391304 0.25 0  1.577826086956522 0.2416666666666667 0  1.577826086956522 0.25 0  1.586086956521739 0.25 0  0.95 0.2583333333333334 0  0.9582608695652173 0.2583333333333334 0  0.9665217391304347 0.2583333333333334 0  0.9747826086956521 0.2583333333333334 0  0.9830434782608696 0.2583333333333334 0  0.991304347826087 0.2583333333333334 0  0.9995652173913042 0.2583333333333334 0  1.007826086956522 0.2583333333333334 0  1.016086956521739 0.2583333333333334 0  1.024347826086957 0.2583333333333334 0  1.032608695652174 0.2583333333333334 0  1.040869565217391 0.2583333333333334 0  1.049130434782609 0.2583333333333334 0  1.057391304347826 0.2583333333333334 0  1.065652173913043 0.2583333333333334 0  1.073913043478261 0.2583333333333334 0  1.082173913043478 0.2583333333333334 0  1.090434782608696 0.2583333333333334 0  1.098695652173913 0.2583333333333334 0  1.10695652173913 0.2583333333333334 0  1.115217391304348 0.2583333333333334 0  1.123478260869565 0.2583333333333334 0  1.131739130434783 0.2583333333333334 0  1.14 0.2583333333333334 0  1.148260869565217 0.2583333333333334 0  1.156521739130435 0.2583333333333334 0  1.164782608695652 0.2583333333333334 0  1.17304347826087 0.2583333333333334 0  1.181304347826087 0.2583333333333334 0  1.189565217391304 0.2583333333333334 0  1.197826086956522 0.2583333333333334 0  1.206086956521739 0.2583333333333334 0  1.214347826086956 0.2583333333333334 0  1.222608695652174 0.2583333333333334 0  1.230869565217391 0.2583333333333334 0  1.239130434782609 0.2583333333333334 0  1.247391304347826 0.2583333333333334 0  1.255652173913044 0.2583333333333334 0  1.263913043478261 0.2583333333333334 0  1.272173913043478 0.2583333333333334 0  1.280434782608696 0.2583333333333334 0  1.288695652173913 0.2583333333333334 0  1.2969565217391
[...]
<CellData  Scalars="rho_bar"> 
<DataArray  type="Float64"  Name="rho_bar"  format="ascii">0.0000000000000000e+00   0.0000000000000000e+00   0.0000000000000000e+00   0.0000000000000000e+00   0.0000000000000000e+00   0.0000000000000000e+00   0.0000000000000000e+00   0.0000000000000000e+00   0.0000000000000000e+00   0.0000000000000000e+00   0.0000000000000000e+00   0.0000000000000000e+00   0.0000000000000000e+00   0.0000000000000000e+00   0.0000000000000000e+00   0.0000000000000000e+00   0.0000000000000000e+00   0.0000000000000000e+00   0.0000000000000000e+00   0.0000000000000000e+00   0.0000000000000000e+00   0.0000000000000000e+00   0.0000000000000000e+00   0.0000000000000000e+00   0.0000000000000000e+00   0.0000000000000000e+00   0.0000000000000000e+00   0.0000000000000000e+00   0.0000000000000000e+00   0.0000000000000000e+00   0.0000000000000000e+00   0.0000000000000000e+00   0.0000000000000000e+00   0.0000000000000000e+00   0.0000000000000000e+00   0.0000000000000000e+00   0.0000000000000000e+00   0.0000000000000000e+00   0.0000000000000000e+00   0.0000000000000000e+00   0.0000000000000000e+00   0.0000000000000000e+00   0.0000000000000000e+00   0.0000000000000000e+00   0.0000000000000000e+00   0.0000000000000000e+00   0.0000000000000000e+00   0.0000000000000000e+00   0.0000000000000000e+00   0.0000000000000000e+00   0.0000000000000000e+00   0.0000000000000000e+00   0.0000000000000000e+00   0.0000000000000000e+00   0.0000000000000000e+00   0.0000000000000000e+00   0.0000000000000000e+00   0.0000000000000000e+00   0.0000000000000000e+00   0.0000000000000000e+00   0.0000000000000000e+00   0.0000000000000000e+00   0.0000000000000000e+00   0.0000000000000000e+00   0.0000000000000000e+00   0.0000000000000000e+00   0.0000000000000000e+00   0.0000000000000000e+00   0.0000000000000000e+00   0.0000000000000000e+00   0.0000000000000000e+00   0.0000000000000000e+00   0.0000000000000000e+00   0.0000000000000000e+00   0.0000000000000000e+00   0.0000000000000000e+00   0.0000000000000000e+00   0.0000000000000000e+00   0.0000000000000000e+00   0.0000000000000000e+00   0.0000000000000000e+00   0.0000000000000000e+00   0.0000000000000000e+00   9.2518585385429691e-18   1.8503717077085938e-17   3.1191530839673001e-12   6.2796064644506568e-12   9.5865444044163063e-07   2.1304414143941126e-06   1.0206139233927913e-01   1.4707632636123519e-01   6.7819696323786394e-01   7.0939244783754163e-01   9.9992887340359859e-01   9.9995533074427290e-01   9.9999999125836536e-01   9.9999999379983961e-01   9.9999999998739664e-01   9.9999999999008593e-01   9.9999999999979960e-01   9.9999999999982481e-01   9.9999999999995304e-01   9.9999999999995270e-01   9.9999999999976152e-01   9.9999999999972622e-01   9.9999999998191647e-01   9.9999999997716460e-01   9.9999998407365243e-01   9.9999997798362916e-01   9.9982078651166395e-01   9.9972600144417856e-01   6.5636047163671329e-01   6.0066224921720501e-01   3.8098670389643492e-02   2.1506717631006329e-02   1.7046382055907475e-07   8.1922665382908974e-08   5.0179305155495513e-13   2.4939309876496435e-13   0.0000000000000000e+00   0.0000000000000000e+00   0.0000000000000000e+00   0.0000000000000000e+00   0.0000000000000000e+00   0.0000000000000000e+00   0.0000000000000000e+00   0.0000000000000000e+00   0.0000000000000000e+00   0.0000000000000000e+00   0.0000000000000000e+00   0.0000000000000000e+00   0.0000000000000000e+00   0.0000000000000000e+00   0.0000000000000000e+00   0.0000000000000000e+00   0.0000000000000000e+00   0.0000000000000000e+00   0.0000000000000000e+00   0.0000000000000000e+00   0.0000000000000000e+00   0.0000000000000000e+00   0.0000000000000000e+00   0.0000000000000000e+00   0.0000000000000000e+00   0.0000000000000000e+00   0.0000000000000000e+00   0.0000000000000000e+00   0.0000000000000000e+00   0.0000000000000000e+00   0.0000000000000000e+00   0.0000000000000000e+00   0.0000000000000000e+00   0.0000000000000000e+00   0.0000000000000000e+00   0.0000000000000000e+00   0.0000000000000000e+00   0.0000000000000000e+00   0.0000000000000000e+00   0.0000000000000000e+00   0.0000000000000000e+00   0.0000000000000000e+00   0.0000000000000000e+00   0.0000000000000000e+00   0.0000000000000000e+00   0.0000000000000000e+00   0.0000000000000000e+00   0.0000000000000000e+00   0.0000000000000000e+00   0.0000000000000000e+00   0.0000000000000000e+00   0.0000000000000000e+00   0.0000000000000000e+00   0.0000000000000000e+00   0.0000000000000000e+00   0.0000000000000000e+00   0.0000000000000000e+00   0.0000000000000000e+00   0.0000000000000000e+00   0.0000000000000000e+00   0.0000000000000000e+00   0.0000000000000000e+00   0.0000000000000000e+00   0.0000000000000000e+00   0.0000000000000000e+00   0.0000000000000000e+00   0.0000000000000000e+00   0.0000000000000000e+00   0.0000000000000000e+00   0.0000000000000000e+00   0.0000000000000000e+00   0.0000000000000000e+00   0.0000000000000000e+00   0.0000000000000000e+00   0.0000000000000000e+00   0.0000000000000000e+00   0.0000000000000000e+00   0.0000000000000000e+00   0.0000000000000000e+00   0.0000000000000000e+00   0.0000000000000000e+00   0.0000000000000000e+00   0.0000000000000000e+00   0.0000000000000000e+00   0.0000000000000000e+00   0.0000000000000000e+00   0.0000000000000000e+00   0.0000000000000000e+00   0.0000000000000000e+00   0.0000000000000000e+00   0.0000000000000000e+00   0.0000000000000000e+00   0.0000000000000000e+00   0.0000000000000000e+00   0.0000000000000000e+00   0.0000000000000000e+00   0.0000000000000000e+00   0.0000000000000000e+00   0.0000000000000000e+00   0.0000000000000000e+00   0.0000000000000000e+00   0.0000000000000000e+00   0.0000000000000000e+00   0.0000000000000000e+00   0.0000000000000000e+00   0.0000000000000000e+00   0.0000000000000000e+00   0.0000000000000000e+00   0.0000000000000000e+00   0.0000000000000000e+00   2.8680761469483212e-16   5.1810407815840642e-16   8.3704321252042720e-11   1.6460269258722349e-10   3.0665582079989852e-05   6.3598426666329935e-05   3.0092332609618411e-01   3.5469657161873036e-01   8.8761064273807655e-01   9.2309164839693447e-01   9.9999494180961879e-01   9.9999675455772941e-01   9.9999999879202761e-01   9.9999999911577986e-01   9.9999999999680678e-01   9.9999999999740130e-01   9.9999999999990097e-01   9.9999999999991029e-01   9.9999999999994627e-01   9.9999999999994360e-01   9.9999999999939304e-01   9.9999999999927813e-01   9.9999999991439870e-01   9.9999999988692478e-01   9.9999987737132290e-01   9.9999981935019000e-01   9.9791294901056005e-01   9.9662633312612769e-01   5.5182822858403169e-01   4.6630273523694127e-01   2.8499841546974118e-03   1.5229895238065005e-03   7.4060718021258980e-09   3.9081278953763859e-09   1.8605487521009916e-14   1.0130785099704552e-14   0.0000000000000000e+00   0.0000000000000000e+00   0.0000000000000000e+00   0.0000000000000000e+00   0.0000000000000000e+00   0.0000000000000000e+00   0.0000000000000000e+00   0.0000000000000000e+00   0.0000000000000000e+00   0.0000000000000000e+00   0.0000000000000000e+00   0.0000000000000000e+00   0.0000000000000000e+00   0.0000000000000000e+00   0.0000000000000000e+00   0.0000000000000000e+00   0.0000000000000000e+00   0.0000000000000000e+00   0.0000000000000000e+00   0.0000000000000000e+00   0.0000000000000000e+00   0.0000000000000000e+00   0.0000000000000000e+00   0.0000000000000000e+00   0.0000000000000000e+00   0.0000000000000000e+00   0.0000000000000000e+00   0.0000000000000000e+00   0.0000000000000000e+00   0.0000000000000000e+00   0.0000000000000000e+00   0.0000000000000000e+00   0.0000000000000000e+00   0.0000000000000000e+00   0.0000000000000000e+00   0.0000000000000000e+00   0.0000000000000000e+00   0.0000000000000000e+00   0.0000000000000000e+00   0.0000000000000000e+00   0.0000000000000000e+00   0.0000000000000000e+00   0.0000000000000000e+00   0.0000000000000000e+00   0.0000000000000000e+00   0.0000000000000000e+00   0.0000000000000000e+00   0.0000000000000000e+00   0.0000000000000000e+00   0.0000000000000000e+00   0.0000000000000000e+00   0.0000000000000000e+00   0.0000000000000000e+00   0.0000000000000000e+00   0.0000000000000000e+00   0.0000000000000000e+00   0.0000000000000000e+00   0.0000000000000000e+00   0.0000000000000000e+00   0.0000000000000000e+00   0.0000000000000000e+00   0.0000000000000000e+00   0.0000000000000000e+00   0.0000000000000000e+00   0.0000000000000000e+00   0.0000000000000000e+00   0.0000000000000000e+00   0.0000000000000000e+00   0.0000000000000000e+00   0.0000000000000000e+00   0.0000000000000000e+00   0.0000000000000000e+00   0.0000000000000000e+00   0.0000000000000000e+00   0.0000000000000000e+00   0.0000000000000000e+00   0.0000000000000000e+00   0.0000000000000000e+00   0.0000000000000000e+00   0.0000000000000000e+00   0.0000000000000000e+00   0.0000000000000000e+00   0.0000000000000000e+00   0.0000000000000000e+00   0.0000000000000000e+00   0.0000000000000000e+00   0.0000000000000000e+00   0.0000000000000000e+00   0.0000000000000000e+00   0.0000000000000000e+00   0.0000000000000000e+00   0.0000000000000000e+00   0.0000000000000000e+00   0.0000000000000000e+00   0.0000000000000000e+00   0.0000000000000000e+00   0.0000000000000000e+00   0.0000000000000000e+00   0.0000000000000000e+00   0.0000000000000000e+00   0.0000000000000000e+00   0.0000000000000000e+00   0.0000000000000000e+00   0.0000000000000000e+00   0.0000000000000000e+00   0.0000000000000000e+00   0.0000000000000000e+00   0.0000000000000000e+00   0.0000000000000000e+00   0.0000000000000000e+00   0.0000000000000000e+00   0.0000000000000000e+00   0.0000000000000000e+00   0.0000000000000000e+00   0.0000000000000000e+00   0.0000000000000000e+00   6.6243307135967679e-15   1.2961853812498704e-14   2.0350064966478953e-09   4.1565312025593207e-09   6.9123583224181540e-04   1.3922366751422017e-03   4.2011047757969616e-01   5.1407655409695763e-01   9.9178142275930714e-01   9.9508871195214554e-01   9.9999962009369192e-01   9.9999974703950456e-01   9.9999999981131171e-01   9.9999999985821297e-01   9.9999999999902955e-01   9.9999999999918876e-01   9.9999999999993838e-01   9.9999999999994194e-01   9.9999999999992162e-01   9.9999999999991418e-01   9.9999999999809730e-01   9.9999999999767442e-01   9.9999999946580564e-01   9.9999999926988981e-01   9.9999849942878283e-01   9.9999764997223017e-01   9.6662234498266009e-01   9.4541873100337037e-01   4.1203129115415726e-01   3.3524727641086971e-01   1.7174765929887462e-04   8.6385318851328607e-05   4.0348736389065698e-10   2.1441688239735396e-10   1.0269562977782700e-15   5.9211894646675022e-16   0.0000000000000000e+00   0.0000000000000000e+00   0.0000000000000000e+00   0.0000000000000000e+00   0.0000000000000000e+00   0.0000000000000000e+00   0.0000000000000000e+00   0.0000000000000000e+00   0.0000000000000000e+00   0.0000000000000000e+00   0.0000000000000000e+00   0.0000000000000000e+00   0.0000000000000000e+00   0.0000000000000000e+00   0.0000000000000000e+00   0.0000000000000000e+00   0.0000000000000000e+00   0.0000000000000000e+00   0.0000000000000000e+00   0.0000000000000000e+00   0.0000000000000000e+00   0.0000000000000000e+00   0.0000000000000000e+00   0.0000000000000000e+00   0.0000000000000000e+00   0.0000000000000000e+00   0.0000000000000000e+00   0.0000000000000000e+00   0.0000000000000000e+00   0.0000000000000000e+00   0.0000000000000000e+00   0.0000000000000000e+00   0.0000000000000000e+00   0.0000000000000000e+00   0.0000000000000000e+00   0.0000000000000000e+00   0.0000000000000000e+00   0.0000000000000000e+00   0.0000000000000000e+00   0.0000000000000000e+00   0.0000000000000000e+00   0.0000000000000000e+00   0.0000000000000000e+00   0.0000000000000000e+00   0.0000000000000000e+00   0.0000000000000000e+00   0.0000000000000000e+00   0.0000000000000000e+00   0.0000000000000000e+00   0.0000000000000000e+00   0.0000000000000000e+00   0.0000000000000000e+00   0.0000000000000000e+00   0.0000000000000000e+00   0.0000000000000000e+00   0.0000000000000000e+00   0.0000000000000000e+00   0.0000000000000000e+00   0.0000000000000000e+00   0.0000000000000000e+00   0.0000000000000000e+00   0.0000000000000000e+00   0.0000000000000000e+00   0.0000000000000000e+00   0.0000000000000000e+00   0.0000000000000000e+00   0.0000000000000000e+00   0.0000000000000000e+00   0.0000000000000000e+00   0.0000000000000000e+00   0.0000000000000000e+00   0.0000000000000000e+00   0.0000000000000000e+00   0.0000000000000000e+00   0.0000000000000000e+00   0.0000000000000000e+00   0.0000000000000000e+00   0.0000000000000000e+00   0.0000000000000000e+00   0.0000000000000000e+00   0.0000000000000000e+00   0.0000000000000000e+00   0.0000000000000000e+00   0.0000000000000000e+00   0.0000000000000000e+00   0.0000000000000000e+00   0.0000000000000000e+00   0.0000000000000000e+00   0.0000000000000000e+00   0.0000000000000000e+00   0.0000000000000000e+00   0.0000000000000000e+00   0.0000000000000000e+00   0.0000000000000000e+00   0.0000000000000000e+00   0.0000000000000000e+00   0.0000000000000000e+00   0.0000000000000000e+00   0.0000000000000000e+00   0.0000000000000000e+00   0.0000000000000000e+00   0.0000000000000000e+00   0.0000000000000000e+00   0.0000000000000000e+00   0.0000000000000000e+00   0.0000000000000000e+00   0.0000000000000000e+00   0.0000000000000000e+00   0.0000000000000000e+00   0.0000000000000000e+00   0.0000000000000000e+00   0.0000000000000000e+00   0.0000000000000000e+00   0.0000000000000000e+00   0.0000000000000000e+00   0.0000000000000000e+00   2.4570160720808565e-13   5.3789380357234983e-13   6.3961263174761016e-08   1.4737721253562278e-07   1.4336896382259968e-02   2.8428349621306106e-02   5.6574516681069120e-01   6.4402301907332893e-01   9.9946504710987205e-01   9.9966747253758526e-01   9.9999996100419719e-01   9.9999997273844143e-01   9.9999999996492295e-01   9.9999999997276801e-01   9.9999999999965095e-01   9.9999999999970002e-01   9.9999999999995226e-01   9.9999999999995315e-01   9.9999999999985667e-01   9.9999999999983846e-01   9.9999999999303413e-01   9.9999999999125899e-01   9.9999999617696933e-01   9.9999999465063472e-01   9.9997663273164850e-01   9.9996251306356854e-01   7.5468934655486086e-01   7.2012567863660437e-01   2.1461861717470915e-01   1.6696486593673374e-01   6.7397973873376911e-06   3.0100148317631827e-06   1.8603933208775438e-11   9.3794231640724011e-12   6.4763009769800778e-17   3.7007434154171870e-17   0.0000000000000000e+00   0.0000000000000000e+00   0.0000000000000000e+00   0.0000000000000000e+00   0.0000000000000000e+00   0.0000000000000000e+00   0.0000000000000000e+00   0.0000000000000000e+00   0.0000000000000000e+00   0.0000000000000000e+00   0.0000000000000000e+00   0.0000000000000000e+00   0.0000000000000000e+00   0.0000000000000000e+00   0.0000000000000000e+00   0.0000000000000000e+00   0.0000000000000000e+00   0.0000000000000000e+00   0.0000000000000000e+00   0.0000000000000000e+00   0.0000000000000000e+00   0.0000000000000000e+00   0.0000000000000000e+00   0.0000000000000000e+00   0.0000000000000000e+00   0.0000000000000000e+00   0.0000000000000000e+00   0.0000000000000000e+00   0.0000000000000000e+00   0.0000000000000000e+00   0.0000000000000000e+00   0.0000000000000000e+00   0.0000000000000000e+00   0.0000000000000000e+00   0.0000000000000000e+00   0.0000000000000000e+00   0.0000000000000000e+00   0.0000000000000000e+00   0.0000000000000000e+00   0.0000000000000000e+00   0.0000000000000000e+00   0.0000000000000000e+00   0.0000000000000000e+00   0.0000000000000000e+00   0.0000000000000000e+00   0.0000000000000000e+00   0.0000000000000000e+00   0.0000000000000000e+00   0.0000000000000000e+00   0.0000000000000000e+00   0.0000000000000000e+00   0.0000000000000000e+00   0.0000000000000000e+00   0.0000000000000000e+00   0.0000000000000000e+00   0.0000000000000000e+00   0.0000000000000000e+00   0.0000000000000000e+00   0.0000000000000000e+00   0.0000000000000000e+00   0.0000000000000000e+00   0.0000000000000000e+00   0.0000000000000000e+00   0.0000000000000000e+00   0.0000000000000000e+00   0.0000000000000000e+00   0.0000000000000000e+00   0.0000000000000000e+00   0.0000000000000000e+00   0.0000000000000000e+00   0.0000000000000000e+00   0.0000000000000000e+00   0.0000000000000000e+00   0.0000000000000000e+00   0.0000000000000000e+00   0.0000000000000000e+00   0.0000000000000000e+00   0.0000000000000000e+00   0.0000000000000000e+00   0.0000000000000000e+00   0.0000000000000000e+00   0.0000000000000000e+00   0.0000000000000000e+00   0.0000000000000000e+00   0.0000000000000000e+00   0.0000000000000000e+00   0.0000000000000000e+00   0.0000000000000000e+00   0.0000000000000000e+00   0.0000000000000000e+00   0.0000000000000000e+00   0.0000000000000000e+00   0.0000000000000000e+00   0.0000000000000000e+00   0.0000000000000000e+00   0.0000000000000000e+00   0.0000000000000000e+00   0.0000000000000000e+00   0.0000000000000000e+00   0.0000000000000000e+00   0.0000000000000000e+00   0.0000000000000000e+00   0.0000000000000000e+00   0.0000000000000000e+00   0.0000000000000000e+00   0.0000000000000000e+00   0.0000000000000000e+00   0.0000000000000000e+00   0.0000000000000000e+00   0.0000000000000000e+00   0.0000000000000000e+00   0.0000000000000000e+00   0.0000000000000000e+00   5.5511151231257827e-17   1.0177044392397270e-16   1.2117677232007887e-11   2.6510099671028791e-11   3.2642436266216990e-06   7.9220317860395611e-06   1.6709959664170304e-01   2.1710244777899168e-01   7.1828915675348526e-01   7.5287001569534051e-01   9.9996294332508850e-01   9.9997687891139331e-01   9.9999999493393144e-01   9.9999999636233650e-01   9.9999999999186451e-01   9.9999999999349276e-01   9.9999999999984723e-01   9.9999999999986477e-01   9.9999999999995315e-01   9.9999999999995215e-01   9.9999999999967959e-01   9.9999999999962796e-01   9.9999999996952760e-01   9.9999999996060540e-01   9.9999996954509585e-01   9.9999995587293689e-01   9.9964598609014332e-01   9.9942081377524106e-01   6.4429064919100310e-01   5.6374195366368440e-01   2.9302517450973061e-02   1.4732544216026312e-02   1.5819500428134364e-07   6.9775699375792158e-08   5.5271528095109567e-13   2.6478819137309983e-13   0.0000000000000000e+00   0.0000000000000000e+00   0.0000000000000000e+00   0.0000000000000000e+00   0.0000000000000000e+00   0.0000000000000000e+00   0.0000000000000000e+00   0.0000000000000000e+00   0.0000000000000000e+00   0.0000000000000000e+00   0.0000000000000000e+00   0.0000000000000000e+00   0.0000000000000000e+00   0.0000000000000000e+00   0.0000000000000000e+00   0.0000000000000000e+00   0.0000000000000000e+00   0.0000000000000000e+00   0.0000000000000000e+00   0.0000000000000000e+00   0.0000000000000000e+00   0.0000000000000000e+00   0.0000000000000000e+00   0.0000000000000000e+00   0.0000000000000000e+00   0.0000000000000000e+00   0.0000000000000000e+00   0.0000000000000000e+00   0.0000000000000000e+00   0.0000000000000000e+00   0.0000000000000000e+00   0.0000000000000000e+00   0.0000000000000000e+00   0.0000000000000000e+00   0.0000000000000000e+00   0.0000000000000000e+00   0.0000000000000000e+00   0.0000000000000000e+00   0.0000000000000000e+00   0.0000000000000000e+00   0.0000000000000000e+00   0.0000000000000000e+00   0.0000000000000000e+00   0.0000000000000000e+00   0.0000000000000000e+00   0.0000000000000000e+00   0.0000000000000000e+00   0.0000000000000000e+00   0.0000000000000000e+00   0.0000000000000000e+00   0.0000000000000000e+00   0.0000000000000000e+00   0.0000000000000000e+00   0.0000000000000000e+00   0.0000000000000000e+00   0.0000000000000000e+00   0.0000000000000000e+00   0.0000000000000000e+00   0.0000000000000000e+00   0.0000000000000000e+00   0.0000000000000000e+00   0.0000000000000000e+00   0.0000000000000000e+00   0.0000000000000000e+00   0.0000000000000000e+00   0.0000000000000000e+00   0.0000000000000000e+00   0.0000000000000000e+00   0.0000000000000000e+00   0.0000000000000000e+00   0.0000000000000000e+00   0.0000000000000000e+00   0.0000000000000000e+00   0.0000000000000000e+00   0.0000000000000000e+00   0.0000000000000000e+00   0.0000000000000000e+00   0.0000000000000000e+00   0.00000000