<?xml version="1.0"?>
<VTKFile type="UnstructuredGrid"  version="0.1"  >
<UnstructuredGrid>
<Piece  NumberOfPoints="2431" NumberOfCells="4624">
<Points>
<DataArray  type="Float64"  NumberOfComponents="3"  format="ascii">1.933043478260869 0.2166666666666667 0  1.941304347826087 0.2166666666666667 0  1.941304347826087 0.225 0  1.933043478260869 0.225 0  1.949565217391304 0.225 0  1.941304347826087 0.2333333333333333 0  1.933043478260869 0.2333333333333333 0  1.949565217391304 0.2333333333333333 0  1.957826086956522 0.225 0  1.957826086956522 0.2333333333333333 0  1.966086956521739 0.225 0  1.966086956521739 0.2333333333333333 0  1.974347826086956 0.225 0  1.974347826086956 0.2333333333333333 0  1.982608695652174 0.225 0  1.982608695652174 0.2333333333333333 0  1.990869565217391 0.225 0  1.990869565217391 0.2333333333333333 0  1.999130434782608 0.2333333333333333 0  1.941304347826087 0.2416666666666667 0  1.949565217391304 0.2416666666666667 0  1.957826086956522 0.2416666666666667 0  1.966086956521739 0.2416666666666667 0  1.974347826086956 0.2416666666666667 0  1.982608695652174 0.2416666666666667 0  1.990869565217391 0.2416666666666667 0  1.999130434782608 0.2416666666666667 0  2.007391304347826 0.2416666666666667 0  1.949565217391304 0.25 0  1.941304347826087 0.25 0  1.957826086956522 0.25 0  1.966086956521739 0.25 0  1.974347826086956 0.25 0  1.982608695652174 0.25 0  1.990869565217391 0.25 0  1.999130434782608 0.25 0  2.007391304347826 0.25 0  2.015652173913043 0.2416666666666667 0  2.015652173913043 0.25 0  2.023913043478261 0.2416666666666667 0  2.023913043478261 0.25 0  2.032173913043478 0.25 0  1.933043478260869 0.25 0  1.941304347826087 0.2583333333333334 0  1.933043478260869 0.2583333333333334 0  1.949565217391304 0.2583333333333334 0  1.957826086956522 0.2583333333333334 0  1.966086956521739 0.2583333333333334 0  1.974347826086956 0.2583333333333334 0  1.982608695652174 0.2583333333333334 0  1.990869565217391 0.2583333333333334 0  1.999130434782608 0.2583333333333334 0  2.007391304347826 0.2583333333333334 0  2.015652173913043 0.2583333333333334 0  2.023913043478261 0.2583333333333334 0  2.032173913043478 0.2583333333333334 0  2.040434782608695 0.25 0  2.040434782608695 0.2583333333333334 0  2.048695652173913 0.25 0  2.048695652173913 0.2583333333333334 0  2.05695652173913 0.25 0  2.05695652173913 0.2583333333333334 0  2.065217391304348 0.25 0  2.065217391304348 0.2583333333333334 0  2.073478260869565 0.25 0  2.073478260869565 0.2583333333333334 0  2.081739130434782 0.25 0  2.081739130434782 0.2583333333333334 0  2.09 0.25 0  2.09 0.2583333333333334 0  2.098260869565217 0.25 0  2.098260869565217 0.2583333333333334 0  2.106521739130435 0.2583333333333334 0  1.941304347826087 0.2666666666666667 0  1.933043478260869 0.2666666666666667 0  1.949565217391304 0.2666666666666667 0  1.957826086956522 0.2666666666666667 0  1.966086956521739 0.2666666666666667 0  1.974347826086956 0.2666666666666667 0  1.982608695652174 0.2666666666666667 0  1.990869565217391 0.2666666666666667 0  1.999130434782608 0.2666666666666667 0  2.007391304347826 0.2666666666666667 0  2.015652173913043 0.2666666666666667 0  2.023913043478261 0.2666666666666667 0  2.032173913043478 0.2666666666666667 0  2.040434782608695 0.2666666666666667 0  2.048695652173913 0.2666666666666667 0  2.05695652173913 0.2666666666666667 0  2.065217391304348 0.2666666666666667 0  2.073478260869565 0.2666666666666667 0  2.081739130434782 0.2666666666666667 0  2.09 0.2666666666666667 0  2.098260869565217 0.2666666666666667 0  2.106521739130435 0.2666666666666667 0  2.114782608695652 0.2666666666666667 0  1.941304347826087 0.275 0  1.933043478260869 0.275 0  1.949565217391304 0.275 0  1.957826086956522 0.275 0  1.966086956521739 0.275 0  1.974347826086956 0.275 0  1.982608695652174 0.275 0  1.990869565217391 0.275 0  1.999130434782608 0.275 0  2.007391304347826 0.275 0  2.015652173913043 0.275 0  2.023913043478261 0.275 0  2.032173913043478 0.275 0  2.040434782608695 0.275 0  2.048695652173913 0.275 0  2.05695652173913 0.275 0  2.065217391304348 0.275 0  2.073478260869565 0.275 0  2.081739130434782 0.275 0  2.09 0.275 0  2.098260869565217 0.275 0  2.106521739130435 0.275 0  2.114782608695652 0.275 0  2.12304347826087 0.275 0  1.941304347826087 0.2833333333333333 0  1.933043478260869 0.2833333333333333 0  1.949565217391304 0.2833333333333333 0  1.957826086956522 0.2833333333333333 0  1.966086956521739 0.2833333333333333 0  1.974347826086956 0.2833333333333333 0  1.982608695652174 0.2833333333333333 0  1.990869565217391 0.2833333333333333 0  1.999130434782608 0.2833333333333333 0  2.007391304347826 0.2833333333333333 0  2.015652173913043 0.2833333333333333 0  2.023913043478261 0.2833333333333333 0  2.032173913043478 0.2833333333333333 0  2.040434782608695 0.2833333333333333 0  2.048695652173913 0.2833333333333333 0  2.05695652173913 0.2833333333333333 0  2.065217391304348 0.2833333333333333 0  2.073478260869565 0.2833333333333333 0  2.081739130434782 0.2833333333333333 0  2.09 0.2833333333333333 0  2.098260869565217 0.2833333333333333 0  2.106521739130435 0.2833333333333333 0  2.114782608695652 0.2833333333333333 0  2.12304347826087 0.2833333333333333 0  2.131304347826087 0.2833333333333333 0  1.941304347826087 0.2916666666666667 0  1.933043478260869 0.2916666666666667 0  1.949565217391304 0.2916666666666667 0  1.957826086956522 0.2916666666666667 0  1.966086956521739 0.2916666666666667 0  1.974347826086956 0.2916666666666667 0  1.982608695652174 0.2916666666666667 0  1.990869565217391 0.2916666666666667 0  1.999130434782608 0.2916666666666667 0  2.007391304347826 0.2916666666666667 0  2.015652173913043 0.2916666666666667 0  2.023913043478261 0.2916666666666667 0  2.032173913043478 0.2916666666666667 0  2.040434782608695 0.2916666666666667 0  2.048695652173913 0.2916666666666667 0  2.05695652173913 0.2916666666666667 0  2.065217391304348 0.2916666666666667 0  2.073478260869565 0.2916666666666667 0  2.081739130434782 0.2916666666666667 0  2.09 0.2916666666666667 0  2.098260869565217 0.2916666666666667 0  2.106521739130435 0.2916666666666667 0  2.114782608695652 0.2916666666666667 0  2.12304347826087 0.2916666666666667 0  2.131304347826087 0.2916666666666667 0  2.139565217391304 0.2916666666666667 0  1.941304347826087 0.3 0  1.933043478260869 0.3 0  1.949565217391304 0.3 0  1.957826086956522 0.3 0  1.966086956521739 0.3 0  1.974347826086956 0.3 0  1.982608695652174 0.3 0  1.990869565217391 0.3 0  1.999130434782608 0.3 0  2.007391304347826 0.3 0  2.015652173913043 0.3 0  2.023913043478261 0.3 0  2.032173913043478 0.3 0  2.040434782608695 0.3 0  2.048695652173913 0.3 0  2.05695652173913 0.3 0  2.065217391304348 0.3 0  2.073478260869565 0.3 0  2.081739130434782 0.3 0  2.09 0.3 0  2.098260869565217 0.3 0  2.106521739130435 0.3 0  2.114782608695652 0.3 0  2.12304347826087 0.3 0  2.131304347826087 0.3 0  2.139565217391304 0.3 0  2.147826086956522 0.2916666666666667 0  2.147826086956522 0.3 0  2.156086956521739 0.2916666666666667 0  2.156086956521739 0.3 0  2.164347826086956 0.2916666666666667 0  2.164347826086956 0.3 0  2.172608695652174 0.2916666666666667 0  2.172608695652174 0.3 0  2.180869565217391 0.2916666666666667 0  2.180869565217391 0.3 0  2.189130434782609 0.2916666666666667 0  2.189130434782609 0.3 0  2.197391304347826 0.2916666666666667 0  2.197391304347826 0.3 0  2.205652173913043 0.2916666666666667 0  2.205652173913043 0.3 0  2.213913043478261 0.2916666666666667 0  2.213913043478261 0.3 0  2.222173913043478 0.2916666666666667 0  2.222173913043478 0.3 0  2.230434782608695 0.2916666666666667 0  2.230434782608695 0.3 0  2.238695652173913 0.2916666666666667 0  2.238695652173913 0.3 0  2.24695652173913 0.3 0  1.941304347826087 0.3083333333333333 0  1.933043478260869 0.3083333333333333 0  1.949565217391304 0.3083333333333333 0  1.957826086956522 0.3083333333333333 0  1.966086956521739 0.3083333333333333 0  1.974347826086956 0.3083333333333333 0  1.982608695652174 0.3083333333333333 0  1.990869565217391 0.3083333333333333 0  1.999130434782608 0.3083333333333333 0  2.007391304347826 0.3083333333333333 0  2.015652173913043 0.3083333333333333 0  2.023913043478261 0.3083333333333333 0  2.032173913043478 0.3083333333333333 0  2.040434782608695 0.3083333333333333 0  2.048695652173913 0.3083333333333333 0  2.05695652173913 0.3083333333333333 0  2.065217391304348 0.3083333333333333 0  2.073478260869565 0.3083333333333333 0  2.081739130434782 0.3083333333333333 0  2.09 0.3083333333333333 0  2.098260869565217 0.3083333333333333 0  2.106521739130435 0.3083333333333333 0  2.114782608695652 0.3083333333333333 0  2.12304347826087 0.3083333333333333 0  2.131304347826087 0.3083333333333333 0  2.139565217391304 0.3083333333333333 0  2.147826086956522 0.3083333333333333 0  2.156086956521739 0.3083333333333333 0  2.164347826086956 0.3083333333333333 0  2.172608695652174 0.3083333333333333 0  2.180869565217391 0.3083333333333333 0  2.189130434782609 0.3083333333333333 0  2.197391304347826 0.3083333333333333 0  2.205652173913043 0.3083333333333333 0  2.213913043478261 0.3083333333333333 0  2.222173913043478 0.3083333333333333 0  2.230434782608695 0.3083333333333333 0  2.238695652173913 0.3083333333333333 0  2.24695652173913 0.3083333333333333 0  2.255217391304348 0.3083333333333333 0  1.941304347826087 0.3166666666666667 0  1.933043478260869 0.3166666666666667 0  1.949565217391304 0.3166666666666667 0  1.957826086956522 0.3166666666666667 0  1.966086956521739 0.3166666666666667 0  1.974347826086956 0.3166666666666667 0  1.982608695652174 0.3166666666666667 0  1.990869565217391 0.3166666666666667 0  1.999130434782608 0.3166666666666667 0  2.007391304347826 0.3166666666666667 0  2.015652173913043 0.3166666666666667 0  2.023913043478261 0.3166666666666667 0  2.032173913043478 0.3166666666666667 0  2.040434782608695 0.3166666666666667 0  2.048695652173913 0.3166666666666667 0  2.05695652173913 0.3166666666666667 0  2.065217391304348 0.3166666666666667 0  2.073478260869565 0.316666666666666
[...]
<PointData  Vectors="Displacement"> 
<DataArray  type="Float64"  Name="Displacement"  NumberOfComponents="3" format="ascii">-2.0203568634230959e-05 2.2835731816119114e-03 0.0000000000000000e+00  -1.9137674089394248e-05 2.2958072548948643e-03 0.0000000000000000e+00  -3.1772243584353981e-05 2.2946578845868463e-03 0.0000000000000000e+00  -3.2877839285681891e-05 2.2824097005953899e-03 0.0000000000000000e+00  -3.0684839768874894e-05 2.3068087409936436e-03 0.0000000000000000e+00  -4.4374095816516416e-05 2.2935134717105973e-03 0.0000000000000000e+00  -4.5551482324427100e-05 2.2812360261421152e-03 0.0000000000000000e+00  -4.3242253537402970e-05 2.3056727331609715e-03 0.0000000000000000e+00  -2.9612747488051792e-05 2.3188660860275615e-03 0.0000000000000000e+00  -4.2140103369279004e-05 2.3177279880816828e-03 0.0000000000000000e+00  -2.8553207974701113e-05 2.3308340009291282e-03 0.0000000000000000e+00  -4.1058587903274022e-05 2.3296865481377549e-03 0.0000000000000000e+00  -2.7503571548877857e-05 2.3427169585654869e-03 0.0000000000000000e+00  -3.9991365201006044e-05 2.3415548898809762e-03 0.0000000000000000e+00  -2.6461785884488877e-05 2.3545198655385803e-03 0.0000000000000000e+00  -3.8934316913853670e-05 2.3533400530910717e-03 0.0000000000000000e+00  -2.5426707589605544e-05 2.3662474105052398e-03 0.0000000000000000e+00  -3.7885577172143033e-05 2.3650487884729621e-03 0.0000000000000000e+00  -3.6844629803717738e-05 2.3766852163734447e-03 0.0000000000000000e+00  -5.6882068635615917e-05 2.2923751433876665e-03 0.0000000000000000e+00  -5.5720040228218938e-05 2.3045495571287198e-03 0.0000000000000000e+00  -5.4594877091806593e-05 2.3166069617553569e-03 0.0000000000000000e+00  -5.3496039795334689e-05 2.3285577235640266e-03 0.0000000000000000e+00  -5.2414636603985405e-05 2.3404109393225150e-03 0.0000000000000000e+00  -5.1344652308722908e-05 2.3521771444919822e-03 0.0000000000000000e+00  -5.0283893822669802e-05 2.3638667125645422e-03 0.0000000000000000e+00  -4.9232447767949393e-05 2.3754851136243405e-03 0.0000000000000000e+00  -4.8189628915824464e-05 2.3870310004729051e-03 0.0000000000000000e+00  -6.8103758125953381e-05 2.3034511088163411e-03 0.0000000000000000e+00  -6.9284553379233180e-05 2.2912655812986726e-03 0.0000000000000000e+00  -6.6963580517288932e-05 2.3155112547804391e-03 0.0000000000000000e+00  -6.5854855313626941e-05 2.3274537734857938e-03 0.0000000000000000e+00  -6.4765792359496423e-05 2.3392891421438137e-03 0.0000000000000000e+00  -6.3687602103207734e-05 2.3510330910302131e-03 0.0000000000000000e+00  -6.2618103073787558e-05 2.3627023054393851e-03 0.0000000000000000e+00  -6.1559021812308644e-05 2.3743040990360838e-03 0.0000000000000000e+00  -6.0509910145935363e-05 2.3858330189594820e-03 0.0000000000000000e+00  -4.7153354667873372e-05 2.3985016103563804e-03 0.0000000000000000e+00  -5.9467847861572216e-05 2.3972835424668215e-03 0.0000000000000000e+00  -4.6120948718155758e-05 2.4098953411730135e-03 0.0000000000000000e+00  -5.8429321566507559e-05 2.4086533990931324e-03 0.0000000000000000e+00  -5.7391506456270273e-05 2.4199429832304216e-03 0.0000000000000000e+00  -6.9318119157353244e-05 2.2800966562683015e-03 0.0000000000000000e+00  -8.0417654707513056e-05 2.2912986422995202e-03 0.0000000000000000e+00  -8.0466541019090867e-05 2.2801310591890481e-03 0.0000000000000000e+00  -8.0379707951398795e-05 2.3023860830519351e-03 0.0000000000000000e+00  -7.9230509536896914e-05 2.3144507111028225e-03 0.0000000000000000e+00  -7.8122082230352771e-05 2.3263842639612261e-03 0.0000000000000000e+00  -7.7036684428457214e-05 2.3381960542051420e-03 0.0000000000000000e+00  -7.5958831604577552e-05 2.3499106728957645e-03 0.0000000000000000e+00  -7.4886084490152343e-05 2.3615568807063181e-03 0.0000000000000000e+00  -7.3823813645928439e-05 2.3731444888740469e-03 0.0000000000000000e+00  -7.2772085979994799e-05 2.3846585575578783e-03 0.0000000000000000e+00  -7.1726759861140180e-05 2.3960894018988403e-03 0.0000000000000000e+00  -7.0683371393024272e-05 2.4074345605919639e-03 0.0000000000000000e+00  -6.9638971382268038e-05 2.4186959210437905e-03 0.0000000000000000e+00  -5.6352604184589951e-05 2.4311537210294260e-03 0.0000000000000000e+00  -6.8592302840937342e-05 2.4298764331765017e-03 0.0000000000000000e+00  -5.5311482411933642e-05 2.4422866179763603e-03 0.0000000000000000e+00  -6.7542927639536703e-05 2.4409776637828321e-03 0.0000000000000000e+00  -5.4267257169850628e-05 2.4533419963575689e-03 0.0000000000000000e+00  -6.6490579447012665e-05 2.4519999354170002e-03 0.0000000000000000e+00  -5.3219026846589499e-05 2.4643196270843102e-03 0.0000000000000000e+00  -6.5434895132455067e-05 2.4629427673680130e-03 0.0000000000000000e+00  -5.2165676556887444e-05 2.4752188540895083e-03 0.0000000000000000e+00  -6.4375207835698202e-05 2.4738050225605358e-03 0.0000000000000000e+00  -5.1105730135905999e-05 2.4860387977134880e-03 0.0000000000000000e+00  -6.3310369329914242e-05 2.4845851778334460e-03 0.0000000000000000e+00  -5.0037268843543153e-05 2.4967786373645941e-03 0.0000000000000000e+00  -6.2238658958720160e-05 2.4952817222294223e-03 0.0000000000000000e+00  -4.8957916491680303e-05 2.5074379045460183e-03 0.0000000000000000e+00  -6.1157777926220847e-05 2.5058935459795714e-03 0.0000000000000000e+00  -6.0064897575964576e-05 2.5164202574599120e-03 0.0000000000000000e+00  -9.1471334201567928e-05 2.2913338828919865e-03 0.0000000000000000e+00  -9.1542148232594912e-05 2.2801765941639009e-03 0.0000000000000000e+00  -9.1417617723345751e-05 2.3024205474518971e-03 0.0000000000000000e+00  -9.1373573891804881e-05 2.3134357785106765e-03 0.0000000000000000e+00  -9.0276924419680561e-05 2.3253648431780399e-03 0.0000000000000000e+00  -8.9216807367472866e-05 2.3371432233764743e-03 0.0000000000000000e+00  -8.8156549631476089e-05 2.3488136548208229e-03 0.0000000000000000e+00  -8.7089662115111374e-05 2.3604312628859596e-03 0.0000000000000000e+00  -8.6030132882613822e-05 2.3720093378274409e-03 0.0000000000000000e+00  -8.4979774040016938e-05 2.3835111789343878e-03 0.0000000000000000e+00  -8.3933221990117218e-05 2.3949218760847021e-03 0.0000000000000000e+00  -8.2885358510255923e-05 2.4062402078683554e-03 0.0000000000000000e+00  -8.1833652846092887e-05 2.4174711992984931e-03 0.0000000000000000e+00  -8.0778003518457815e-05 2.4286203347278781e-03 0.0000000000000000e+00  -7.9718989656957551e-05 2.4396896483624602e-03 0.0000000000000000e+00  -7.8657070570284740e-05 2.4506792521666924e-03 0.0000000000000000e+00  -7.7592504882162863e-05 2.4615883088461208e-03 0.0000000000000000e+00  -7.6525163019525237e-05 2.4724150319992088e-03 0.0000000000000000e+00  -7.5454297380282129e-05 2.4831570287415280e-03 0.0000000000000000e+00  -7.4378438373904490e-05 2.4938118772063196e-03 0.0000000000000000e+00  -7.3295405949988952e-05 2.5043776391723456e-03 0.0000000000000000e+00  -7.2202374976958512e-05 2.5148532332451424e-03 0.0000000000000000e+00  -7.1095967078573048e-05 2.5252387205636773e-03 0.0000000000000000e+00  -1.0245489650951347e-04 2.2913782659613273e-03 0.0000000000000000e+00  -1.0254615810275297e-04 2.2802322371001864e-03 0.0000000000000000e+00  -1.0237906007259824e-04 2.3024575379612432e-03 0.0000000000000000e+00  -1.0231950554356993e-04 2.3134727132036064e-03 0.0000000000000000e+00  -1.0226908911166567e-04 2.3244258445458380e-03 0.0000000000000000e+00  -1.0128349456282636e-04 2.3361575005599075e-03 0.0000000000000000e+00  -1.0028831521615063e-04 2.3477476203994192e-03 0.0000000000000000e+00  -9.9242518842964709e-05 2.3593234311028591e-03 0.0000000000000000e+00  -9.8189976952981923e-05 2.3709017722013822e-03 0.0000000000000000e+00  -9.7141637979195728e-05 2.3823945511522639e-03 0.0000000000000000e+00  -9.6092761863751015e-05 2.3937832581134156e-03 0.0000000000000000e+00  -9.5038433030512578e-05 2.4050708943728185e-03 0.0000000000000000e+00  -9.3977084541006789e-05 2.4162682040714109e-03 0.0000000000000000e+00  -9.2910320686205716e-05 2.4273845577351409e-03 0.0000000000000000e+00  -9.1839745903544184e-05 2.4384217232170835e-03 0.0000000000000000e+00  -9.0766348330373407e-05 2.4493791927608279e-03 0.0000000000000000e+00  -8.9690976166037804e-05 2.4602557454539405e-03 0.0000000000000000e+00  -8.8614112852730865e-05 2.4710487562393437e-03 0.0000000000000000e+00  -8.7535492039373243e-05 2.4817546646657748e-03 0.0000000000000000e+00  -8.6453961014688774e-05 2.4923698668203108e-03 0.0000000000000000e+00  -8.5367518821173114e-05 2.5028913843298515e-03 0.0000000000000000e+00  -8.4273399871953540e-05 2.5133172718159007e-03 0.0000000000000000e+00  -8.3168171541543300e-05 2.5236469223246078e-03 0.0000000000000000e+00  -8.2047848508649772e-05 2.5338813187348293e-03 0.0000000000000000e+00  -1.1337072290530079e-04 2.2914327090082266e-03 0.0000000000000000e+00  -1.1347765461806390e-04 2.2802994168259821e-03 0.0000000000000000e+00  -1.1327747805613124e-04 2.3025023878955248e-03 0.0000000000000000e+00  -1.1319848290531016e-04 2.3135115902623571e-03 0.0000000000000000e+00  -1.1313346603645436e-04 2.3244648794368793e-03 0.0000000000000000e+00  -1.1307715363904080e-04 2.3353620113963159e-03 0.0000000000000000e+00  -1.1241698048754368e-04 2.3467178118236403e-03 0.0000000000000000e+00  -1.1139956506010723e-04 2.3582172706458526e-03 0.0000000000000000e+00  -1.1033348664645794e-04 2.3698211281639684e-03 0.0000000000000000e+00  -1.0927146179117545e-04 2.3813100781017900e-03 0.0000000000000000e+00  -1.0821065658329188e-04 2.3926742172588381e-03 0.0000000000000000e+00  -1.0714410815633471e-04 2.4039257072829591e-03 0.0000000000000000e+00  -1.0606935067331656e-04 2.4150850750536547e-03 0.0000000000000000e+00  -1.0498917788710922e-04 2.4261675787663347e-03 0.0000000000000000e+00  -1.0390527799203819e-04 2.4371725704808883e-03 0.0000000000000000e+00  -1.0281840927188121e-04 2.4480984685549649e-03 0.0000000000000000e+00  -1.0172992052906201e-04 2.4589440190535767e-03 0.0000000000000000e+00  -1.0064107802443813e-04 2.4697055568532614e-03 0.0000000000000000e+00  -9.9552250724071724e-05 2.4803779379051032e-03 0.0000000000000000e+00  -9.8462719179334216e-05 2.4909560431541065e-03 0.0000000000000000e+00  -9.7370766930294687e-05 2.5014356254372322e-03 0.0000000000000000e+00  -9.6273783139491900e-05 2.5118136876507123e-03 0.0000000000000000e+00  -9.5168360179474144e-05 2.5220887861146808e-03 0.0000000000000000e+00  -9.4050404283846766e-05 2.5322612971443166e-03 0.0000000000000000e+00  -9.2915264597785902e-05 2.5423336557885696e-03 0.0000000000000000e+00  -1.2422050715217716e-04 2.2914993918981665e-03 0.0000000000000000e+00  -1.2433760648970091e-04 2.2803814516586356e-03 0.0000000000000000e+00  -1.2411477010521922e-04 2.3025573719319984e-03 0.0000000000000000e+00  -1.2402193126441084e-04 2.3135583497473008e-03 0.0000000000000000e+00  -1.2394307825288524e-04 2.3245046270486624e-03 0.0000000000000000e+00  -1.2387700507931931e-04 2.3353980046820861e-03 0.0000000000000000e+00  -1.2381923075307071e-04 2.3462351737707655e-03 0.0000000000000000e+00  -1.2375136895867382e-04 2.3570240737134322e-03 0.0000000000000000e+00  -1.2250352828280280e-04 2.3687511601989996e-03 0.0000000000000000e+00  -1.2137008214855562e-04 2.3802533907940830e-03 0.0000000000000000e+00  -1.2027895003279058e-04 2.3915938945605494e-03 0.0000000000000000e+00  -1.1919545834732743e-04 2.4028029883797633e-03 0.0000000000000000e+00  -1.1810627728839843e-04 2.4139193394756803e-03 0.0000000000000000e+00  -1.1701324841477662e-04 2.4249680848524953e-03 0.0000000000000000e+00  -1.1591610697036627e-04 2.4359409002252400e-03 0.0000000000000000e+00  -1.1481429769381079e-04 2.4468353297906788e-03 0.0000000000000000e+00  -1.1371004694853301e-04 2.4576514340312766e-03 0.0000000000000000e+00  -1.1260600161707987e-04 2.4683841558695440e-03 0.0000000000000000e+00  -1.1150352747736835e-04 2.4790260915265316e-03 0.0000000000000000e+00  -1.1040256211424132e-04 2.4895701869553574e-03 0.0000000000000000e+00  -1.0930185718006415e-04 2.5000106923471653e-03 0.0000000000000000e+00  -1.0819910585754167e-04 2.5103433563675227e-03 0.0000000000000000e+00  -1.0709103887144017e-04 2.5205657091974462e-03 0.0000000000000000e+00  -1.0597353678046193e-04 2.5306773349313772e-03 0.0000000000000000e+00  -1.0484174562995950e-04 2.5406801204290045e-03 0.0000000000000000e+00  -1.0369021685597601e-04 2.5505785513222933e-03 0.0000000000000000e+00  -1.3500614198674462e-04 2.2915801729517021e-03 0.0000000000000000e+00  -1.3512814203921964e-04 2.2804812749299577e-03 0.0000000000000000e+00  -1.3489166427121404e-04 2.3026239073554622e-03 0.0000000000000000e+00  -1.3478782198472254e-04 2.3136153930349563e-03 0.0000000000000000e+00  -1.3469787728719599e-04 2.3245548404104669e-03 0.0000000000000000e+00  -1.3462309650766590e-04 2.3354392772840034e-03 0.0000000000000000e+00  -1.3456210381663589e-04 2.3462648022876849e-03 0.0000000000000000e+00  -1.3451221178171965e-04 2.3570237575508677e-03 0.0000000000000000e+00  -1.3448543143745469e-04 2.3676909277186098e-03 0.0000000000000000e+00  -1.3333423882602285e-04 2.3792290862386469e-03 0.0000000000000000e+00  -1.3224670069791894e-04 2.3905503892271214e-03 0.0000000000000000e+00  -1.3116974259920307e-04 2.4017058808560431e-03 0.0000000000000000e+00  -1.3007960202008503e-04 2.4127703969586013e-03 0.0000000000000000e+00  -1.2898235146658439e-04 2.4237869622482748e-03 0.0000000000000000e+00  -1.2787566574896605e-04 2.4347261596328641e-03 0.0000000000000000e+00  -1.2675790361303606e-04 2.4455873972916062e-03 0.0000000000000000e+00  -1.2563432240602306e-04 2.4563753453120678e-03 0.0000000000000000e+00  -1.2451047434006791e-04 2.4670823550315617e-03 0.0000000000000000e+00  -1.2338936710238653e-04 2.4776974977140345e-03 0.0000000000000000e+00  -1.2227193242961336e-04 2.4882112601758910e-03 0.0000000000000000e+00  -1.2115766335502842e-04 2.4986161804275027e-03 0.0000000000000000e+00  -1.2004475607636566e-04 2.5089065222462545e-03 0.0000000000000000e+00  -1.1893020842162236e-04 2.5190785725475156e-03 0.0000000000000000e+00  -1.1780996324041546e-04 2.5291309133419855e-03 0.0000000000000000e+00  -1.1667902013984709e-04 2.5390646342225991e-03 0.0000000000000000e+00  -1.1553151980001483e-04 2.5488836605692274e-03 0.0000000000000000e+00  -1.0251313719937628e-04 2.5603800888032787e-03 0.0000000000000000e+00  -1.1436089563293531e-04 2.5585952884962589e-03 0.0000000000000000e+00  -1.0130474293489120e-04 2.5700955957016700e-03 0.0000000000000000e+00  -1.1316025465115324e-04 2.5682109216325177e-03 0.0000000000000000e+00  -1.0006001245853369e-04 2.5797397438070105e-03 0.0000000000000000e+00  -1.1192324050464371e-04 2.5777469282228091e-03 0.0000000000000000e+00  -9.8775569995803068e-05 2.5893309857085516e-03 0.0000000000000000e+00  -1.1064512714864113e-04 2.5872248074937671e-03 0.0000000000000000e+00  -9.7451150699294717e-05 2.5988921151249402e-03 0.0000000000000000e+00  -1.0932571392350988e-04 2.5966731025468047e-03 0.0000000000000000e+00  -9.6090707719248002e-05 2.6084479459578909e-03 0.0000000000000000e+00  -1.0797011140786130e-04 2.6061239313676402e-03 0.0000000000000000e+00  -9.4701287893696594e-05 2.6180228194011982e-03 0.0000000000000000e+00  -1.0658992196196877e-04 2.6156045228719841e-03 0.0000000000000000e+00  -9.3295717789697844e-05 2.6276391193863005e-03 0.0000000000000000e+00  -1.0519487660280704e-04 2.6251510056644629e-03 0.0000000000000000e+00  -9.1886490946968403e-05 2.6373326098624826e-03 0.0000000000000000e+00  -1.0383920252394895e-04 2.6347881735606271e-03 0.0000000000000000e+00  -9.0533979457505616e-05 2.6471339392985277e-03 0.0000000000000000e+00  -1.0253181914962843e-04 2.6447119283663193e-03 0.0000000000000000e+00  -8.9258730215203752e-05 2.6572511798791439e-03 0.0000000000000000e+00  -1.0188929803896201e-04 2.6549562319275180e-03 0.0000000000000000e+00  -8.8668170560786346e-05 2.6677471028271563e-03 0.0000000000000000e+00  -1.0184910544172455e-04 2.6677812450119610e-03 0.0000000000000000e+00  -1.0183041780127545e-04 2.6807355919414898e-03 0.0000000000000000e+00  -1.4573130424866897e-04 2.2916758606814957e-03 0.0000000000000000e+00  -1.4584695067925099e-04 2.2805959041184284e-03 0.0000000000000000e+00  -1.4561102134384433e-04 2.3027016971396124e-03 0.0000000000000000e+00  -1.4549637103823541e-04 2.3136822301224320e-03 0.0000000000000000e+00  -1.4539373923694453e-04 2.3246160631028947e-03 0.0000000000000000e+00  -1.4530696274716023e-04 2.3354944718381775e-03 0.0000000000000000e+00  -1.4523631869291456e-04 2.3463086242713716e-03 0.0000000000000000e+00  -1.4518057301335816e-04 2.3570518784598580e-03 0.0000000000000000e+00  -1.4513964989039258e-04 2.3677174661664844e-03 0.0000000000000000e+00  -1.4511439753865502e-04 2.3782890161273074e-03 0.0000000000000000e+00  -1.4407533706541412e-04 2.3895837431668842e-03 0.0000000000000000e+00  -1.4305540715513855e-04 2.4006515928458386e-03 0.0000000000000000e+00  -1.4199393006663897e-04 2.4116412071949075e-03 0.0000000000000000e+00  -1.4090779410071453e-04 2.4226291131254889e-03 0.0000000000000000e+00  -1.3979608345267828e-04 2.4335282590665650e-03 0.0000000000000000e+00  -1.3865883699065511e-04 2.4443504175095231e-03 0.0000000000000000e+00  -1.3750937429256693e-04 2.4551112834215343e-03 0.0000000000000000e+00  -1.3635845088902121e-04 2.4657964773140213e-03 0.0000000000000000e+00  -1.3521124936620126e-04 2.4763892215231985e-03 0.0000000000000000e+00  -1.3406998360258925e-04 2.4868770412451642e-03 0.0000000000000000e+00  -1.3293522448157982e-04 2.4972506680266122e-03 0.0000000000000000e+00  -1.3180588698018090e-04 2.5075025786893477e-03 0.0000000000000000e+00  -1.3067932773287488e-04 2.5176275601322667e-03 0.0000000000000000e+00  -1.2955159524494003e-04 2.5276229793514998e-03 0.0000000000000000e+00  -1.2841758072911698e-04 2.5374888520498977e-03 0.0000000000000000e+00  -1.2727103405783382e-04 2.5472281187017536e-03 0.0000000000000000e+00  -1.2610453980301588e-04 2.5568473335428068e-03 0.0000000000000000e+00  -1.2490972788607049e-04 2.5663578232736693e-03 0.0000000000000000e+00  -1.2367817024849830e-04 2.5757774443054301e-03 0.0000000000000000e+00  -1.2240282272219741e-04 2.5851306104073260e-03 0.0000000000000000e+00  -1.2108273240698116e-04 2.5944552457748643e-03 0.0000000000000000e+00  -1.1972814491359380e-04 2.6037917155285451e-03 0.0000000000000000e+00  -1.1834891357729538e-04 2.6131814953315726e-03 0.0000000000000000e+00  -1.1699750201128427e-04 2.6226477072932935e-03 0.0000000000000000e+00  -1.1567820059437859e-04 2.6323777274433286e-03 0.0000000000000000e+00  -1.1500801281858237e-04 2.6423907417761146e-03 0.0000000000000000e+00  -1.1494674917336216e-04 2.6550075054617103e-03 0.0000000000000000e+00  -1.1491480839028886e-04 2.6677799251980444e-03 0.0000000000000000e+00  -1.1490011446230173e-04 2.6807039752366714e-03 0.0000000000000000e+00  -1.1490492464796748e-04 2.6937517297046594e-03 0.0000000000000000e+00  -1.5638973911373706e-04 2.2917868937394176e-03 0.0000000000000000e+00  -1.5487646934418632e-04 2.2831920907728448e-03 0.0000000000000000e+00  -1.5627998691278156e-04 2.3027885501884374e-03 0.0000000000000000e+00  -1.5615394151590050e-04 2.3137553702247508e-03 0.0000000000000000e+00  -1.5603344761301569e-04 2.3246857055759921e-03 0.0000000000000000e+00  -1.5592812989286451e-04 2.3355617483575442e-03 0.0000000000000000e+00  -1.5584019503258464e-04 2.3463682519051635e-03 0.0000000000000000e+00  -1.5576917120524168e-04 2.3570978272866800e-03 0.0000000000000000e+00  -1.5571507297196225e-04 2.3677468292091328e-03 0.0000000000000000e+00  -1.5567819627728153e-04 2.3783124305558085e-03 0.0000000000000000e+00  -1.5565726869214516e-04 2.3887770588771175e-03 0.0000000000000000e+00  -1.5483517587778028e-04 2.3996831298390845e-03 0.0000000000000000e+00  -1.5389303138729437e-04 2.4105285718459620e-03 0.0000000000000000e+00  -1.5282585034509402e-04 2.4215013591377672e-03 0.0000000000000000e+00  -1.5170253792740654e-04 2.4323441961819365e-03 0.0000000000000000e+00  -1.5053332483773321e-04 2.4431149870651819e-03 0.0000000000000000e+00  -1.4934567053597839e-04 2.4538514566688273e-03 0.0000000000000000e+00  -1.4815634535875381e-04 2.4645205935352127e-03 0.0000000000000000e+