<?xml version="1.0"?>
<VTKFile type="UnstructuredGrid"  version="0.1"  >
<UnstructuredGrid>
<Piece  NumberOfPoints="2406" NumberOfCells="4616">
<Points>
<DataArray  type="Float64"  NumberOfComponents="3"  format="ascii">1.429130434782609 0 0  1.437391304347826 0 0  1.437391304347826 0.008333333333333333 0  1.445652173913043 0 0  1.445652173913043 0.008333333333333333 0  1.453913043478261 0 0  1.453913043478261 0.008333333333333333 0  1.462173913043478 0 0  1.462173913043478 0.008333333333333333 0  1.470434782608696 0 0  1.470434782608696 0.008333333333333333 0  1.478695652173913 0 0  1.478695652173913 0.008333333333333333 0  1.486956521739131 0 0  1.486956521739131 0.008333333333333333 0  1.495217391304348 0 0  1.495217391304348 0.008333333333333333 0  1.503478260869565 0 0  1.503478260869565 0.008333333333333333 0  1.511739130434782 0 0  1.511739130434782 0.008333333333333333 0  1.52 0 0  1.52 0.008333333333333333 0  1.528260869565217 0 0  1.528260869565217 0.008333333333333333 0  1.536521739130435 0 0  1.536521739130435 0.008333333333333333 0  1.544782608695652 0 0  1.544782608695652 0.008333333333333333 0  1.55304347826087 0 0  1.55304347826087 0.008333333333333333 0  1.561304347826087 0 0  1.561304347826087 0.008333333333333333 0  1.569565217391304 0 0  1.569565217391304 0.008333333333333333 0  1.577826086956522 0 0  1.577826086956522 0.008333333333333333 0  1.586086956521739 0 0  1.586086956521739 0.008333333333333333 0  1.594347826086957 0 0  1.594347826086957 0.008333333333333333 0  1.602608695652174 0 0  1.602608695652174 0.008333333333333333 0  1.610869565217391 0 0  1.610869565217391 0.008333333333333333 0  1.619130434782609 0 0  1.619130434782609 0.008333333333333333 0  1.627391304347826 0 0  1.627391304347826 0.008333333333333333 0  1.635652173913043 0 0  1.635652173913043 0.008333333333333333 0  1.643913043478261 0 0  1.643913043478261 0.008333333333333333 0  1.652173913043478 0 0  1.652173913043478 0.008333333333333333 0  1.660434782608696 0 0  1.660434782608696 0.008333333333333333 0  1.668695652173913 0 0  1.668695652173913 0.008333333333333333 0  1.67695652173913 0 0  1.67695652173913 0.008333333333333333 0  1.685217391304348 0 0  1.685217391304348 0.008333333333333333 0  1.693478260869565 0 0  1.693478260869565 0.008333333333333333 0  1.701739130434782 0 0  1.701739130434782 0.008333333333333333 0  1.71 0 0  1.71 0.008333333333333333 0  1.718260869565217 0 0  1.718260869565217 0.008333333333333333 0  1.726521739130435 0 0  1.726521739130435 0.008333333333333333 0  1.734782608695652 0 0  1.734782608695652 0.008333333333333333 0  1.743043478260869 0 0  1.743043478260869 0.008333333333333333 0  1.751304347826087 0 0  1.751304347826087 0.008333333333333333 0  1.759565217391304 0 0  1.759565217391304 0.008333333333333333 0  1.767826086956522 0 0  1.767826086956522 0.008333333333333333 0  1.776086956521739 0.008333333333333333 0  1.445652173913043 0.01666666666666667 0  1.453913043478261 0.01666666666666667 0  1.462173913043478 0.01666666666666667 0  1.470434782608696 0.01666666666666667 0  1.478695652173913 0.01666666666666667 0  1.486956521739131 0.01666666666666667 0  1.495217391304348 0.01666666666666667 0  1.503478260869565 0.01666666666666667 0  1.511739130434782 0.01666666666666667 0  1.52 0.01666666666666667 0  1.528260869565217 0.01666666666666667 0  1.536521739130435 0.01666666666666667 0  1.544782608695652 0.01666666666666667 0  1.55304347826087 0.01666666666666667 0  1.561304347826087 0.01666666666666667 0  1.569565217391304 0.01666666666666667 0  1.577826086956522 0.01666666666666667 0  1.586086956521739 0.01666666666666667 0  1.594347826086957 0.01666666666666667 0  1.602608695652174 0.01666666666666667 0  1.610869565217391 0.01666666666666667 0  1.619130434782609 0.01666666666666667 0  1.627391304347826 0.01666666666666667 0  1.635652173913043 0.01666666666666667 0  1.643913043478261 0.01666666666666667 0  1.652173913043478 0.01666666666666667 0  1.660434782608696 0.01666666666666667 0  1.668695652173913 0.01666666666666667 0  1.67695652173913 0.01666666666666667 0  1.685217391304348 0.01666666666666667 0  1.693478260869565 0.01666666666666667 0  1.701739130434782 0.01666666666666667 0  1.71 0.01666666666666667 0  1.718260869565217 0.01666666666666667 0  1.726521739130435 0.01666666666666667 0  1.734782608695652 0.01666666666666667 0  1.743043478260869 0.01666666666666667 0  1.751304347826087 0.01666666666666667 0  1.759565217391304 0.01666666666666667 0  1.767826086956522 0.01666666666666667 0  1.776086956521739 0.01666666666666667 0  1.453913043478261 0.025 0  1.462173913043478 0.025 0  1.470434782608696 0.025 0  1.478695652173913 0.025 0  1.486956521739131 0.025 0  1.495217391304348 0.025 0  1.503478260869565 0.025 0  1.511739130434782 0.025 0  1.52 0.025 0  1.528260869565217 0.025 0  1.536521739130435 0.025 0  1.544782608695652 0.025 0  1.55304347826087 0.025 0  1.561304347826087 0.025 0  1.569565217391304 0.025 0  1.577826086956522 0.025 0  1.586086956521739 0.025 0  1.594347826086957 0.025 0  1.602608695652174 0.025 0  1.610869565217391 0.025 0  1.619130434782609 0.025 0  1.627391304347826 0.025 0  1.635652173913043 0.025 0  1.643913043478261 0.025 0  1.652173913043478 0.025 0  1.660434782608696 0.025 0  1.668695652173913 0.025 0  1.67695652173913 0.025 0  1.685217391304348 0.025 0  1.693478260869565 0.025 0  1.701739130434782 0.025 0  1.71 0.025 0  1.718260869565217 0.025 0  1.726521739130435 0.025 0  1.734782608695652 0.025 0  1.743043478260869 0.025 0  1.751304347826087 0.025 0  1.759565217391304 0.025 0  1.767826086956522 0.025 0  1.776086956521739 0.025 0  1.784347826086957 0.025 0  1.462173913043478 0.03333333333333333 0  1.470434782608696 0.03333333333333333 0  1.478695652173913 0.03333333333333333 0  1.486956521739131 0.03333333333333333 0  1.495217391304348 0.03333333333333333 0  1.503478260869565 0.03333333333333333 0  1.511739130434782 0.03333333333333333 0  1.52 0.03333333333333333 0  1.528260869565217 0.03333333333333333 0  1.536521739130435 0.03333333333333333 0  1.544782608695652 0.03333333333333333 0  1.55304347826087 0.03333333333333333 0  1.561304347826087 0.03333333333333333 0  1.569565217391304 0.03333333333333333 0  1.577826086956522 0.03333333333333333 0  1.586086956521739 0.03333333333333333 0  1.594347826086957 0.03333333333333333 0  1.602608695652174 0.03333333333333333 0  1.610869565217391 0.03333333333333333 0  1.619130434782609 0.03333333333333333 0  1.627391304347826 0.03333333333333333 0  1.635652173913043 0.03333333333333333 0  1.643913043478261 0.03333333333333333 0  1.652173913043478 0.03333333333333333 0  1.660434782608696 0.03333333333333333 0  1.668695652173913 0.03333333333333333 0  1.67695652173913 0.03333333333333333 0  1.685217391304348 0.03333333333333333 0  1.693478260869565 0.03333333333333333 0  1.701739130434782 0.03333333333333333 0  1.71 0.03333333333333333 0  1.718260869565217 0.03333333333333333 0  1.726521739130435 0.03333333333333333 0  1.734782608695652 0.03333333333333333 0  1.743043478260869 0.03333333333333333 0  1.751304347826087 0.03333333333333333 0  1.759565217391304 0.03333333333333333 0  1.767826086956522 0.03333333333333333 0  1.776086956521739 0.03333333333333333 0  1.784347826086957 0.03333333333333333 0  1.470434782608696 0.04166666666666666 0  1.478695652173913 0.04166666666666666 0  1.486956521739131 0.04166666666666666 0  1.495217391304348 0.04166666666666666 0  1.503478260869565 0.04166666666666666 0  1.511739130434782 0.04166666666666666 0  1.52 0.04166666666666666 0  1.528260869565217 0.04166666666666666 0  1.536521739130435 0.04166666666666666 0  1.544782608695652 0.04166666666666666 0  1.55304347826087 0.04166666666666666 0  1.561304347826087 0.04166666666666666 0  1.569565217391304 0.04166666666666666 0  1.577826086956522 0.04166666666666666 0  1.586086956521739 0.04166666666666666 0  1.594347826086957 0.04166666666666666 0  1.602608695652174 0.04166666666666666 0  1.610869565217391 0.04166666666666666 0  1.619130434782609 0.04166666666666666 0  1.627391304347826 0.04166666666666666 0  1.635652173913043 0.04166666666666666 0  1.643913043478261 0.04166666666666666 0  1.652173913043478 0.04166666666666666 0  1.660434782608696 0.04166666666666666 0  1.668695652173913 0.04166666666666666 0  1.67695652173913 0.04166666666666666 0  1.685217391304348 0.04166666666666666 0  1.693478260869565 0.04166666666666666 0  1.701739130434782 0.04166666666666666 0  1.71 0.04166666666666666 0  1.718260869565217 0.04166666666666666 0  1.726521739130435 0.04166666666666666 0  1.734782608695652 0.04166666666666666 0  1.743043478260869 0.04166666666666666 0  1.751304347826087 0.04166666666666666 0  1.759565217391304 0.04166666666666666 0  1.767826086956522 0.04166666666666666 0  1.776086956521739 0.04166666666666666 0  1.784347826086957 0.04166666666666666 0  1.792608695652174 0.04166666666666666 0  1.478695652173913 0.05 0  1.486956521739131 0.05 0  1.495217391304348 0.05 0  1.503478260869565 0.05 0  1.511739130434782 0.05 0  1.52 0.05 0  1.528260869565217 0.05 0  1.536521739130435 0.05 0  1.544782608695652 0.05 0  1.55304347826087 0.05 0  1.561304347826087 0.05 0  1.569565217391304 0.05 0  1.577826086956522 0.05 0  1.586086956521739 0.05 0  1.594347826086957 0.05 0  1.602608695652174 0.05 0  1.610869565217391 0.05 0  1.619130434782609 0.05 0  1.627391304347826 0.05 0  1.635652173913043 0.05 0  1.643913043478261 0.05 0  1.652173913043478 0.05 0  1.660434782608696 0.05 0  1.668695652173913 0.05 0  1.67695652173913 0.05 0  1.685217391304348 0.05 0  1.693478260869565 0.05 0  1.701739130434782 0.05 0  1.71 0.05 0  1.718260869565217 0.05 0  1.726521739130435 0.05 0  1.734782608695652 0.05 0  1.743043478260869 0.05 0  1.751304347826087 0.05 0  1.759565217391304 0.05 0  1.767826086956522 0.05 0  1.776086956521739 0.05 0  1.784347826086957 0.05 0  1.792608695652174 0.05 0  1.800869565217391 0.05 0  1.486956521739131 0.05833333333333333 0  1.495217391304348 0.05833333333333333 0  1.503478260869565 0.05833333333333333 0  1.5117391304347
[...]
<CellData  Scalars="sigma_m"> 
<DataArray  type="Float64"  Name="sigma_m"  format="ascii">8.7722329496778492e+06   9.1143110819318946e+06   9.3131319159109220e+06   9.7068036723985728e+06   9.4219754026419688e+06   1.0382498654703345e+07   9.5769721098009758e+06   1.0943228750203745e+07   9.7131367278001606e+06   1.1298720345526632e+07   9.7982673295600414e+06   1.1478317666286480e+07   9.8348850557496380e+06   1.1596662990467042e+07   9.8689225802026317e+06   1.1776929146570276e+07   9.9587994090853557e+06   1.2103404326134320e+07   1.0144666305039421e+07   1.2612432925301995e+07   1.0439311402135823e+07   1.3300304420657996e+07   1.0832157353028608e+07   1.4132592416395046e+07   1.1295439985628055e+07   1.5049854266903713e+07   1.1788338508422347e+07   1.5970657206926316e+07   1.2259535704704782e+07   1.6800580181979842e+07   1.2654575357351504e+07   1.7439815153219968e+07   1.2923216694503961e+07   1.7807898244472623e+07   1.3040112966934090e+07   1.7820495363531463e+07   1.2987288914301440e+07   1.7392452674333867e+07   1.2742919854838612e+07   1.6459713324158369e+07   1.2295964662320977e+07   1.5068008210710686e+07   1.1698767857212715e+07   1.3211389261548009e+07   1.0961966279672677e+07   1.0974194663516076e+07   1.0003323805035580e+07   8.6028543285638951e+06   8.8061774649547637e+06   6.3698707459827187e+06   7.4533861445254190e+06   4.5157498331081374e+06   6.1449825455040084e+06   3.1803888090832545e+06   5.1395710172147108e+06   2.3248073729962227e+06   4.3961547322951807e+06   1.8126299292617659e+06   3.8493782442091298e+06   1.6204071351159874e+06   3.5194042119999444e+06   1.7498680232532264e+06   3.3679000959300562e+06   2.1112542871644716e+06   3.3463827387334933e+06   2.6182284810725572e+06   3.4426469883383061e+06   3.2325207519752635e+06   3.6513173989788271e+06   3.9308070003818325e+06   3.9564966182904723e+06   4.6808938045328455e+06   4.3333935912136072e+06   5.4303846865661684e+06   4.7496951677979678e+06   6.1002585203884831e+06   5.1649634185673147e+06   6.5854440842363071e+06   5.5300281777474014e+06   6.7648754050885169e+06   5.7877677084586425e+06   5.9050150590590844e+06   9.3017190730783716e+06   9.4383682996101100e+06   9.1183649641322605e+06   9.6179481328044534e+06   8.7946333951064274e+06   9.7292684295728244e+06   8.5244810471972208e+06   9.7593199224197306e+06   8.2878858480238747e+06   9.7471504150603469e+06   8.0715117826684155e+06   9.7692727313221600e+06   7.9080410712774908e+06   9.8841360107661970e+06   7.8429995460790172e+06   1.0120217728971867e+07   7.8890436285373792e+06   1.0476610565413646e+07   8.0277877354463916e+06   1.0928355732474327e+07   8.2241199833230814e+06   1.1432932835450081e+07   8.4370104636573456e+06   1.1935592521446550e+07   8.6246455650120769e+06   1.2374016270937715e+07   8.7461958428061977e+06   1.2690873132893261e+07   8.7752715359879993e+06   1.2840792228176737e+07   8.7034365358611997e+06   1.2820622421036633e+07   8.5820502526508030e+06   1.2621222044415804e+07   8.4878847478703372e+06   1.2238610632038509e+07   8.4621749193557464e+06   1.1694277060573345e+07   8.4772307772038765e+06   1.1137368667308973e+07   8.5328610658266395e+06   1.0552596091986625e+07   8.8792827757344153e+06   9.9082135471981894e+06   9.2136278482426796e+06   9.1657137906164099e+06   9.3314568419769164e+06   8.2238485646906672e+06   9.1367274025514014e+06   7.0748567471881323e+06   8.3753841641453747e+06   5.9405003572470658e+06   7.4684517021549735e+06   4.9618001797943804e+06   6.5970293201391883e+06   4.1428895130084539e+06   5.7106619657459557e+06   3.5743855219019791e+06   4.9927175878080968e+06   3.3024115078831264e+06   4.5003403978136899e+06   3.2729643132209214e+06   4.1717141951146163e+06   3.4255485035228156e+06   3.9835053065726915e+06   3.7170558305291557e+06   3.9315302335786470e+06   4.1028974519239012e+06   3.9923465035457574e+06   4.5356209513331447e+06   4.1326735499078995e+06   4.9674367124913828e+06   4.3230243388062250e+06   5.3517160317574311e+06   4.5439427058537807e+06   5.6455713125907322e+06   4.7848759274711097e+06   5.8092083282351028e+06   5.0194572254706295e+06   5.8516503247066978e+06   5.2732138070090245e+06   9.0516751354431249e+06   8.7487907683772687e+06   7.6781895390440514e+06   8.4725278573635798e+06   6.9547141992268069e+06   8.1919008060936015e+06   6.5180263664372144e+06   7.9342281082633799e+06   6.1318979948536325e+06   7.7910421052615931e+06   5.7973683836396234e+06   7.7970647311055465e+06   5.6044163608898064e+06   7.9368367623459138e+06   5.5560753954451764e+06   8.1690600127200456e+06   5.5992857605702588e+06   8.4417298700101096e+06   5.6687642021856140e+06   8.6997077552154530e+06   5.7057212791007152e+06   8.8879461798113510e+06   5.6627995012080455e+06   8.9531692315635104e+06   5.5040816385546839e+06   8.8640291278981864e+06   5.2389415537894703e+06   8.6076968066186011e+06   4.9278108228264991e+06   8.2723758926838012e+06   4.6908263111579167e+06   7.9227969729187172e+06   4.7016107727574762e+06   7.5905908904039292e+06   5.0342628561546952e+06   7.2614469216724709e+06   5.5142589369402863e+06   7.2384238410839075e+06   5.3435664531028476e+06   7.5928547551144538e+06   5.6705205588786425e+06   8.1962421331883883e+06   7.1128235640952652e+06   8.9359320237874240e+06   8.9736721971855387e+06   9.4460045050054360e+06   1.1141900643522842e+07   9.2986896495467015e+06   1.1798277735552615e+07   8.4807022215782702e+06   1.0284041505170805e+07   7.4898587319523059e+06   9.0524429886861630e+06   6.3604315271912254e+06   7.6613797357898504e+06   5.3235747719634278e+06   6.3008089887387920e+06   4.5703718547203345e+06   5.2966962578038387e+06   4.0948755606045579e+06   4.5685355603436446e+06   3.8689669232727629e+06   4.0676765331632067e+06   3.8662761396174589e+06   3.7932278962176885e+06   4.0235572742878455e+06   3.7002199738130998e+06   4.2660372311877366e+06   3.7208662240319871e+06   4.5342907378091654e+06   3.8001183442517454e+06   4.7912078922072742e+06   3.9055851318883263e+06   5.0106001304801162e+06   4.0293715529574649e+06   5.1297104784712968e+06   4.1331622619888810e+06   5.2393043084503375e+06   4.2692588307137685e+06   4.6944983306122441e+06   7.6436470106470622e+06   6.7892891678874604e+06   4.4495911777612912e+06   6.2895442589955246e+06   4.2464186778462632e+06   5.8797643514810810e+06   3.9895681789368754e+06   5.6508636497457530e+06   3.5800407760024327e+06   5.6131427872315552e+06   3.3490554869710431e+06   5.7037078771821922e+06   3.2984817881677039e+06   5.8447096841248460e+06   3.3165267841119035e+06   5.9661314427499529e+06   3.3059252927683163e+06   6.0084250110006854e+06   3.2010207830399228e+06   5.9208140066888956e+06   2.9637520093196696e+06   5.6530217052382128e+06   2.6141558877641098e+06   5.1934095494470932e+06   2.3887630388432452e+06   4.5402079525738312e+06   2.7757266207648506e+06   3.8596330392200644e+06   3.6074747225364102e+06   3.2716200718356036e+06   4.7370247164215539e+06   2.8880731214935156e+06   5.7293574606370917e+06   2.6470582162769116e+06   6.3842872312469622e+06   2.9713089799084184e+06   4.6129623003642140e+06   3.7146160467616618e+06   4.2286072067569457e+06   5.5065900479858536e+06   3.0470411429637447e+06   7.7724267812234061e+06   5.4313527696567606e+06   1.0141066109797847e+07   8.7988726124120168e+06   1.2091748588125786e+07   1.3540359625998775e+07   1.2107240046628192e+07   1.4938351903431676e+07   1.0398530549143855e+07   1.0859467830826975e+07   8.9602824130717125e+06   1.0418100503627539e+07   7.1792781406805227e+06   7.7029828367342418e+06   5.7503645910298936e+06   5.9242894473048607e+06   4.7136464330846742e+06   4.7020205129618393e+06   4.0236523176161996e+06   3.8158716756042298e+06   3.6836939072033348e+06   3.2832513933632807e+06   3.6258095981228156e+06   3.0531213100739708e+06   3.7374942460734835e+06   3.0055827771565397e+06   3.9269953616391667e+06   3.0373114045056142e+06   4.1345879840606125e+06   3.0734228115562997e+06   4.3188562031469969e+06   3.0439873542811978e+06   4.3235028280528150e+06   2.8292159810325806e+06   4.3198915356532158e+06   2.6891455819783052e+06   4.9695491384120537e+06   2.6792571398685263e+06   3.6879861752444594e+06   3.6682196087999414e+06   1.8554459360352382e+06   3.5143466322007114e+06   2.0580816378308570e+06   3.4546431220082068e+06   1.5432027541587614e+06   3.5174714571448779e+06   1.3587724294292873e+06   3.6162153519857423e+06   1.4110287517054614e+06   3.6701047668105625e+06   1.4345160478450919e+06   3.6221996098306756e+06   1.3244294441171207e+06   3.4317286345400712e+06   1.0595448885575323e+06   3.0734782156499242e+06   8.2068153115908522e+05   2.5471638452119147e+06   1.4536118198766354e+06   2.0237111287680431e+06   2.9809308126836349e+06   1.9615498049270008e+06   5.2401469927250203e+06   2.9159341945049623e+06   6.9478612130049355e+06   4.8361643383936351e+06   8.3651045916267866e+06   6.2790174821975920e+06   1.0051347140362069e+07   4.4986047462566150e+06   1.1771609227249604e+07   1.0540681280822253e+06   1.3151488222040622e+06   2.2205466930378860e+05   1.0900173994384857e+04   8.9336598509515024e+03   2.6042734283723644e+02   1.3112299488331616e+03   2.8153262977602068e+01   1.0206276969762440e+03   1.2805351807126989e+01   5.1688786705692337e+03   2.8569949580290515e+01   1.6521411907576848e+05   3.2560225047679609e+02   6.6796788601153297e+06   2.0234936018546035e+04   1.1986401002353987e+07   7.1254559474029243e+06   9.6772652557611875e+06   9.8525130784194339e+06   7.0035250806659264e+06   6.6136662124346457e+06   5.2793379525531624e+06   4.9163254399364600e+06   4.0614456160450014e+06   3.5904690351601513e+06   3.3099465673475643e+06   2.6943091750367982e+06   2.9741844061559360e+06   2.2402963106119242e+06   2.9168960364599908e+06   2.0805609532410400e+06   3.0091608334721564e+06   2.0720504181457735e+06   3.1489391637024293e+06   2.1078477498230175e+06   3.1965699410821148e+06   2.0978661917926185e+06   2.9023182875519255e+06   1.9249344820406430e+06   2.4002308671962521e+06   2.1439791532289223e+06   1.5346718665713079e+06   9.1272721324662643e+05   1.7663209080395292e+04   1.9754377822148479e+06   1.5109955743468306e+06   7.7614743810979603e+05   1.7941590613444897e+06   5.4989895292482234e+05   1.9655486443844833e+06   7.9888728529448633e+05   1.9878240286783855e+06   8.6704117874339689e+05   1.8427607380785923e+06   7.4455154103486764e+05   1.5182166849265860e+06   5.2838819212595047e+05   1.0784924943710028e+06   6.8216980397304078e+05   1.0896923872284687e+06   1.6019071058244638e+06   2.1225311560681635e+06   3.3829274795575906e+06   3.8840577064350364e+06   5.7913162102686949e+06   6.3202616439924324e+06   9.0436849241071567e+06   8.6650488140207417e+06   1.0310068676763577e+07   7.1532667541562729e+06   1.1789000588746274e+07   4.3442135401707730e+05   5.4430397234796852e+04   2.3851275522432303e+02   2.2447096028134734e+01   5.5145023814614424e-01   4.4344396047393604e-02   5.6095160485297151e-03   4.3884858366241271e-04   2.0929723198639374e-04   1.2197504264693429e-05   4.3191941502970937e-05   1.6678900490388324e-06   4.4968745055644622e-05   1.0006228747360407e-06   2.5089762411415920e-04   2.7002758586613554e-06   8.4359458663112938e-03   3.6040510485511671e-05   1.8036227484242700e+00   2.6792792286869974e-03   3.3851894505528994e+03   1.4213558259736288e+00   7.0650499256012477e+06   5.0798582930655393e+03   7.5362397838561721e+06   5.9424982641906310e+06   5.6384871969848471e+06   5.5327204603145784e+06   4.1290817047925391e+06   3.8834795758976112e+06   3.0116318526420388e+06   2.6040302600997966e+06   2.3313476884753355e+06   1.7913047201587213e+06   1.9768365467083124e+06   1.3016423073679267e+06   1.8736051144019049e+06   1.0793053280421838e+06   2.0338247055007808e+06   1.1256190930830492e+06   2.5032960077288137e+06   1.4617713860248299e+06   2.5768516347474610e+06   2.5857766585760624e+06   2.4175297526964881e+06   2.1560643212394044e+06   2.1803690522321654e+03   1.9449353074117623e+03   1.6876920300874656e+00   1.0081169253787468e+00   2.9776634291453102e-03   1.5606378482872655e+06   1.5994615083131969e+06   1.0517276181455874e+06   1.4932548596429010e+06   1.4504034266603857e+06   1.1929831546050273e+06   1.3666770980745531e+06   7.0952402735086984e+05   1.2392733852656232e+06   3.5879424207227939e+05   1.3153712311623457e+06   1.3744344060704724e+06   1.8162264345876905e+06   3.0797379469137099e+06   2.9621924726265739e+06   5.3930406083966615e+06   5.4867517947617751e+06   8.3545530450949557e+06   8.6820166009394955e+06   9.6678147529368214e+06   1.2247776638676081e+07   1.1646542890177241e+06   8.2203943458412332e+05   1.0059511190294204e+02   2.0685931130498215e+01   1.8711248461031692e-02   4.4533015268057551e-03   1.5075853149427595e-05   2.7341689825900998e-06   6.3125611403919927e-08   8.6678558028284934e-09   1.4333902868928613e-09   0.0000000000000000e+00   0.0000000000000000e+00   0.0000000000000000e+00   0.0000000000000000e+00   0.0000000000000000e+00   0.0000000000000000e+00   0.0000000000000000e+00   0.0000000000000000e+00   0.0000000000000000e+00   7.1816057977606578e-09   0.0000000000000000e+00   1.3561621619833410e-06   3.9042329110376454e-09   1.6161385020590619e-03   1.5900433823687501e-06   1.6764389416783615e+01   4.8958258846501113e-03   7.9665589544881799e+05   1.1956003822108114e+02   5.8487812277543340e+06   4.5113302146351803e+06   4.4328795572985373e+06   4.5681559890849413e+06   3.0795577922259150e+06   3.1278272975296578e+06   2.1458360188987004e+06   2.1042086516475123e+06   1.4471189652859939e+06   1.3234454604703437e+06   1.0004883102086224e+06   6.6173400207320100e+05   1.4344319318716163e+06   3.8715231050319900e+05   3.2767483031843207e+06   1.3238862546670837e+06   5.5305878942078417e+06   3.4163737561993711e+06   4.7117794932492769e+04   1.4734134828553302e+05   2.2368234474082396e+00   4.9257733166537534e+00   7.3880207032355817e-04   1.0654661394770327e-03   1.7120373603098782e-06   1.3190280742666011e-06   8.9387444601936381e-09   1.5120290510295776e+06   1.3678743313146431e+06   1.5552487258937568e+06   1.0805230779382917e+06   1.4219271871397749e+06   1.1080932352290456e+06   1.4601551889782902e+06   1.8510135272221246e+06   1.8016377199972244e+06   3.2833651125430437e+06   2.5385225522651412e+06   5.5309081072810162e+06   3.9647639001763244e+06   8.4069013516170550e+06   7.7131154550911188e+06   9.6350376063756738e+06   9.4648935956202745e+06   4.6542311014649757e+04   3.6803436111214200e+04   5.9662913344844148e-01   2.9307598932805146e-01   3.5672962964124618e-05   1.6875378187518225e-05   1.0756578167115964e-08   4.8309799970501976e-09   0.0000000000000000e+00   0.0000000000000000e+00   0.0000000000000000e+00   0.0000000000000000e+00   0.0000000000000000e+00   0.0000000000000000e+00   0.0000000000000000e+00   0.0000000000000000e+00   0.0000000000000000e+00   0.0000000000000000e+00   0.0000000000000000e+00   0.0000000000000000e+00   0.0000000000000000e+00   0.0000000000000000e+00   0.0000000000000000e+00   0.0000000000000000e+00   0.0000000000000000e+00   0.0000000000000000e+00   1.2400831477089255e-08   0.0000000000000000e+00   1.1239087690462705e-04   7.9765672214918612e-08   9.0775776483589024e+00   3.0673665202148380e-03   3.5103186338087874e+06   1.9781510935604190e+03   5.2234487909056451e+06   5.5901053019596320e+06   3.4831894165897267e+06   3.9164287154889465e+06   2.4954187348546064e+06   2.7227484182684119e+06   1.7901032566026202e+06   1.8861335370384448e+06   1.3867870129062168e+06   1.2001396045588995e+06   1.7590399145878877e+06   6.7175658391730895e+05   3.5827790843001972e+06   1.2048156795471474e+06   6.5108211911087660e+06   3.1200087770547257e+06   1.2531245294467396e+03   1.5308552533589591e+04   2.9582599271178539e-02   1.9359138415118210e-01   5.1915390439013901e-06   1.7629856942494880e-05   5.5474467280131970e-09   9.6843129082410198e-09   0.0000000000000000e+00   0.0000000000000000e+00   0.0000000000000000e+00   1.0867114331868517e+06   1.3089525627812496e+06   1.2768159335699375e+06   1.2680972942298888e+06   1.9428419292861654e+06   1.5713907287760261e+06   3.1445880747889541e+06   2.0906224780905861e+06   5.0582296138455467e+06   2.9688069806932239e+06   7.8818591750921374e+06   4.8256907356659267e+06   1.1034324443790434e+07   8.0063782570470441e+06   2.8160606171270552e+04   6.9306178268554853e+04   8.1767556470882630e-02   1.0496956519830598e-01   1.3102786384906883e-06   1.0680416890217547e-06   0.0000000000000000e+00   0.0000000000000000e+00   0.0000000000000000e+00   0.0000000000000000e+00   0.0000000000000000e+00   0.0000000000000000e+00   0.0000000000000000e+00   0.0000000000000000e+00   0.0000000000000000e+00   0.0000000000000000e+00   0.0000000000000000e+00   0.0000000000000000e+00   0.0000000000000000e+00   0.0000000000000000e+00   0.0000000000000000e+00   0.0000000000000000e+00   0.0000000000000000e+00   0.0000000000000000e+00   0.0000000000000000e+00   0.0000000000000000e+00   0.0000000000000000e+00   0.0000000000000000e+00   0.0000000000000000e+00   0.0000000000000000e+00   7.3386952963047659e-09   0.0000000000000000e+00   7.0666060908758420e-04   5.9971938792173784e-07   1.5977299138674964e+03   9.4821024848017554e-01   5.2035971001674728e+06   4.0424891636177427e+06   3.7640249295947240e+06   4.5339332128464170e+06   2.9033826558381687e+06   3.2155650716132922e+06   2.3248161906275162e+06   2.3870471540720798e+06   2.0098852792974033e+06   1.7428771614597871e+06   2.0662255953399846e+06   1.2000115972252593e+06   2.6655169417813905e+06   1.0617883605659010e+06   4.4476909115824522e+06   2.3876833355877078e+06   6.8658099515874551e+02   2.8169336141098356e+04   7.1504722919626179e-03   1.6608276456412757e-01   5.4953797674078124e-07   5.6286245488637207e-06   0.0000000000000000e+00   9.2806453505846568e-10   0.0000000000000000e+00   0.0000000000000000e+00   0.0000000000000000e+00   0.0000000000000000e+00   0.0000000000000000e+00   1.2376684251517614e+06   1.2941954680830890e+06   1.7406971897519513e+06   1.4916852615116576e+06   2.4999905782861784e+06   1.9037770532280016e+06   3.5067291394435284e+06   2.4017272982709454e+06   4.8796937344996771e+06   3.1055817106602914e+06   5.7817595834581237e+06   5.3888953317915788e+06   2.2358426432528319e+06   1.3328893766657072e+06   6.4332863627991210e-01   2.9898366293123901e+00   1.6054128566285075e-06   2.8701089354676691e-06   0.0000000000000000e+00   0.0000000000000000e+00   0.0000000000000000e+00   0.0000000000000000e+00   0.0000000000000000e+00   0.0000000000000000e+00   0.0000000000000000e+00   0.0000000000000000e+00   0.0000000000000000e+00   0.0000000000000000e+00   0.0000000000000000e+00   0.0000000000000000e+00   0.0000000000000000e+00   0.0000000000000000e+00   0.0000000000000000e+00   0.0000000000000000e+00   0.0000000000000000e+00   0.0000000000000000e+00   0.0000000000000000e+00   0.0000000000000000e+00   0.0000000000000000e+00   0.0000000000000000e+00   0.0000000000000000e+00   0.0000000000000000e+00   0.0000000000000000e+00   0.0000000000000000e+00   0.0000000000000000e+00   0.0000000000000000e+00   3.1047071070162432e-07   5.1321717846322608e-10   1.1453633300068784e+00   9.8309853321515536e-04   2.8354511444004169e+06   2.7119647670090988e+04   3.6085594687032225e+06   3.8118143969562417e+06   3.0664378831466464e+06   3.3424775851064115e+06   2.6270614934457969e+06   2.6393981365773613e+06   2.3415111768010664e+06   2.0679729690670643e+06   2.1586785543879960e+06   1.5573102859677048e+06   1.8846707099377878e+06   1.1195535564617829e+06   1.6487816976845048e+06   1.3156779587526706e+06   6.8720542167025633e+03   3.2270430896379886e+05   2.7139417176536854e-02   3.5507797042520362e+00   8.2072596635802325e-07   3.4232828581851948e-05   0.0000000000000000e+00   2.2779647636878697e-09   0.0000000000000000e+00   0.0000000000000000e+00   0.0000000000000000e+00   0.0000000000000000e+00   0.0000000000000000e+00   0.0000000000000000e+00   0.0000000000000000e+00   1.7345496328603639e+06   1.6687774662477497e+06   2.33404932