<?xml version="1.0"?>
<VTKFile type="UnstructuredGrid"  version="0.1"  >
<UnstructuredGrid>
<Piece  NumberOfPoints="2444" NumberOfCells="4684">
<Points>
<DataArray  type="Float64"  NumberOfComponents="3"  format="ascii">2.940869565217391 0 0  2.949130434782608 0 0  2.949130434782608 0.008333333333333333 0  2.940869565217391 0.008333333333333333 0  2.957391304347826 0 0  2.957391304347826 0.008333333333333333 0  2.965652173913043 0 0  2.965652173913043 0.008333333333333333 0  2.973913043478261 0 0  2.973913043478261 0.008333333333333333 0  2.982173913043478 0 0  2.982173913043478 0.008333333333333333 0  2.990434782608696 0 0  2.990434782608696 0.008333333333333333 0  2.998695652173913 0 0  2.998695652173913 0.008333333333333333 0  3.006956521739131 0 0  3.006956521739131 0.008333333333333333 0  3.015217391304348 0 0  3.015217391304348 0.008333333333333333 0  3.023478260869565 0 0  3.023478260869565 0.008333333333333333 0  3.031739130434782 0 0  3.031739130434782 0.008333333333333333 0  3.04 0 0  3.04 0.008333333333333333 0  3.048260869565218 0 0  3.048260869565218 0.008333333333333333 0  3.056521739130435 0 0  3.056521739130435 0.008333333333333333 0  3.064782608695652 0 0  3.064782608695652 0.008333333333333333 0  3.073043478260869 0 0  3.073043478260869 0.008333333333333333 0  3.081304347826087 0 0  3.081304347826087 0.008333333333333333 0  3.089565217391304 0 0  3.089565217391304 0.008333333333333333 0  3.097826086956522 0 0  3.097826086956522 0.008333333333333333 0  3.106086956521739 0 0  3.106086956521739 0.008333333333333333 0  3.114347826086956 0 0  3.114347826086956 0.008333333333333333 0  3.122608695652174 0 0  3.122608695652174 0.008333333333333333 0  3.130869565217391 0 0  3.130869565217391 0.008333333333333333 0  3.139130434782609 0 0  3.139130434782609 0.008333333333333333 0  3.147391304347826 0 0  3.147391304347826 0.008333333333333333 0  3.155652173913043 0 0  3.155652173913043 0.008333333333333333 0  3.163913043478261 0 0  3.163913043478261 0.008333333333333333 0  3.172173913043478 0 0  3.172173913043478 0.008333333333333333 0  3.180434782608696 0 0  3.180434782608696 0.008333333333333333 0  3.188695652173913 0 0  3.188695652173913 0.008333333333333333 0  3.19695652173913 0 0  3.19695652173913 0.008333333333333333 0  3.205217391304347 0 0  3.205217391304347 0.008333333333333333 0  3.213478260869565 0 0  3.213478260869565 0.008333333333333333 0  3.221739130434782 0 0  3.221739130434782 0.008333333333333333 0  3.23 0 0  3.23 0.008333333333333333 0  3.238260869565217 0 0  3.238260869565217 0.008333333333333333 0  3.246521739130435 0 0  3.246521739130435 0.008333333333333333 0  3.254782608695652 0 0  3.254782608695652 0.008333333333333333 0  3.26304347826087 0 0  3.26304347826087 0.008333333333333333 0  3.271304347826087 0 0  3.271304347826087 0.008333333333333333 0  3.279565217391304 0 0  3.279565217391304 0.008333333333333333 0  3.287826086956521 0 0  3.287826086956521 0.008333333333333333 0  3.296086956521739 0 0  3.296086956521739 0.008333333333333333 0  3.304347826086957 0 0  3.304347826086957 0.008333333333333333 0  3.312608695652174 0 0  3.312608695652174 0.008333333333333333 0  3.320869565217391 0 0  3.320869565217391 0.008333333333333333 0  3.329130434782608 0 0  3.329130434782608 0.008333333333333333 0  3.337391304347826 0.008333333333333333 0  2.949130434782608 0.01666666666666667 0  2.957391304347826 0.01666666666666667 0  2.965652173913043 0.01666666666666667 0  2.973913043478261 0.01666666666666667 0  2.982173913043478 0.01666666666666667 0  2.990434782608696 0.01666666666666667 0  2.998695652173913 0.01666666666666667 0  3.006956521739131 0.01666666666666667 0  3.015217391304348 0.01666666666666667 0  3.023478260869565 0.01666666666666667 0  3.031739130434782 0.01666666666666667 0  3.04 0.01666666666666667 0  3.048260869565218 0.01666666666666667 0  3.056521739130435 0.01666666666666667 0  3.064782608695652 0.01666666666666667 0  3.073043478260869 0.01666666666666667 0  3.081304347826087 0.01666666666666667 0  3.089565217391304 0.01666666666666667 0  3.097826086956522 0.01666666666666667 0  3.106086956521739 0.01666666666666667 0  3.114347826086956 0.01666666666666667 0  3.122608695652174 0.01666666666666667 0  3.130869565217391 0.01666666666666667 0  3.139130434782609 0.01666666666666667 0  3.147391304347826 0.01666666666666667 0  3.155652173913043 0.01666666666666667 0  3.163913043478261 0.01666666666666667 0  3.172173913043478 0.01666666666666667 0  3.180434782608696 0.01666666666666667 0  3.188695652173913 0.01666666666666667 0  3.19695652173913 0.01666666666666667 0  3.205217391304347 0.01666666666666667 0  3.213478260869565 0.01666666666666667 0  3.221739130434782 0.01666666666666667 0  3.23 0.01666666666666667 0  3.238260869565217 0.01666666666666667 0  3.246521739130435 0.01666666666666667 0  3.254782608695652 0.01666666666666667 0  3.26304347826087 0.01666666666666667 0  3.271304347826087 0.01666666666666667 0  3.279565217391304 0.01666666666666667 0  3.287826086956521 0.01666666666666667 0  3.296086956521739 0.01666666666666667 0  3.304347826086957 0.01666666666666667 0  3.312608695652174 0.01666666666666667 0  3.320869565217391 0.01666666666666667 0  3.329130434782608 0.01666666666666667 0  3.337391304347826 0.01666666666666667 0  3.345652173913043 0.01666666666666667 0  2.957391304347826 0.025 0  2.965652173913043 0.025 0  2.973913043478261 0.025 0  2.982173913043478 0.025 0  2.990434782608696 0.025 0  2.998695652173913 0.025 0  3.006956521739131 0.025 0  3.015217391304348 0.025 0  3.023478260869565 0.025 0  3.031739130434782 0.025 0  3.04 0.025 0  3.048260869565218 0.025 0  3.056521739130435 0.025 0  3.064782608695652 0.025 0  3.073043478260869 0.025 0  3.081304347826087 0.025 0  3.089565217391304 0.025 0  3.097826086956522 0.025 0  3.106086956521739 0.025 0  3.114347826086956 0.025 0  3.122608695652174 0.025 0  3.130869565217391 0.025 0  3.139130434782609 0.025 0  3.147391304347826 0.025 0  3.155652173913043 0.025 0  3.163913043478261 0.025 0  3.172173913043478 0.025 0  3.180434782608696 0.025 0  3.188695652173913 0.025 0  3.19695652173913 0.025 0  3.205217391304347 0.025 0  3.213478260869565 0.025 0  3.221739130434782 0.025 0  3.23 0.025 0  3.238260869565217 0.025 0  3.246521739130435 0.025 0  3.254782608695652 0.025 0  3.26304347826087 0.025 0  3.271304347826087 0.025 0  3.279565217391304 0.025 0  3.287826086956521 0.025 0  3.296086956521739 0.025 0  3.304347826086957 0.025 0  3.312608695652174 0.025 0  3.320869565217391 0.025 0  3.329130434782608 0.025 0  3.337391304347826 0.025 0  3.345652173913043 0.025 0  3.353913043478261 0.025 0  2.965652173913043 0.03333333333333333 0  2.973913043478261 0.03333333333333333 0  2.982173913043478 0.03333333333333333 0  2.990434782608696 0.03333333333333333 0  2.998695652173913 0.03333333333333333 0  3.006956521739131 0.03333333333333333 0  3.015217391304348 0.03333333333333333 0  3.023478260869565 0.03333333333333333 0  3.031739130434782 0.03333333333333333 0  3.04 0.03333333333333333 0  3.048260869565218 0.03333333333333333 0  3.056521739130435 0.03333333333333333 0  3.064782608695652 0.03333333333333333 0  3.073043478260869 0.03333333333333333 0  3.081304347826087 0.03333333333333333 0  3.089565217391304 0.03333333333333333 0  3.097826086956522 0.03333333333333333 0  3.106086956521739 0.03333333333333333 0  3.114347826086956 0.03333333333333333 0  3.122608695652174 0.03333333333333333 0  3.130869565217391 0.03333333333333333 0  3.139130434782609 0.03333333333333333 0  3.147391304347826 0.03333333333333333 0  3.155652173913043 0.03333333333333333 0  3.163913043478261 0.03333333333333333 0  3.172173913043478 0.03333333333333333 0  3.180434782608696 0.03333333333333333 0  3.188695652173913 0.03333333333333333 0  3.19695652173913 0.03333333333333333 0  3.205217391304347 0.03333333333333333 0  3.213478260869565 0.03333333333333333 0  3.221739130434782 0.03333333333333333 0  3.23 0.03333333333333333 0  3.238260869565217 0.03333333333333333 0  3.246521739130435 0.03333333333333333 0  3.254782608695652 0.03333333333333333 0  3.26304347826087 0.03333333333333333 0  3.271304347826087 0.03333333333333333 0  3.279565217391304 0.03333333333333333 0  3.287826086956521 0.03333333333333333 0  3.296086956521739 0.03333333333333333 0  3.304347826086957 0.03333333333333333 0  3.312608695652174 0.03333333333333333 0  3.320869565217391 0.03333333333333333 0  3.329130434782608 0.03333333333333333 0  3.337391304347826 0.03333333333333333 0  3.345652173913043 0.03333333333333333 0  3.353913043478261 0.03333333333333333 0  3.362173913043478 0.03333333333333333 0  2.973913043478261 0.04166666666666666 0  2.982173913043478 0.04166666666666666 0  2.990434782608696 0.04166666666666666 0  2.998695652173913 0.04166666666666666 0  3.006956521739131 0.04166666666666666 0  3.015217391304348 0.04166666666666666 0  3.023478260869565 0.04166666666666666 0  3.031739130434782 0.04166666666666666 0  3.04 0.04166666666666666 0  3.048260869565218 0.04166666666666666 0  3.056521739130435 0.04166666666666666 0  3.064782608695652 0.04166666666666666 0  3.073043478260869 0.04166666666666666 0  3.081304347826087 0.04166666666666666 0  3.089565217391304 0.04166666666666666 0  3.097826086956522 0.04166666666666666 0  3.106086956521739 0.04166666666666666 0  3.114347826086956 0.04166666666666666 0  3.122608695652174 0.04166666666666666 0  3.130869565217391 0.04166666666666666 0  3.139130434782609 0.04166666666666666 0  3.147391304347826 0.04166666666666666 0  3.155652173913043 0.04166666666666666 0  3.163913043478261 0.04166666666666666 0  3.172173913043478 0.04166666666666666 0  3.180434782608696 0.04166666666666666 0  3.188695652173913 0.04166666666666666 0  3.19695652173913 0.04166666666666666 0  3.205217391304347 0.04166666666666666 0  3.213478260869565 0.04166666666666666 0  3.221739130434782 0.04166666666666666 0  3.23 0.04166666666666666 0  3.238260869565217 0.04166666666666666 0  3.246521739130435 0.04166666666666666 0  3.254782608695652 0.04166666666666666 0  3.2630434
[...]
<PointData  Vectors="Displacement"> 
<DataArray  type="Float64"  Name="Displacement"  NumberOfComponents="3" format="ascii">4.0289822361284022e-04 3.9118319542486291e-03 0.0000000000000000e+00  4.0329055853910277e-04 3.9265766815797781e-03 0.0000000000000000e+00  3.8845699609233619e-04 3.9264369786492391e-03 0.0000000000000000e+00  3.8800976396367534e-04 3.9116901333432321e-03 0.0000000000000000e+00  4.0367331376474006e-04 3.9412655878910303e-03 0.0000000000000000e+00  3.8889999277946086e-04 3.9411280829717990e-03 0.0000000000000000e+00  4.0404580097106943e-04 3.9558928860316759e-03 0.0000000000000000e+00  3.8933895851921233e-04 3.9557576126999696e-03 0.0000000000000000e+00  4.0440732490210475e-04 3.9704521075007073e-03 0.0000000000000000e+00  3.8977413078598476e-04 3.9703190544320022e-03 0.0000000000000000e+00  4.0475701598663265e-04 3.9849360389941271e-03 0.0000000000000000e+00  3.9020582879464703e-04 3.9848051907335619e-03 0.0000000000000000e+00  4.0509358325518431e-04 3.9993363020160008e-03 0.0000000000000000e+00  3.9063447192566033e-04 3.9992077886596119e-03 0.0000000000000000e+00  4.0541512298861789e-04 4.0136423450937604e-03 0.0000000000000000e+00  3.9106045818978433e-04 4.0135167059675812e-03 0.0000000000000000e+00  4.0571948130037517e-04 4.0278400385918307e-03 0.0000000000000000e+00  3.9148385766552425e-04 4.0277182705526840e-03 0.0000000000000000e+00  4.0600566878694198e-04 4.0419113839066977e-03 0.0000000000000000e+00  3.9190423490776066e-04 4.0417943257476004e-03 0.0000000000000000e+00  4.0627552488673726e-04 4.0558377621370363e-03 0.0000000000000000e+00  3.9232082200561682e-04 4.0557252780771278e-03 0.0000000000000000e+00  4.0653375352707710e-04 4.0696059593341395e-03 0.0000000000000000e+00  3.9273273393531012e-04 4.0694970787395288e-03 0.0000000000000000e+00  4.0678589603370378e-04 4.0832116286660895e-03 0.0000000000000000e+00  3.9313881565067403e-04 4.0831060133644983e-03 0.0000000000000000e+00  4.0703707636990249e-04 4.0966571330181842e-03 0.0000000000000000e+00  3.9353649704807554e-04 4.0965558217857202e-03 0.0000000000000000e+00  4.0729564643371993e-04 4.1099494389815637e-03 0.0000000000000000e+00  3.9392200628018530e-04 4.1098513030739890e-03 0.0000000000000000e+00  4.0757785424362099e-04 4.1231081792784475e-03 0.0000000000000000e+00  3.9429631243483905e-04 4.1230062498678402e-03 0.0000000000000000e+00  4.0790230515974716e-04 4.1361796686402831e-03 0.0000000000000000e+00  3.9466794262126931e-04 4.1360649768220513e-03 0.0000000000000000e+00  4.0827373831852645e-04 4.1492359976413370e-03 0.0000000000000000e+00  3.9504369235519534e-04 4.1491058243714653e-03 0.0000000000000000e+00  4.0867002451570417e-04 4.1623502179138714e-03 0.0000000000000000e+00  3.9541768016785147e-04 4.1622122947839258e-03 0.0000000000000000e+00  4.0903923760485759e-04 4.1755673481904346e-03 0.0000000000000000e+00  3.9576592418926089e-04 4.1754417101131118e-03 0.0000000000000000e+00  4.0931883077225588e-04 4.1888611245559154e-03 0.0000000000000000e+00  3.9605917661717058e-04 4.1887731418871511e-03 0.0000000000000000e+00  4.0945905658036250e-04 4.2021348015180279e-03 0.0000000000000000e+00  3.9626359406620389e-04 4.2021178108714438e-03 0.0000000000000000e+00  4.0948710311845924e-04 4.2152907387315464e-03 0.0000000000000000e+00  3.9632906455907462e-04 4.2153195278161271e-03 0.0000000000000000e+00  4.1127056354784260e-04 4.2293478909751310e-03 0.0000000000000000e+00  3.9632044846970367e-04 4.2284408401722191e-03 0.0000000000000000e+00  4.1362152450182953e-04 4.2446856594131853e-03 0.0000000000000000e+00  3.9870241949874300e-04 4.2440126019743247e-03 0.0000000000000000e+00  4.1565151564442577e-04 4.2597708465354324e-03 0.0000000000000000e+00  4.0069339156531661e-04 4.2591594064986136e-03 0.0000000000000000e+00  4.1748511689018524e-04 4.2748272076217064e-03 0.0000000000000000e+00  4.0244729698528077e-04 4.2742691356552455e-03 0.0000000000000000e+00  4.1917248813880508e-04 4.2899370452912523e-03 0.0000000000000000e+00  4.0402406012692135e-04 4.2894234302016292e-03 0.0000000000000000e+00  4.2074753351387600e-04 4.3051365126734967e-03 0.0000000000000000e+00  4.0546588883699742e-04 4.3046543031552880e-03 0.0000000000000000e+00  4.2221449993931550e-04 4.3204883615889974e-03 0.0000000000000000e+00  4.0678349178616824e-04 4.3200422510085799e-03 0.0000000000000000e+00  4.2356549668582288e-04 4.3360034483615299e-03 0.0000000000000000e+00  4.0798316597164544e-04 4.3355955882602220e-03 0.0000000000000000e+00  4.2479524515127927e-04 4.3516705075899702e-03 0.0000000000000000e+00  4.0907099519658414e-04 4.3513012497697319e-03 0.0000000000000000e+00  4.2590421377371895e-04 4.3674684963124193e-03 0.0000000000000000e+00  4.1005375479179597e-04 4.3671363586032467e-03 0.0000000000000000e+00  4.2689718771468004e-04 4.3833757443143906e-03 0.0000000000000000e+00  4.1093836051750811e-04 4.3830785227579449e-03 0.0000000000000000e+00  4.2778105392328989e-04 4.3993725334212346e-03 0.0000000000000000e+00  4.1173148597075092e-04 4.3991078668924573e-03 0.0000000000000000e+00  4.2856356359300622e-04 4.4154411339041421e-03 0.0000000000000000e+00  4.1243964719823485e-04 4.4152066094332110e-03 0.0000000000000000e+00  4.2925297788348927e-04 4.4315655373693029e-03 0.0000000000000000e+00  4.1306947858201615e-04 4.4313585923393718e-03 0.0000000000000000e+00  4.2985763425834914e-04 4.4477321201808976e-03 0.0000000000000000e+00  4.1362750889246405e-04 4.4475502564459953e-03 0.0000000000000000e+00  4.3038560852441275e-04 4.4639293756630468e-03 0.0000000000000000e+00  4.1412004110063030e-04 4.4637702108813997e-03 0.0000000000000000e+00  4.3084456323311379e-04 4.4801476252697547e-03 0.0000000000000000e+00  4.1455310136342499e-04 4.4800089061287629e-03 0.0000000000000000e+00  4.3124164894415347e-04 4.4963788432864724e-03 0.0000000000000000e+00  4.1493236739084568e-04 4.4962584760755691e-03 0.0000000000000000e+00  4.3158343554624678e-04 4.5126164403071689e-03 0.0000000000000000e+00  4.1526311264559887e-04 4.5125125099376240e-03 0.0000000000000000e+00  4.3187589604348336e-04 4.5288550158964352e-03 0.0000000000000000e+00  4.1555019121130795e-04 4.5287657828031397e-03 0.0000000000000000e+00  4.3212443034281811e-04 4.5450901506193086e-03 0.0000000000000000e+00  4.1579804705259115e-04 4.5450140390635163e-03 0.0000000000000000e+00  4.3233390272337773e-04 4.5613182485206320e-03 0.0000000000000000e+00  4.1601073032276442e-04 4.5612538354818273e-03 0.0000000000000000e+00  4.3250867966494061e-04 4.5775364095382246e-03 0.0000000000000000e+00  4.1619191573212761e-04 4.5774824150463566e-03 0.0000000000000000e+00  4.3265266762467565e-04 4.5937423160382941e-03 0.0000000000000000e+00  4.1634492445293480e-04 4.5936975928120849e-03 0.0000000000000000e+00  4.3276935280955859e-04 4.6099341317500158e-03 0.0000000000000000e+00  4.1647274999975808e-04 4.6098976535271317e-03 0.0000000000000000e+00  4.1657808638085442e-04 4.6260812651851202e-03 0.0000000000000000e+00  3.7363389273683867e-04 3.9262777903477982e-03 0.0000000000000000e+00  3.7413673797644927e-04 3.9409691805027489e-03 0.0000000000000000e+00  3.7464183794521988e-04 3.9555986880337752e-03 0.0000000000000000e+00  3.7515024666670967e-04 3.9701596973962866e-03 0.0000000000000000e+00  3.7566325528546777e-04 3.9846448555569177e-03 0.0000000000000000e+00  3.7618270758534500e-04 3.9990459138883562e-03 0.0000000000000000e+00  3.7671129351833887e-04 4.0133532191018182e-03 0.0000000000000000e+00  3.7725219311081506e-04 4.0275542642231885e-03 0.0000000000000000e+00  3.7780701933233133e-04 4.0416316633250229e-03 0.0000000000000000e+00  3.7837285598169397e-04 4.0555651916245059e-03 0.0000000000000000e+00  3.7894171196979745e-04 4.0693398736783700e-03 0.0000000000000000e+00  3.7950371333804104e-04 4.0829529079029325e-03 0.0000000000000000e+00  3.8005077008319453e-04 4.0964129735559908e-03 0.0000000000000000e+00  3.8057046667927541e-04 4.1097262460007529e-03 0.0000000000000000e+00  3.8104092869881709e-04 4.1228899333919993e-03 0.0000000000000000e+00  3.8146114733117920e-04 4.1359344468920771e-03 0.0000000000000000e+00  3.8185510886244945e-04 4.1489480255483390e-03 0.0000000000000000e+00  3.8224044576256201e-04 4.1620339119419186e-03 0.0000000000000000e+00  3.8260665750945754e-04 4.1752741645950829e-03 0.0000000000000000e+00  3.8294213534795869e-04 4.1886462452790573e-03 0.0000000000000000e+00  3.8323545664848102e-04 4.2020803397917039e-03 0.0000000000000000e+00  3.8344757311270728e-04 4.2154690034549181e-03 0.0000000000000000e+00  3.8357550779822880e-04 4.2289696772029612e-03 0.0000000000000000e+00  3.8484759105868996e-04 4.2436288324157615e-03 0.0000000000000000e+00  3.8637698803527476e-04 4.2586649410596830e-03 0.0000000000000000e+00  3.8785885018612130e-04 4.2737913660609505e-03 0.0000000000000000e+00  3.8923060402292370e-04 4.2889809097127031e-03 0.0000000000000000e+00  3.9049325080614349e-04 4.3042221724854121e-03 0.0000000000000000e+00  3.9163512289786781e-04 4.3196469805836489e-03 0.0000000000000000e+00  3.9266449280522933e-04 4.3352397148772792e-03 0.0000000000000000e+00  3.9359383735552544e-04 4.3509831223710899e-03 0.0000000000000000e+00  3.9443451301462241e-04 4.3668516145630746e-03 0.0000000000000000e+00  3.9519522348146856e-04 4.3828235177060561e-03 0.0000000000000000e+00  3.9588224832428113e-04 4.3988800655129171e-03 0.0000000000000000e+00  3.9650070825383312e-04 4.4150039445879329e-03 0.0000000000000000e+00  3.9705579165941787e-04 4.4311786827267016e-03 0.0000000000000000e+00  3.9755247213711664e-04 4.4473910032757202e-03 0.0000000000000000e+00  3.9799546696600270e-04 4.4636296951901513e-03 0.0000000000000000e+00  3.9838932216464253e-04 4.4798853053092764e-03 0.0000000000000000e+00  3.9873835680785701e-04 4.4961501119163338e-03 0.0000000000000000e+00  3.9904659932047640e-04 4.5124178732701649e-03 0.0000000000000000e+00  3.9931778474574809e-04 4.5286835090663008e-03 0.0000000000000000e+00  3.9955537278677661e-04 4.5449428834272556e-03 0.0000000000000000e+00  3.9976255731973145e-04 4.5611926633525313e-03 0.0000000000000000e+00  3.9994226982484159e-04 4.5774301995463963e-03 0.0000000000000000e+00  4.0009718725879780e-04 4.5936534093867342e-03 0.0000000000000000e+00  4.0022974701582500e-04 4.6098606706452697e-03 0.0000000000000000e+00  4.0034216571736587e-04 4.6260507339497643e-03 0.0000000000000000e+00  4.0043645831929912e-04 4.6422226540092700e-03 0.0000000000000000e+00  3.5936783396455267e-04 3.9407902784514290e-03 0.0000000000000000e+00  3.5993662878787744e-04 3.9554177048800026e-03 0.0000000000000000e+00  3.6051535310249635e-04 3.9699761638308717e-03 0.0000000000000000e+00  3.6110549298330963e-04 3.9844581255262732e-03 0.0000000000000000e+00  3.6170929734366048e-04 3.9988549619008069e-03 0.0000000000000000e+00  3.6233122089160673e-04 4.0131564812766708e-03 0.0000000000000000e+00  3.6298040278750658e-04 4.0273502730605341e-03 0.0000000000000000e+00  3.6366970840142081e-04 4.0414210448559652e-03 0.0000000000000000e+00  3.6440198777490249e-04 4.0553515125761816e-03 0.0000000000000000e+00  3.6515645219022835e-04 4.0691279410828268e-03 0.0000000000000000e+00  3.6589915777080091e-04 4.0827460923672995e-03 0.0000000000000000e+00  3.6661041794258165e-04 4.0962132038780772e-03 0.0000000000000000e+00  3.6730085915575981e-04 4.1095528264724389e-03 0.0000000000000000e+00  3.6793352831837448e-04 4.1227660976861803e-03 0.0000000000000000e+00  3.6840113918697919e-04 4.1358064861012084e-03 0.0000000000000000e+00  3.6877029348083646e-04 4.1487673340613821e-03 0.0000000000000000e+00  3.6913217954185067e-04 4.1618030163988037e-03 0.0000000000000000e+00  3.6948671062718007e-04 4.1750529943735517e-03 0.0000000000000000e+00  3.6983011133270979e-04 4.1884682104020793e-03 0.0000000000000000e+00  3.7017064099318519e-04 4.2019845437544483e-03 0.0000000000000000e+00  3.7051400602013617e-04 4.2155668662713129e-03 0.0000000000000000e+00  3.7087509885639828e-04 4.2293389203484780e-03 0.0000000000000000e+00  3.7151127054171169e-04 4.2437052243161485e-03 0.0000000000000000e+00  3.7239505597795461e-04 4.2583969991369774e-03 0.0000000000000000e+00  3.7357134997199480e-04 4.2734442799719219e-03 0.0000000000000000e+00  3.7476138059635401e-04 4.2886506127142229e-03 0.0000000000000000e+00  3.7584189225989593e-04 4.3038638164265113e-03 0.0000000000000000e+00  3.7675644960985988e-04 4.3193237727278825e-03 0.0000000000000000e+00  3.7757603253734344e-04 4.3349516066398495e-03 0.0000000000000000e+00  3.7832051092011044e-04 4.3507291571567974e-03 0.0000000000000000e+00  3.7900124960075360e-04 4.3666253377625166e-03 0.0000000000000000e+00  3.7962462932558232e-04 4.3826207166527626e-03 0.0000000000000000e+00  3.8019388100713397e-04 4.3986987517847711e-03 0.0000000000000000e+00  3.8071141223822277e-04 4.4148427758244546e-03 0.0000000000000000e+00  3.8118079096600841e-04 4.4310351984623454e-03 0.0000000000000000e+00  3.8160542497642951e-04 4.4472634385050993e-03 0.0000000000000000e+00  3.8198849219274868e-04 4.4635165202947290e-03 0.0000000000000000e+00  3.8233317690863466e-04 4.4797850244103982e-03 0.0000000000000000e+00  3.8264254447491154e-04 4.4960613970170260e-03 0.0000000000000000e+00  3.8291943365060692e-04 4.5123396047130398e-03 0.0000000000000000e+00  3.8316648280761675e-04 4.5286147038703711e-03 0.0000000000000000e+00  3.8338617318442491e-04 4.5448826426464691e-03 0.0000000000000000e+00  3.8358083570241754e-04 4.5611401623001681e-03 0.0000000000000000e+00  3.8375263928502510e-04 4.5773846935497856e-03 0.0000000000000000e+00  3.8390358682010575e-04 4.5936142317263501e-03 0.0000000000000000e+00  3.8403552329188277e-04 4.6098272223735878e-03 0.0000000000000000e+00  3.8415014907047378e-04 4.6260224724290894e-03 0.0000000000000000e+00  3.8424903250901515e-04 4.6421990841480406e-03 0.0000000000000000e+00  3.8433362004119546e-04 4.6583564041719526e-03 0.0000000000000000e+00  3.4518226886467047e-04 3.9552266164240551e-03 0.0000000000000000e+00  3.4583034955202327e-04 3.9697820421840356e-03 0.0000000000000000e+00  3.4649768033429891e-04 3.9842601715727758e-03 0.0000000000000000e+00  3.4718774232047933e-04 3.9986519711049896e-03 0.0000000000000000e+00  3.4790723107253616e-04 4.0129457111767403e-03 0.0000000000000000e+00  3.4867020790634690e-04 4.0271241343059665e-03 0.0000000000000000e+00  3.4949738485805064e-04 4.0411621162510644e-03 0.0000000000000000e+00  3.5038232303361629e-04 4.0550506895146981e-03 0.0000000000000000e+00  3.5128237288553150e-04 4.0688250167405160e-03 0.0000000000000000e+00  3.5216807864472775e-04 4.0824811929741738e-03 0.0000000000000000e+00  3.5302665442640910e-04 4.0959746587141592e-03 0.0000000000000000e+00  3.5388189888727951e-04 4.1093212296652634e-03 0.0000000000000000e+00  3.5491160370342532e-04 4.1225651921309560e-03 0.0000000000000000e+00  3.5560565858936826e-04 4.1357138088663941e-03 0.0000000000000000e+00  3.5587783058473743e-04 4.1486220157969421e-03 0.0000000000000000e+00  3.5608260896629587e-04 4.1615397775646244e-03 0.0000000000000000e+00  3.5633921546521891e-04 4.1748036498935499e-03 0.0000000000000000e+00  3.5661035381058282e-04 4.1882704231189947e-03 0.0000000000000000e+00  3.5689907849916934e-04 4.2018599312710304e-03 0.0000000000000000e+00  3.5721407947350597e-04 4.2155579031703666e-03 0.0000000000000000e+00  3.5757024449741920e-04 4.2294490852143006e-03 0.0000000000000000e+00  3.5802779448051975e-04 4.2437006664981843e-03 0.0000000000000000e+00  3.5865185457120507e-04 4.2582981781024857e-03 0.0000000000000000e+00  3.5937193171734465e-04 4.2731700320684874e-03 0.0000000000000000e+00  3.6048870892925559e-04 4.2883258190482007e-03 0.0000000000000000e+00  3.6172755299817378e-04 4.3036581957086118e-03 0.0000000000000000e+00  3.6211809680243356e-04 4.3191133477722956e-03 0.0000000000000000e+00  3.6265812378470853e-04 4.3347541544870348e-03 0.0000000000000000e+00  3.6318994466555491e-04 4.3505541254544589e-03 0.0000000000000000e+00  3.6369964930533936e-04 4.3664669601147666e-03 0.0000000000000000e+00  3.6417971291256217e-04 4.3824771723965580e-03 0.0000000000000000e+00  3.6462562088522663e-04 4.3985704292596227e-03 0.0000000000000000e+00  3.6503587081510513e-04 4.4147299226830377e-03 0.0000000000000000e+00  3.6541294142760814e-04 4.4309346769796322e-03 0.0000000000000000e+00  3.6575878906089230e-04 4.4471739654974880e-03 0.0000000000000000e+00  3.6607508916445148e-04 4.4634369508018013e-03 0.0000000000000000e+00  3.6636383688894917e-04 4.4797140582243282e-03 0.0000000000000000e+00  3.6662697984307104e-04 4.4959979881499818e-03 0.0000000000000000e+00  3.6686622443452769e-04 4.5122830180386571e-03 0.0000000000000000e+00  3.6708314467451936e-04 4.5285643379202158e-03 0.0000000000000000e+00  3.6727927467201243e-04 4.5448379377752172e-03 0.0000000000000000e+00  3.6745610615927901e-04 4.5611006013508947e-03 0.0000000000000000e+00  3.6761505341876915e-04 4.5773498233319491e-03 0.0000000000000000e+00  3.6775743903221376e-04 4.5935836616048387e-03 0.0000000000000000e+00  3.6788450136714698e-04 4.6098006078876784e-03 0.0000000000000000e+00  3.6799740718022818e-04 4.6259994993435218e-03 0.0000000000000000e+00  3.6809725997653705e-04 4.6421794590373261e-03 0.0000000000000000e+00  3.6818510316838436e-04 4.6583398507718072e-03 0.0000000000000000e+00  3.6826192056744301e-04 4.6744802402105016e-03 0.0000000000000000e+00  3.3219400067664484e-04 3.9681961008777664e-03 0.0000000000000000e+00  3.3294259326021106e-04 3.9826512816772989e-03 0.0000000000000000e+00  3.3371607021059023e-04 3.9970201313561373e-03 0.0000000000000000e+00  3.3451809154580697e-04 4.0112914286394739e-03 0.0000000000000000e+00  3.3535224354800189e-04 4.0254509303563647e-03 0.0000000000000000e+00  3.3621852700694351e-04 4.0394843295158116e-03 0.0000000000000000e+00  3.3710747677083137e-04 4.0533930011706232e-03 0.0000000000000000e+00  3.3800279655755484e-04 4.0671971821746216e-03 0.0000000000000000e+00  3.3889244039058249e-04 4.0808932848159837e-03 0.0000000000000000e+00  3.3976522149503120e-04 4.0944589343631065e-03 0.0000000000000000e+00  3.4060999827748847e-04 4.1078985238812964e-03 0.0000000000000000e+00  3.4142103594626345e-04 4.1212476977124509e-03 0.0000000000000000e+00  3.4216387074751379e-04 4.1346818252175925e-03 0.0000000000000000e+00  3.4285062782854475e-04 4.1483973819716434e-03 0.0000000000000000e+00  3.4295362371089734e-04 4.1612579722352747e-03 0.0000000000000000e+00  3.4306714862347042e-04 4.1745588325134298e-03 0.0000000000000000e+00  3.4321649248163379e-04 4.1880920380986024e-03 0.0000000000000000e+00  3.4339489180664905e-04 4.2017505213591457e-03 0.0000000000000000e+00  3.4360613546447827e-04 4.2155279340461219e-03 0.0000000000000000e+00  3.4385692094533575e-04 4.2294862140595801e-03 0.0000000000000000e+00  3.4417083808721235e-04 4.2437191204216474e-03 0.0000000000000000e+00  3.4458447586704547e-04 4.2582467494063948e-03 0.0000000000000000e+00  3.4510542477100262e-04 4.2730577296027318e-03 0.0000000000000000e+00  3.4571577898397148e-04 4.2881221907146638e-03 0.0000000000000000e+00  3.4633220431330101e-04 4.3034440593688449e-03 0.0000000000000000e+00  3.4694320582544913e-04 4.3189272752291001e-03 0.0000000000000000e+00  3.4774595011712842e-04 4.3346552364403540e-03 0.0000000000000000e+00  3.4810179301238657e-04 4.3504614031398365e-03 0.0000000000000000e+00  3.4846405093791609e-04 4.3663765539129467e-03 0.0000000000000000e+00  3.4881353040069771e-04 4.3823941201468486e-03 0.0000000000000000e+00  3.4913800273670683e-04 4.3984975323214616e-03 0.0000000000000000e+00  3.4943903241877226e-04 4.4146694451720862e-03 0.0000000000000000e+00  3.4972123219366316e-04 4.4308807875748368e-03 0.0000000000000000e+00  3.4998526154269541e-04 4.4471264261273001e-03 0.0000000000000000e+00  3.5023124409601218e-04 4.4633949896434677e-03 0.0000000000000000e+00  3.5046028159670708e-04 4.4796763131765898e-03 0.0000000000000000e+00  3.5067338305799837e-04 4.4959636191147893e-03 0.0000000000000000e+00  3.5087115592618168e-04 4.5122517060717784e-03 0.0000000000000000e+00  3.5105413827569499e-04 4.5285358651394082e-03 0.0000000000000000e+00  3.5122297192997725e-04 4.5448120555567064e-03 0.0000000000000000e+