<?xml version="1.0"?>
<VTKFile type="UnstructuredGrid"  version="0.1"  >
<UnstructuredGrid>
<Piece  NumberOfPoints="2380" NumberOfCells="4561">
<Points>
<DataArray  type="Float64"  NumberOfComponents="3"  format="ascii">2.288260869565217 0 0  2.296521739130434 0 0  2.296521739130434 0.008333333333333333 0  2.304782608695652 0 0  2.304782608695652 0.008333333333333333 0  2.31304347826087 0 0  2.31304347826087 0.008333333333333333 0  2.321304347826087 0 0  2.321304347826087 0.008333333333333333 0  2.329565217391304 0 0  2.329565217391304 0.008333333333333333 0  2.337826086956521 0 0  2.337826086956521 0.008333333333333333 0  2.346086956521739 0 0  2.346086956521739 0.008333333333333333 0  2.354347826086956 0 0  2.354347826086956 0.008333333333333333 0  2.362608695652174 0 0  2.362608695652174 0.008333333333333333 0  2.370869565217391 0 0  2.370869565217391 0.008333333333333333 0  2.379130434782609 0 0  2.379130434782609 0.008333333333333333 0  2.387391304347826 0 0  2.387391304347826 0.008333333333333333 0  2.395652173913044 0 0  2.395652173913044 0.008333333333333333 0  2.403913043478261 0 0  2.403913043478261 0.008333333333333333 0  2.412173913043478 0 0  2.412173913043478 0.008333333333333333 0  2.420434782608695 0 0  2.420434782608695 0.008333333333333333 0  2.428695652173913 0 0  2.428695652173913 0.008333333333333333 0  2.43695652173913 0 0  2.43695652173913 0.008333333333333333 0  2.445217391304348 0 0  2.445217391304348 0.008333333333333333 0  2.453478260869565 0 0  2.453478260869565 0.008333333333333333 0  2.461739130434782 0 0  2.461739130434782 0.008333333333333333 0  2.47 0 0  2.47 0.008333333333333333 0  2.478260869565217 0 0  2.478260869565217 0.008333333333333333 0  2.486521739130435 0 0  2.486521739130435 0.008333333333333333 0  2.494782608695652 0 0  2.494782608695652 0.008333333333333333 0  2.503043478260869 0 0  2.503043478260869 0.008333333333333333 0  2.511304347826087 0 0  2.511304347826087 0.008333333333333333 0  2.519565217391305 0 0  2.519565217391305 0.008333333333333333 0  2.527826086956522 0 0  2.527826086956522 0.008333333333333333 0  2.536086956521739 0 0  2.536086956521739 0.008333333333333333 0  2.544347826086956 0 0  2.544347826086956 0.008333333333333333 0  2.552608695652174 0 0  2.552608695652174 0.008333333333333333 0  2.560869565217391 0 0  2.560869565217391 0.008333333333333333 0  2.569130434782608 0 0  2.569130434782608 0.008333333333333333 0  2.577391304347826 0 0  2.577391304347826 0.008333333333333333 0  2.585652173913043 0 0  2.585652173913043 0.008333333333333333 0  2.593913043478261 0 0  2.593913043478261 0.008333333333333333 0  2.602173913043478 0 0  2.602173913043478 0.008333333333333333 0  2.610434782608696 0.008333333333333333 0  2.304782608695652 0.01666666666666667 0  2.31304347826087 0.01666666666666667 0  2.321304347826087 0.01666666666666667 0  2.329565217391304 0.01666666666666667 0  2.337826086956521 0.01666666666666667 0  2.346086956521739 0.01666666666666667 0  2.354347826086956 0.01666666666666667 0  2.362608695652174 0.01666666666666667 0  2.370869565217391 0.01666666666666667 0  2.379130434782609 0.01666666666666667 0  2.387391304347826 0.01666666666666667 0  2.395652173913044 0.01666666666666667 0  2.403913043478261 0.01666666666666667 0  2.412173913043478 0.01666666666666667 0  2.420434782608695 0.01666666666666667 0  2.428695652173913 0.01666666666666667 0  2.43695652173913 0.01666666666666667 0  2.445217391304348 0.01666666666666667 0  2.453478260869565 0.01666666666666667 0  2.461739130434782 0.01666666666666667 0  2.47 0.01666666666666667 0  2.478260869565217 0.01666666666666667 0  2.486521739130435 0.01666666666666667 0  2.494782608695652 0.01666666666666667 0  2.503043478260869 0.01666666666666667 0  2.511304347826087 0.01666666666666667 0  2.519565217391305 0.01666666666666667 0  2.527826086956522 0.01666666666666667 0  2.536086956521739 0.01666666666666667 0  2.544347826086956 0.01666666666666667 0  2.552608695652174 0.01666666666666667 0  2.560869565217391 0.01666666666666667 0  2.569130434782608 0.01666666666666667 0  2.577391304347826 0.01666666666666667 0  2.585652173913043 0.01666666666666667 0  2.593913043478261 0.01666666666666667 0  2.602173913043478 0.01666666666666667 0  2.610434782608696 0.01666666666666667 0  2.618695652173913 0.01666666666666667 0  2.31304347826087 0.025 0  2.321304347826087 0.025 0  2.329565217391304 0.025 0  2.337826086956521 0.025 0  2.346086956521739 0.025 0  2.354347826086956 0.025 0  2.362608695652174 0.025 0  2.370869565217391 0.025 0  2.379130434782609 0.025 0  2.387391304347826 0.025 0  2.395652173913044 0.025 0  2.403913043478261 0.025 0  2.412173913043478 0.025 0  2.420434782608695 0.025 0  2.428695652173913 0.025 0  2.43695652173913 0.025 0  2.445217391304348 0.025 0  2.453478260869565 0.025 0  2.461739130434782 0.025 0  2.47 0.025 0  2.478260869565217 0.025 0  2.486521739130435 0.025 0  2.494782608695652 0.025 0  2.503043478260869 0.025 0  2.511304347826087 0.025 0  2.519565217391305 0.025 0  2.527826086956522 0.025 0  2.536086956521739 0.025 0  2.544347826086956 0.025 0  2.552608695652174 0.025 0  2.560869565217391 0.025 0  2.569130434782608 0.025 0  2.577391304347826 0.025 0  2.585652173913043 0.025 0  2.593913043478261 0.025 0  2.602173913043478 0.025 0  2.610434782608696 0.025 0  2.618695652173913 0.025 0  2.62695652173913 0.025 0  2.321304347826087 0.03333333333333333 0  2.329565217391304 0.03333333333333333 0  2.337826086956521 0.03333333333333333 0  2.346086956521739 0.03333333333333333 0  2.354347826086956 0.03333333333333333 0  2.362608695652174 0.03333333333333333 0  2.370869565217391 0.03333333333333333 0  2.379130434782609 0.03333333333333333 0  2.387391304347826 0.03333333333333333 0  2.395652173913044 0.03333333333333333 0  2.403913043478261 0.03333333333333333 0  2.412173913043478 0.03333333333333333 0  2.420434782608695 0.03333333333333333 0  2.428695652173913 0.03333333333333333 0  2.43695652173913 0.03333333333333333 0  2.445217391304348 0.03333333333333333 0  2.453478260869565 0.03333333333333333 0  2.461739130434782 0.03333333333333333 0  2.47 0.03333333333333333 0  2.478260869565217 0.03333333333333333 0  2.486521739130435 0.03333333333333333 0  2.494782608695652 0.03333333333333333 0  2.503043478260869 0.03333333333333333 0  2.511304347826087 0.03333333333333333 0  2.519565217391305 0.03333333333333333 0  2.527826086956522 0.03333333333333333 0  2.536086956521739 0.03333333333333333 0  2.544347826086956 0.03333333333333333 0  2.552608695652174 0.03333333333333333 0  2.560869565217391 0.03333333333333333 0  2.569130434782608 0.03333333333333333 0  2.577391304347826 0.03333333333333333 0  2.585652173913043 0.03333333333333333 0  2.593913043478261 0.03333333333333333 0  2.602173913043478 0.03333333333333333 0  2.610434782608696 0.03333333333333333 0  2.618695652173913 0.03333333333333333 0  2.62695652173913 0.03333333333333333 0  2.635217391304348 0.03333333333333333 0  2.329565217391304 0.04166666666666666 0  2.337826086956521 0.04166666666666666 0  2.346086956521739 0.04166666666666666 0  2.354347826086956 0.04166666666666666 0  2.362608695652174 0.04166666666666666 0  2.370869565217391 0.04166666666666666 0  2.379130434782609 0.04166666666666666 0  2.387391304347826 0.04166666666666666 0  2.395652173913044 0.04166666666666666 0  2.403913043478261 0.04166666666666666 0  2.412173913043478 0.04166666666666666 0  2.420434782608695 0.04166666666666666 0  2.428695652173913 0.04166666666666666 0  2.43695652173913 0.04166666666666666 0  2.445217391304348 0.04166666666666666 0  2.453478260869565 0.04166666666666666 0  2.461739130434782 0.04166666666666666 0  2.47 0.04166666666666666 0  2.478260869565217 0.04166666666666666 0  2.486521739130435 0.04166666666666666 0  2.494782608695652 0.04166666666666666 0  2.503043478260869 0.04166666666666666 0  2.511304347826087 0.04166666666666666 0  2.519565217391305 0.04166666666666666 0  2.527826086956522 0.04166666666666666 0  2.536086956521739 0.04166666666666666 0  2.544347826086956 0.04166666666666666 0  2.552608695652174 0.04166666666666666 0  2.560869565217391 0.04166666666666666 0  2.569130434782608 0.04166666666666666 0  2.577391304347826 0.04166666666666666 0  2.585652173913043 0.04166666666666666 0  2.593913043478261 0.04166666666666666 0  2.602173913043478 0.04166666666666666 0  2.610434782608696 0.04166666666666666 0  2.618695652173913 0.04166666666666666 0  2.62695652173913 0.04166666666666666 0  2.635217391304348 0.04166666666666666 0  2.643478260869565 0.04166666666666666 0  2.337826086956521 0.05 0  2.346086956521739 0.05 0  2.354347826086956 0.05 0  2.362608695652174 0.05 0  2.370869565217391 0.05 0  2.379130434782609 0.05 0  2.387391304347826 0.05 0  2.395652173913044 0.05 0  2.403913043478261 0.05 0  2.412173913043478 0.05 0  2.420434782608695 0.05 0  2.428695652173913 0.05 0  2.43695652173913 0.05 0  2.445217391304348 0.05 0  2.453478260869565 0.05 0  2.461739130434782 0.05 0  2.47 0.05 0  2.478260869565217 0.05 0  2.486521739130435 0.05 0  2.494782608695652 0.05 0  2.503043478260869 0.05 0  2.511304347826087 0.05 0  2.519565217391305 0.05 0  2.527826086956522 0.05 0  2.536086956521739 0.05 0  2.544347826086956 0.05 0  2.552608695652174 0.05 0  2.560869565217391 0.05 0  2.569130434782608 0.05 0  2.577391304347826 0.05 0  2.585652173913043 0.05 0  2.593913043478261 0.05 0  2.602173913043478 0.05 0  2.610434782608696 0.05 0  2.618695652173913 0.05 0  2.62695652173913 0.05 0  2.635217391304348 0.05 0  2.643478260869565 0.05 0  2.651739130434783 0.05 0  2.346086956521739 0.05833333333333333 0  2.354347826086956 0.05833333333333333 0  2.362608695652174 0.05833333333333333 0  2.370869565217391 0.05833333333333333 0  2.379130434782609 0.05833333333333333 0  2.387391304347826 0.05833333333333333 0  2.395652173913044 0.05833333333333333 0  2.403913043478261 0.05833333333333333 0  2.412173913043478 0.05833333333333333 0  2.420434782608695 0.05833333333333333 0  2.428695652173913 0.05833333333333333 0  2.43695652173913 0.05833333333333333
[...]
<CellData  Scalars="sigma_m"> 
<DataArray  type="Float64"  Name="sigma_m"  format="ascii">6.0322082914022645e+06   5.9581126656676549e+06   9.7684959647179879e+06   5.8731126648780135e+06   9.7787338916752636e+06   5.7866016862815442e+06   9.8914379809702206e+06   5.7173568235368496e+06   1.0156367778306056e+07   5.6843643336964818e+06   1.0662967220550653e+07   5.6667396237745900e+06   1.1505578691169139e+07   5.5186446394271478e+06   1.2615468830780437e+07   4.9774576584099410e+06   1.3516180031506980e+07   4.1290464382035951e+06   1.3421584499240842e+07   3.6865744790048790e+06   1.2097866391373213e+07   3.7769617067008582e+06   1.0439714270747198e+07   4.1985016394948335e+06   9.0092224406814687e+06   5.1608780475642048e+06   7.9186775949229030e+06   6.2713877284035226e+06   7.1765102842402281e+06   7.1202947873585429e+06   6.7767944012557231e+06   7.6408411315230401e+06   6.6060634637449943e+06   7.8873250003852630e+06   6.5223559516843539e+06   7.9802701283012824e+06   6.4593527280425327e+06   8.0441507228446044e+06   6.4075417726104232e+06   8.1748224482635725e+06   6.3737977790770568e+06   8.4612393010976370e+06   6.3753358462013351e+06   9.0399949803394023e+06   6.4718975475561460e+06   1.0030621195165725e+07   6.7142156541680051e+06   1.1404111166788872e+07   7.0266268977860566e+06   1.3054538151518635e+07   7.2578512286483040e+06   1.4974254510755613e+07   7.2528637158826431e+06   1.7240177092509370e+07   7.0746335675098663e+06   1.9187526442399953e+07   6.4974692180512846e+06   2.1855311661104038e+07   5.2167705765937213e+06   2.4030811906756468e+07   5.8975599149824241e+06   2.4807813238964662e+07   8.4453676238151509e+06   2.6608442778253116e+07   1.0110302279517952e+07   2.9494500842539568e+07   1.2038347620747389e+07   3.0008896629798692e+07   1.3201535833363820e+07   2.7581272639942802e+07   1.2267182332173344e+07   2.4618232911155764e+07   1.0581093935239270e+07   2.2416452278516769e+07   9.3093544951216020e+06   8.5765057723735496e+06   1.0046549514610898e+07   1.0067709670462975e+07   1.3793431757041579e+07   1.0192386754073204e+07   1.4084614514921656e+07   1.0468763490788037e+07   1.4610263713330453e+07   1.0986620695247902e+07   1.5545620556860598e+07   1.1831126588601984e+07   1.7366147629075687e+07   1.2902704849653624e+07   2.0652278955860287e+07   1.3769744415152721e+07   2.4543532617088113e+07   1.3751706808360742e+07   2.5621947120387014e+07   1.2427667863303553e+07   2.1309407325506289e+07   1.0647500854190491e+07   1.6026459808024576e+07   9.0070998301919363e+06   1.3372460842148693e+07   7.6925746602734253e+06   9.5060831581410915e+06   7.0613427945602424e+06   6.9235035347416149e+06   6.7668292843561759e+06   5.9224888887381684e+06   6.5933803824467966e+06   5.3524165285421051e+06   6.4575483077910701e+06   5.0243384507128540e+06   6.3590867197763268e+06   4.7918510343911899e+06   6.3031608603708921e+06   4.5909331126155807e+06   6.2929925473640701e+06   4.3516601670087585e+06   6.3629132886788882e+06   4.0194082319670967e+06   6.6153111325968448e+06   3.6688842540348112e+06   7.0784915545895090e+06   3.4237011304407837e+06   7.5765693894326938e+06   3.0750164978466677e+06   7.9041141679040408e+06   2.3395191711152056e+06   7.8987130351789193e+06   1.4062048047846199e+06   7.6075353911125222e+06   1.8851001301574805e+06   5.9808248423098298e+06   5.5856019707265832e+06   4.2144678586228387e+06   7.4850252566990182e+06   6.6595280509807570e+06   1.4856049938751187e+07   5.2825559097666275e+06   2.2806748480241314e+07   8.6432870059854502e+05   1.3427520481579194e+07   4.2009319827168732e+05   5.1261052039248981e+06   8.4664277443707280e+05   3.7030925456837495e+06   1.5996057763811515e+06   3.6777430899587348e+06   2.3400195885034455e+06   4.4018649543753620e+06   2.9051200248848386e+06   5.7309054897334026e+06   3.3321321081073689e+06   6.9273512152656559e+06   7.3718304833313795e+06   8.8888547444070540e+06   8.7061371942551713e+06   1.6532045024409529e+06   8.0901134308028510e+06   1.3496365926478992e+06   6.9232942727161078e+06   9.2287363310370327e+05   5.3177079646502538e+06   5.4135495967986481e+05   3.9140983462978359e+06   3.0229970497314265e+05   3.3496982607625760e+06   1.7045163372603516e+05   3.2468581539091878e+06   1.0978741359361458e+05   3.8854570464859009e+06   1.1772298016506217e+05   7.9036726920174370e+06   2.5467712794704814e+05   1.1958513124008857e+07   2.8122200938072628e+06   1.0011261584180309e+07   1.0016668175217137e+07   7.0728023570063431e+06   5.8147298428582912e+06   5.8194377522364343e+06   4.1107135001851264e+06   5.2115406986397617e+06   3.4036133506453414e+06   4.8578689499436999e+06   3.2533606650061654e+06   4.6260820560202003e+06   3.0734669511734913e+06   4.4481931351309950e+06   2.8792421227352605e+06   4.2431092145492407e+06   2.5631420879151728e+06   3.9998393832478612e+06   1.9922204084047230e+06   3.8431102950259242e+06   1.2130401143939113e+06   3.7566928017658987e+06   5.8655305085811880e+05   3.3670840037337737e+06   2.6033279076799381e+05   2.3569904347454268e+06   1.8620997841085375e+06   1.0411220723434779e+06   4.1415902505580187e+06   3.9822857643612907e+06   6.0585729090058310e+06   7.9435802655937644e+06   1.2506802529550625e+07   3.8653595525329500e+06   1.2217167923053615e+07   1.5795095955676150e+06   1.4560885796025378e+05   5.7406232936494074e+04   2.7143381288074356e+03   9.6017534815574945e+03   2.7812737429341769e+02   5.6872555265756755e+03   1.2642859153211099e+02   7.5309350424950062e+03   1.4718052996151650e+02   1.5054058436265113e+04   2.9506586428072035e+02   3.6377845208791434e+04   7.5825150419314275e+02   8.9036319241213874e+04   2.0804063790195605e+03   1.8799618099731562e+05   5.0967879327506689e+03   3.1450654114954756e+05   9.7730170805546077e+03   1.4159054730565116e+04   2.6106026654802878e+02   1.7052713905970478e+02   2.3474987740566720e+00   8.4842260843483004e+01   1.2559101269630457e+00   3.2026587790436693e+01   5.1541863214944450e-01   9.8472902117660457e+00   1.6755073481805546e-01   3.2384953750983621e+00   5.3195673343674893e-02   1.6623412781443905e+00   2.3880858317687503e-02   1.9453676404620008e+00   1.9753834755368918e-02   8.5446655625742292e+00   4.9375519693017157e-02   2.6327561939064077e+02   5.9050679240039150e-01   4.8709818345450731e+04   4.7721932773523520e+01   2.3578297292052098e+06   2.3627234564212682e+04   3.2247225919930018e+06   1.1362492613698030e+06   2.8969068299701647e+06   1.4210177005530435e+06   2.8526767974617165e+06   1.5211812896536360e+06   2.7792512422676170e+06   1.5135759509671591e+06   2.6540106090575051e+06   1.5712664685194073e+06   2.3656543566494859e+06   1.6343234101917730e+06   1.9523920666303472e+06   1.7655118317668270e+06   1.4696684426956193e+06   1.6933492392651332e+06   7.0162712988905853e+05   1.6099628718006359e+06   9.1467709190762194e+05   2.4739155218027979e+06   3.2260638006875813e+06   4.7780223888231218e+06   6.4904263077495974e+06   7.1415592708514072e+06   5.6489569437474199e+06   9.0153921652303040e+06   2.0966192705867661e+05   4.1623890133394525e+04   1.6909526421055938e+02   1.9928687141411757e+01   3.7119488407594198e-01   4.0994308421152453e-02   5.1984706675994776e-03   2.8663924004940173e-04   5.9818354406478147e-04   1.6510786795260247e-05   3.8749103076782948e-04   5.4601644940805071e-06   7.7462646837709963e-04   6.6023646190546092e-06   2.5136202382669099e-03   1.7147071414459944e-05   9.3923743831440601e-03   5.7690147721313668e-05   3.3403553489610424e-02   2.0771834412572311e-04   9.1372836846944055e-02   6.4631652882401168e-04   1.7262796670668462e-01   1.4161023834330167e-03   2.2819762516230011e-01   2.1084552092256563e-03   2.2288579804833173e-03   7.9220748239625688e-07   3.7514009775480111e-07   0.0000000000000000e+00   1.4589095850460977e-07   0.0000000000000000e+00   5.3117664489757115e-08   0.0000000000000000e+00   2.2459811160859802e-08   0.0000000000000000e+00   1.6622122709043366e-08   0.0000000000000000e+00   3.1164319085160202e-08   0.0000000000000000e+00   1.8254549984382342e-07   0.0000000000000000e+00   6.6016266107880644e-06   2.7806960323286809e-08   1.5949490663208362e-03   2.4341519883072526e-06   3.0674907083193803e+00   1.1826235156224378e-03   1.3503332546205742e+04   3.6795782012209797e+00   1.1599756540532748e+06   2.8630577024978473e+04   1.0506448281705375e+06   2.7661148524634243e+05   1.1167514686665311e+06   3.3932899891788122e+05   1.2376277153989272e+06   6.8067151249743998e+05   1.4070195915576785e+06   1.7428252026292649e+06   2.1218695482472889e+06   3.2517205778028918e+06   2.3602673144480563e+06   3.4919740806467547e+06   2.2509528395478907e+06   2.8538260986562129e+06   4.0681461165126683e+06   4.0538148071906408e+06   5.7998242349839630e+06   6.9018166446146928e+06   8.5043433542914677e+05   1.3311466405640699e+06   3.7563862508767079e+02   1.2256876305720995e+02   4.7305483411780612e-02   1.7930241329391073e-02   2.2847973033997282e-05   5.8234819748776602e-06   4.8267659079227425e-08   1.0533930686638960e-08   0.0000000000000000e+00   0.0000000000000000e+00   0.0000000000000000e+00   0.0000000000000000e+00   0.0000000000000000e+00   0.0000000000000000e+00   0.0000000000000000e+00   0.0000000000000000e+00   0.0000000000000000e+00   0.0000000000000000e+00   0.0000000000000000e+00   0.0000000000000000e+00   0.0000000000000000e+00   0.0000000000000000e+00   0.0000000000000000e+00   0.0000000000000000e+00   0.0000000000000000e+00   0.0000000000000000e+00   0.0000000000000000e+00   0.0000000000000000e+00   0.0000000000000000e+00   0.0000000000000000e+00   0.0000000000000000e+00   0.0000000000000000e+00   0.0000000000000000e+00   0.0000000000000000e+00   0.0000000000000000e+00   0.0000000000000000e+00   0.0000000000000000e+00   0.0000000000000000e+00   0.0000000000000000e+00   0.0000000000000000e+00   0.0000000000000000e+00   0.0000000000000000e+00   0.0000000000000000e+00   0.0000000000000000e+00   0.0000000000000000e+00   0.0000000000000000e+00   0.0000000000000000e+00   0.0000000000000000e+00   1.1264289125840603e-06   0.0000000000000000e+00   3.4282387552833234e-03   2.8394755345564156e-06   4.9387045131477208e+01   1.3548778643308269e-02   1.1724607678209693e+05   2.5655134720240619e+02   9.3712480064504663e+05   3.3906866470295668e+05   1.1325110413916600e+06   5.3177151803037664e+05   1.9476922238356688e+06   2.0671329023854127e+06   3.9908527607473419e+06   5.2871948522759788e+06   4.4123442752349218e+06   5.1926450115146609e+06   3.5466591722146049e+06   3.4556216338114408e+06   4.4269498571554851e+06   4.2924058881718135e+06   2.2127279603935964e+05   2.0997342100398525e+05   9.8505897954176049e+00   7.2166152599517579e+00   5.5689512800495837e-04   5.2184523616889179e-04   1.1319411110733795e-07   7.7099933221331831e-08   0.0000000000000000e+00   0.0000000000000000e+00   0.0000000000000000e+00   0.0000000000000000e+00   0.0000000000000000e+00   0.0000000000000000e+00   0.0000000000000000e+00   0.0000000000000000e+00   0.0000000000000000e+00   0.0000000000000000e+00   0.0000000000000000e+00   0.0000000000000000e+00   0.0000000000000000e+00   0.0000000000000000e+00   0.0000000000000000e+00   0.0000000000000000e+00   0.0000000000000000e+00   0.0000000000000000e+00   0.0000000000000000e+00   0.0000000000000000e+00   0.0000000000000000e+00   0.0000000000000000e+00   0.0000000000000000e+00   0.0000000000000000e+00   0.0000000000000000e+00   0.0000000000000000e+00   0.0000000000000000e+00   0.0000000000000000e+00   0.0000000000000000e+00   0.0000000000000000e+00   0.0000000000000000e+00   0.0000000000000000e+00   0.0000000000000000e+00   0.0000000000000000e+00   0.0000000000000000e+00   0.0000000000000000e+00   0.0000000000000000e+00   0.0000000000000000e+00   0.0000000000000000e+00   0.0000000000000000e+00   0.0000000000000000e+00   0.0000000000000000e+00   0.0000000000000000e+00   0.0000000000000000e+00   0.0000000000000000e+00   0.0000000000000000e+00   6.2427573390792237e-08   0.0000000000000000e+00   4.0702530714059837e-04   9.7949348637258564e-07   6.9253820890582931e+00   9.5357396360190461e-03   5.9793111597695693e+04   1.9607596318493540e+02   4.0660315728115169e+06   1.2507487891032880e+06   3.1226078338023871e+06   4.4856485581177585e+06   5.2348284632692803e+06   8.1601502048821151e+06   7.3395055957954964e+06   7.4803147134419959e+06   2.6352652912440840e+06   5.4556455572021753e+06   1.7170711617409057e+05   3.1997662353480811e+05   6.5923632049328713e+00   1.6600979530095533e+01   3.6948377728172156e-04   7.0995975672918238e-04   4.6165650143599486e-08   8.7052198527144636e-08   0.0000000000000000e+00   0.0000000000000000e+00   0.0000000000000000e+00   0.0000000000000000e+00   0.0000000000000000e+00   0.0000000000000000e+00   0.0000000000000000e+00   0.0000000000000000e+00   0.0000000000000000e+00   0.0000000000000000e+00   0.0000000000000000e+00   0.0000000000000000e+00   0.0000000000000000e+00   0.0000000000000000e+00   0.0000000000000000e+00   0.0000000000000000e+00   0.0000000000000000e+00   0.0000000000000000e+00   0.0000000000000000e+00   0.0000000000000000e+00   0.0000000000000000e+00   0.0000000000000000e+00   0.0000000000000000e+00   0.0000000000000000e+00   0.0000000000000000e+00   0.0000000000000000e+00   0.0000000000000000e+00   0.0000000000000000e+00   0.0000000000000000e+00   0.0000000000000000e+00   0.0000000000000000e+00   0.0000000000000000e+00   0.0000000000000000e+00   0.0000000000000000e+00   0.0000000000000000e+00   0.0000000000000000e+00   0.0000000000000000e+00   0.0000000000000000e+00   0.0000000000000000e+00   0.0000000000000000e+00   0.0000000000000000e+00   0.0000000000000000e+00   0.0000000000000000e+00   0.0000000000000000e+00   0.0000000000000000e+00   0.0000000000000000e+00   0.0000000000000000e+00   0.0000000000000000e+00   0.0000000000000000e+00   0.0000000000000000e+00   5.7865678477893637e-07   1.6352234752955024e-08   7.5853114470334814e-03   1.8022559124827997e-04   1.9231647997698619e+02   4.6784707823648377e+00   2.6949321463003559e+06   1.4987435424750776e+05   7.2812280310443984e+06   3.1230310860399272e+07   4.0625977394527383e+06   1.1925985096214084e+07   1.4125433798633790e+07   1.0300464436979735e+07   4.8592607211672580e+06   9.5430416507313978e+06   5.2751562595611870e+02   6.5659661472758989e+03   2.6045251211147865e-02   2.4682746075116468e-01   1.9135904882004897e-06   1.4162644296161830e-05   0.0000000000000000e+00   0.0000000000000000e+00   0.0000000000000000e+00   0.0000000000000000e+00   0.0000000000000000e+00   0.0000000000000000e+00   0.0000000000000000e+00   0.0000000000000000e+00   0.0000000000000000e+00   0.0000000000000000e+00   0.0000000000000000e+00   0.0000000000000000e+00   0.0000000000000000e+00   0.0000000000000000e+00   0.0000000000000000e+00   0.0000000000000000e+00   0.0000000000000000e+00   0.0000000000000000e+00   0.0000000000000000e+00   0.0000000000000000e+00   0.0000000000000000e+00   0.0000000000000000e+00   0.0000000000000000e+00   0.0000000000000000e+00   0.0000000000000000e+00   0.0000000000000000e+00   0.0000000000000000e+00   0.0000000000000000e+00   0.0000000000000000e+00   0.0000000000000000e+00   0.0000000000000000e+00   0.0000000000000000e+00   0.0000000000000000e+00   0.0000000000000000e+00   0.0000000000000000e+00   0.0000000000000000e+00   0.0000000000000000e+00   0.0000000000000000e+00   0.0000000000000000e+00   0.0000000000000000e+00   0.0000000000000000e+00   0.0000000000000000e+00   0.0000000000000000e+00   0.0000000000000000e+00   0.0000000000000000e+00   0.0000000000000000e+00   0.0000000000000000e+00   0.0000000000000000e+00   0.0000000000000000e+00   0.0000000000000000e+00   0.0000000000000000e+00   0.0000000000000000e+00   1.8953432915969703e-07   3.1022780408778996e-08   4.3114909776613480e-03   7.1780163832463697e-04   2.1625513231402863e+02   3.7907765338844655e+01   2.6836304353034245e+06   1.6699462495908004e+06   1.0413000676402595e+07   2.1273925744675934e+07   1.7550243035722463e+06   1.0999429820486940e+07   1.3187133592840239e+07   7.5616558562408974e+06   1.6218739366632044e+07   1.9830276307429042e+07   9.8278600148922180e+02   2.7172628219911392e+05   2.6181927501059434e-02   3.7843535235948247e+00   1.3857772420752978e-06   1.0206426750235385e-04   0.0000000000000000e+00   7.2812561372651712e-09   0.0000000000000000e+00   0.0000000000000000e+00   0.0000000000000000e+00   0.0000000000000000e+00   0.0000000000000000e+00   0.0000000000000000e+00   0.0000000000000000e+00   0.0000000000000000e+00   0.0000000000000000e+00   0.0000000000000000e+00   0.0000000000000000e+00   0.0000000000000000e+00   0.0000000000000000e+00   0.0000000000000000e+00   0.0000000000000000e+00   0.0000000000000000e+00   0.0000000000000000e+00   0.0000000000000000e+00   0.0000000000000000e+00   0.0000000000000000e+00   0.0000000000000000e+00   0.0000000000000000e+00   0.0000000000000000e+00   0.0000000000000000e+00   0.0000000000000000e+00   0.0000000000000000e+00   0.0000000000000000e+00   0.0000000000000000e+00   0.0000000000000000e+00   0.0000000000000000e+00   0.0000000000000000e+00   0.0000000000000000e+00   0.0000000000000000e+00   0.0000000000000000e+00   0.0000000000000000e+00   0.0000000000000000e+00   0.0000000000000000e+00   0.0000000000000000e+00   0.0000000000000000e+00   0.0000000000000000e+00   0.0000000000000000e+00   0.0000000000000000e+00   0.0000000000000000e+00   0.0000000000000000e+00   0.0000000000000000e+00   0.0000000000000000e+00   0.0000000000000000e+00   0.0000000000000000e+00   0.0000000000000000e+00   0.0000000000000000e+00   1.2412414890794383e-05   5.6038248112321827e-06   6.3068211555067000e-01   2.7023975242904735e-01   1.6823779823590819e+04   1.9013550646977408e+04   1.0369764141064923e+07   1.3242736384760473e+07   7.3623724221139587e+06   1.1138104864726821e+07   2.9744144939784505e+06   6.5077449271500213e+06   7.2409898572666645e+06   2.7713849722221643e+06   1.1391054072994089e+07   1.1135090520625725e+07   5.6932765826580685e+05   1.1853118190865342e+07   7.3966099521918052e+00   1.5082658212479200e+04   1.5455145764840011e-04   2.0302305322491024e-01   9.6827341129380868e-09   4.8350599653513256e-06   0.0000000000000000e+00   0.0000000000000000e+00   0.0000000000000000e+00   0.0000000000000000e+00   0.0000000000000000e+00   0.0000000000000000e+00   0.0000000000000000e+00   0.0000000000000000e+00   0.0000000000000000e+00   0.0000000000000000e+00   0.0000000000000000e+00   0.0000000000000000e+00   0.0000000000000000e+00   0.0000000000000000e+00   0.0000000000000000e+00   0.0000000000000000e+00   0.0000000000000000e+00   0.0000000000000000e+00   0.0000000000000000e+00   0.0000000000000000e+00   0.0000000000000000e+00   0.0000000000000000e+00   0.0000000000000000e+00   0.0000000000000000e+00   0.0000000000000000e+00   0.0000000000000000e+00   0.0000000000000000e+00   0.0000000000000000e+00   0.0000000000000000e+00   0.0000000000000000e+00   0.0000000000000000e+00   0.0000000000000000e+00   0.0000000000000000e+00   0.0000000000000000e+00   0.0000000000000000e+00   0.0000000000000000e+00   0.0000000000000000e+00   0.0000000000000000e+00   0.0000000000000000e+00   0.0000000000000000e+00   0.0000000000000000e+00   0.0000000000000000e+00   0.0000000000000000e+00   0.0000000000000000e+00   0.0000000000000000e+00   0.0000000000000000e+00   0.0000000000000000e+00   0.0000000000000000e+00   1.4104052395745009e-06   1.3370960684352517e-06   4.7403601239966321e-02   4.6655297844998569e-02   7.5911289774407703e+02   1.9766930532255303e+03   4.5297249550103471e+06   5.6526609532000776e+06   9.3542911643829755e+06   8.0722563015817236e+06   3.9329352709471188e+06   6.5467883826283580e+06   3.2959400325641953e+06   3.7747503166661812e+06   4.6711234707041634e+06   3.4953278303872346e+05   5.7447314431193946e+06   5.6105806453442005e+06   8.0367722266871156e+06   8.9783441160981953e+06   1.5106851459342011e+05   6.8504763328762203e+06   2.9644054333728822e+00   1.1239185998193658e+04   6.3831801745765825e-05   3.0092943478802986e-01   0.0000000000000000e+00   7.46750353