<?xml version="1.0"?>
<VTKFile type="UnstructuredGrid"  version="0.1"  >
<UnstructuredGrid>
<Piece  NumberOfPoints="2380" NumberOfCells="4561">
<Points>
<DataArray  type="Float64"  NumberOfComponents="3"  format="ascii">2.288260869565217 0 0  2.296521739130434 0 0  2.296521739130434 0.008333333333333333 0  2.304782608695652 0 0  2.304782608695652 0.008333333333333333 0  2.31304347826087 0 0  2.31304347826087 0.008333333333333333 0  2.321304347826087 0 0  2.321304347826087 0.008333333333333333 0  2.329565217391304 0 0  2.329565217391304 0.008333333333333333 0  2.337826086956521 0 0  2.337826086956521 0.008333333333333333 0  2.346086956521739 0 0  2.346086956521739 0.008333333333333333 0  2.354347826086956 0 0  2.354347826086956 0.008333333333333333 0  2.362608695652174 0 0  2.362608695652174 0.008333333333333333 0  2.370869565217391 0 0  2.370869565217391 0.008333333333333333 0  2.379130434782609 0 0  2.379130434782609 0.008333333333333333 0  2.387391304347826 0 0  2.387391304347826 0.008333333333333333 0  2.395652173913044 0 0  2.395652173913044 0.008333333333333333 0  2.403913043478261 0 0  2.403913043478261 0.008333333333333333 0  2.412173913043478 0 0  2.412173913043478 0.008333333333333333 0  2.420434782608695 0 0  2.420434782608695 0.008333333333333333 0  2.428695652173913 0 0  2.428695652173913 0.008333333333333333 0  2.43695652173913 0 0  2.43695652173913 0.008333333333333333 0  2.445217391304348 0 0  2.445217391304348 0.008333333333333333 0  2.453478260869565 0 0  2.453478260869565 0.008333333333333333 0  2.461739130434782 0 0  2.461739130434782 0.008333333333333333 0  2.47 0 0  2.47 0.008333333333333333 0  2.478260869565217 0 0  2.478260869565217 0.008333333333333333 0  2.486521739130435 0 0  2.486521739130435 0.008333333333333333 0  2.494782608695652 0 0  2.494782608695652 0.008333333333333333 0  2.503043478260869 0 0  2.503043478260869 0.008333333333333333 0  2.511304347826087 0 0  2.511304347826087 0.008333333333333333 0  2.519565217391305 0 0  2.519565217391305 0.008333333333333333 0  2.527826086956522 0 0  2.527826086956522 0.008333333333333333 0  2.536086956521739 0 0  2.536086956521739 0.008333333333333333 0  2.544347826086956 0 0  2.544347826086956 0.008333333333333333 0  2.552608695652174 0 0  2.552608695652174 0.008333333333333333 0  2.560869565217391 0 0  2.560869565217391 0.008333333333333333 0  2.569130434782608 0 0  2.569130434782608 0.008333333333333333 0  2.577391304347826 0 0  2.577391304347826 0.008333333333333333 0  2.585652173913043 0 0  2.585652173913043 0.008333333333333333 0  2.593913043478261 0 0  2.593913043478261 0.008333333333333333 0  2.602173913043478 0 0  2.602173913043478 0.008333333333333333 0  2.610434782608696 0.008333333333333333 0  2.304782608695652 0.01666666666666667 0  2.31304347826087 0.01666666666666667 0  2.321304347826087 0.01666666666666667 0  2.329565217391304 0.01666666666666667 0  2.337826086956521 0.01666666666666667 0  2.346086956521739 0.01666666666666667 0  2.354347826086956 0.01666666666666667 0  2.362608695652174 0.01666666666666667 0  2.370869565217391 0.01666666666666667 0  2.379130434782609 0.01666666666666667 0  2.387391304347826 0.01666666666666667 0  2.395652173913044 0.01666666666666667 0  2.403913043478261 0.01666666666666667 0  2.412173913043478 0.01666666666666667 0  2.420434782608695 0.01666666666666667 0  2.428695652173913 0.01666666666666667 0  2.43695652173913 0.01666666666666667 0  2.445217391304348 0.01666666666666667 0  2.453478260869565 0.01666666666666667 0  2.461739130434782 0.01666666666666667 0  2.47 0.01666666666666667 0  2.478260869565217 0.01666666666666667 0  2.486521739130435 0.01666666666666667 0  2.494782608695652 0.01666666666666667 0  2.503043478260869 0.01666666666666667 0  2.511304347826087 0.01666666666666667 0  2.519565217391305 0.01666666666666667 0  2.527826086956522 0.01666666666666667 0  2.536086956521739 0.01666666666666667 0  2.544347826086956 0.01666666666666667 0  2.552608695652174 0.01666666666666667 0  2.560869565217391 0.01666666666666667 0  2.569130434782608 0.01666666666666667 0  2.577391304347826 0.01666666666666667 0  2.585652173913043 0.01666666666666667 0  2.593913043478261 0.01666666666666667 0  2.602173913043478 0.01666666666666667 0  2.610434782608696 0.01666666666666667 0  2.618695652173913 0.01666666666666667 0  2.31304347826087 0.025 0  2.321304347826087 0.025 0  2.329565217391304 0.025 0  2.337826086956521 0.025 0  2.346086956521739 0.025 0  2.354347826086956 0.025 0  2.362608695652174 0.025 0  2.370869565217391 0.025 0  2.379130434782609 0.025 0  2.387391304347826 0.025 0  2.395652173913044 0.025 0  2.403913043478261 0.025 0  2.412173913043478 0.025 0  2.420434782608695 0.025 0  2.428695652173913 0.025 0  2.43695652173913 0.025 0  2.445217391304348 0.025 0  2.453478260869565 0.025 0  2.461739130434782 0.025 0  2.47 0.025 0  2.478260869565217 0.025 0  2.486521739130435 0.025 0  2.494782608695652 0.025 0  2.503043478260869 0.025 0  2.511304347826087 0.025 0  2.519565217391305 0.025 0  2.527826086956522 0.025 0  2.536086956521739 0.025 0  2.544347826086956 0.025 0  2.552608695652174 0.025 0  2.560869565217391 0.025 0  2.569130434782608 0.025 0  2.577391304347826 0.025 0  2.585652173913043 0.025 0  2.593913043478261 0.025 0  2.602173913043478 0.025 0  2.610434782608696 0.025 0  2.618695652173913 0.025 0  2.62695652173913 0.025 0  2.321304347826087 0.03333333333333333 0  2.329565217391304 0.03333333333333333 0  2.337826086956521 0.03333333333333333 0  2.346086956521739 0.03333333333333333 0  2.354347826086956 0.03333333333333333 0  2.362608695652174 0.03333333333333333 0  2.370869565217391 0.03333333333333333 0  2.379130434782609 0.03333333333333333 0  2.387391304347826 0.03333333333333333 0  2.395652173913044 0.03333333333333333 0  2.403913043478261 0.03333333333333333 0  2.412173913043478 0.03333333333333333 0  2.420434782608695 0.03333333333333333 0  2.428695652173913 0.03333333333333333 0  2.43695652173913 0.03333333333333333 0  2.445217391304348 0.03333333333333333 0  2.453478260869565 0.03333333333333333 0  2.461739130434782 0.03333333333333333 0  2.47 0.03333333333333333 0  2.478260869565217 0.03333333333333333 0  2.486521739130435 0.03333333333333333 0  2.494782608695652 0.03333333333333333 0  2.503043478260869 0.03333333333333333 0  2.511304347826087 0.03333333333333333 0  2.519565217391305 0.03333333333333333 0  2.527826086956522 0.03333333333333333 0  2.536086956521739 0.03333333333333333 0  2.544347826086956 0.03333333333333333 0  2.552608695652174 0.03333333333333333 0  2.560869565217391 0.03333333333333333 0  2.569130434782608 0.03333333333333333 0  2.577391304347826 0.03333333333333333 0  2.585652173913043 0.03333333333333333 0  2.593913043478261 0.03333333333333333 0  2.602173913043478 0.03333333333333333 0  2.610434782608696 0.03333333333333333 0  2.618695652173913 0.03333333333333333 0  2.62695652173913 0.03333333333333333 0  2.635217391304348 0.03333333333333333 0  2.329565217391304 0.04166666666666666 0  2.337826086956521 0.04166666666666666 0  2.346086956521739 0.04166666666666666 0  2.354347826086956 0.04166666666666666 0  2.362608695652174 0.04166666666666666 0  2.370869565217391 0.04166666666666666 0  2.379130434782609 0.04166666666666666 0  2.387391304347826 0.04166666666666666 0  2.395652173913044 0.04166666666666666 0  2.403913043478261 0.04166666666666666 0  2.412173913043478 0.04166666666666666 0  2.420434782608695 0.04166666666666666 0  2.428695652173913 0.04166666666666666 0  2.43695652173913 0.04166666666666666 0  2.445217391304348 0.04166666666666666 0  2.453478260869565 0.04166666666666666 0  2.461739130434782 0.04166666666666666 0  2.47 0.04166666666666666 0  2.478260869565217 0.04166666666666666 0  2.486521739130435 0.04166666666666666 0  2.494782608695652 0.04166666666666666 0  2.503043478260869 0.04166666666666666 0  2.511304347826087 0.04166666666666666 0  2.519565217391305 0.04166666666666666 0  2.527826086956522 0.04166666666666666 0  2.536086956521739 0.04166666666666666 0  2.544347826086956 0.04166666666666666 0  2.552608695652174 0.04166666666666666 0  2.560869565217391 0.04166666666666666 0  2.569130434782608 0.04166666666666666 0  2.577391304347826 0.04166666666666666 0  2.585652173913043 0.04166666666666666 0  2.593913043478261 0.04166666666666666 0  2.602173913043478 0.04166666666666666 0  2.610434782608696 0.04166666666666666 0  2.618695652173913 0.04166666666666666 0  2.62695652173913 0.04166666666666666 0  2.635217391304348 0.04166666666666666 0  2.643478260869565 0.04166666666666666 0  2.337826086956521 0.05 0  2.346086956521739 0.05 0  2.354347826086956 0.05 0  2.362608695652174 0.05 0  2.370869565217391 0.05 0  2.379130434782609 0.05 0  2.387391304347826 0.05 0  2.395652173913044 0.05 0  2.403913043478261 0.05 0  2.412173913043478 0.05 0  2.420434782608695 0.05 0  2.428695652173913 0.05 0  2.43695652173913 0.05 0  2.445217391304348 0.05 0  2.453478260869565 0.05 0  2.461739130434782 0.05 0  2.47 0.05 0  2.478260869565217 0.05 0  2.486521739130435 0.05 0  2.494782608695652 0.05 0  2.503043478260869 0.05 0  2.511304347826087 0.05 0  2.519565217391305 0.05 0  2.527826086956522 0.05 0  2.536086956521739 0.05 0  2.544347826086956 0.05 0  2.552608695652174 0.05 0  2.560869565217391 0.05 0  2.569130434782608 0.05 0  2.577391304347826 0.05 0  2.585652173913043 0.05 0  2.593913043478261 0.05 0  2.602173913043478 0.05 0  2.610434782608696 0.05 0  2.618695652173913 0.05 0  2.62695652173913 0.05 0  2.635217391304348 0.05 0  2.643478260869565 0.05 0  2.651739130434783 0.05 0  2.346086956521739 0.05833333333333333 0  2.354347826086956 0.05833333333333333 0  2.362608695652174 0.05833333333333333 0  2.370869565217391 0.05833333333333333 0  2.379130434782609 0.05833333333333333 0  2.387391304347826 0.05833333333333333 0  2.395652173913044 0.05833333333333333 0  2.403913043478261 0.05833333333333333 0  2.412173913043478 0.05833333333333333 0  2.420434782608695 0.05833333333333333 0  2.428695652173913 0.05833333333333333 0  2.43695652173913 0.05833333333333333
[...]
<CellData  Scalars="rho_bar"> 
<DataArray  type="Float64"  Name="rho_bar"  format="ascii">9.9999999999999978e-01   9.9999999999999978e-01   9.9999999999999978e-01   9.9999999999999978e-01   9.9999999999999978e-01   1.0000000000000000e+00   1.0000000000000000e+00   9.9999999999999978e-01   9.9999999999999978e-01   9.9999999999999978e-01   9.9999999999999978e-01   9.9999999999999978e-01   9.9999999999999978e-01   9.9999999999999978e-01   9.9999999999999978e-01   1.0000000000000000e+00   9.9999999999999989e-01   9.9999999999999978e-01   9.9999999999999978e-01   1.0000000000000000e+00   1.0000000000000000e+00   1.0000000000000000e+00   1.0000000000000000e+00   1.0000000000000000e+00   1.0000000000000000e+00   9.9999999999999978e-01   9.9999999999999978e-01   1.0000000000000000e+00   1.0000000000000000e+00   9.9999999999999978e-01   9.9999999999999978e-01   1.0000000000000000e+00   1.0000000000000000e+00   1.0000000000000000e+00   1.0000000000000000e+00   9.9999999999999978e-01   9.9999999999999978e-01   1.0000000000000000e+00   1.0000000000000000e+00   9.9999999999999978e-01   9.9999999999999978e-01   9.9999999999999978e-01   9.9999999999999978e-01   9.9999999999999978e-01   9.9999999999999978e-01   1.0000000000000000e+00   1.0000000000000000e+00   9.9999999999999978e-01   9.9999999999999978e-01   1.0000000000000000e+00   1.0000000000000000e+00   1.0000000000000000e+00   1.0000000000000000e+00   1.0000000000000000e+00   1.0000000000000000e+00   9.9999999999999978e-01   9.9999999999999978e-01   9.9999999999999978e-01   9.9999999999999978e-01   9.9999999999999989e-01   9.9999999999999989e-01   9.9999999999999778e-01   9.9999999999999745e-01   9.9999999999998812e-01   9.9999999999998057e-01   9.9999999999997247e-01   9.9999999999994171e-01   9.9999999999996647e-01   9.9999999999991496e-01   9.9999999999997358e-01   9.9999999999992473e-01   9.9999999999998335e-01   9.9999999999995082e-01   9.9999999999999034e-01   9.9999999999997158e-01   9.9999999999998324e-01   9.9999999999999845e-01   9.9999999999999833e-01   9.9999999999998823e-01   9.9999999999999822e-01   9.9999999999998679e-01   9.9999999999999711e-01   9.9999999999998224e-01   9.9999999999999567e-01   9.9999999999997136e-01   9.9999999999999223e-01   9.9999999999994738e-01   9.9999999999998623e-01   9.9999999999990119e-01   9.9999999999998168e-01   9.9999999999984279e-01   9.9999999999998468e-01   9.9999999999983091e-01   9.9999999999999412e-01   9.9999999999990208e-01   9.9999999999999922e-01   9.9999999999997702e-01   9.9999999999999989e-01   9.9999999999999822e-01   9.9999999999999978e-01   9.9999999999999978e-01   1.0000000000000000e+00   1.0000000000000000e+00   9.9999999999999978e-01   9.9999999999999978e-01   1.0000000000000000e+00   1.0000000000000000e+00   1.0000000000000000e+00   1.0000000000000000e+00   9.9999999999999978e-01   9.9999999999999978e-01   1.0000000000000000e+00   1.0000000000000000e+00   9.9999999999999978e-01   9.9999999999999978e-01   9.9999999999999978e-01   9.9999999999999978e-01   9.9999999999999978e-01   9.9999999999999978e-01   1.0000000000000000e+00   1.0000000000000000e+00   9.9999999999999978e-01   9.9999999999999978e-01   1.0000000000000000e+00   1.0000000000000000e+00   1.0000000000000000e+00   1.0000000000000000e+00   1.0000000000000000e+00   1.0000000000000000e+00   9.9999999999999978e-01   9.9999999999999978e-01   9.9999999999999745e-01   9.9999999999999478e-01   9.9999999999979894e-01   9.9999999999934697e-01   9.9999999999631495e-01   9.9999999998085864e-01   9.9999999998368139e-01   9.9999999987061072e-01   9.9999999997248290e-01   9.9999999971499243e-01   9.9999999997578970e-01   9.9999999970396736e-01   9.9999999998557165e-01   9.9999999981020693e-01   9.9999999999287148e-01   9.9999999990624777e-01   9.9999999999652545e-01   9.9999999995712952e-01   9.9999999999807909e-01   9.9999999997870592e-01   9.9999999998720202e-01   9.9999999989664623e-01   9.9999999987177934e-01   9.9999999713164545e-01   9.9999999979709653e-01   9.9999999581344257e-01   9.9999999958901942e-01   9.9999999199091782e-01   9.9999999893370117e-01   9.9999997967650656e-01   9.9999999700390441e-01   9.9999993796313513e-01   9.9999999360734215e-01   9.9999983300411954e-01   9.9999999154738417e-01   9.9999970002678684e-01   9.9999999528921368e-01   9.9999973035460143e-01   9.9999999935266737e-01   9.9999992139534555e-01   9.9999999998446254e-01   9.9999999516896232e-01   9.9999999999992795e-01   9.9999999994927757e-01   9.9999999999999989e-01   9.9999999999988953e-01   1.0000000000000000e+00   9.9999999999999989e-01   9.9999999999999989e-01   9.9999999999999989e-01   9.9999999999999989e-01   9.9999999999999989e-01   1.0000000000000000e+00   1.0000000000000000e+00   9.9999999999999989e-01   9.9999999999999989e-01   1.0000000000000000e+00   1.0000000000000000e+00   9.9999999999999989e-01   9.9999999999999989e-01   1.0000000000000000e+00   1.0000000000000000e+00   9.9999999999999989e-01   9.9999999999999989e-01   1.0000000000000000e+00   1.0000000000000000e+00   9.9999999999999989e-01   9.9999999999999989e-01   9.9999999999999989e-01   9.9999999999999989e-01   9.9999999999999911e-01   9.9999999999999778e-01   9.9999999999823852e-01   9.9999999999334632e-01   9.9999999870077116e-01   9.9999999216011326e-01   9.9999978803331691e-01   9.9999783933945741e-01   9.9999454560938750e-01   9.9990036140876892e-01   9.9997687191584306e-01   9.9923794348018558e-01   9.9997396619928725e-01   9.9867506874469680e-01   9.9998671715900789e-01   9.9916522675735175e-01   9.9999511217974069e-01   9.9969545717885799e-01   9.9999842695728935e-01   9.9990872720269208e-01   9.9999945739372809e-01   9.9997285284467230e-01   9.9999975539280106e-01   9.9999007427735476e-01   9.9999984795397112e-01   9.9999486364500945e-01   9.9999622931410515e-01   9.9711801036871550e-01   9.9497545304871515e-01   8.0591088530331834e-01   9.8852292391065455e-01   7.1946394342911646e-01   9.6858187917047689e-01   6.0276278971250308e-01   9.1854990549827686e-01   4.8226308386559075e-01   8.5668249905997318e-01   4.0449223025905112e-01   8.3655392189860533e-01   3.7875788430408336e-01   8.8700092567502031e-01   3.9122763687620615e-01   9.7976820990211155e-01   5.0940065246628174e-01   9.9955203042102603e-01   8.5856749220751705e-01   9.9999859226963883e-01   9.9787509129986085e-01   9.9999999918077598e-01   9.9999690656929818e-01   9.9999999999986200e-01   9.9999999908403392e-01   9.9999999999999989e-01   9.9999999999990763e-01   9.9999999999999989e-01   9.9999999999999989e-01   1.0000000000000000e+00   1.0000000000000000e+00   9.9999999999999989e-01   9.9999999999999989e-01   1.0000000000000000e+00   1.0000000000000000e+00   9.9999999999999989e-01   9.9999999999999989e-01   1.0000000000000000e+00   1.0000000000000000e+00   9.9999999999999989e-01   9.9999999999999989e-01   1.0000000000000000e+00   1.0000000000000000e+00   9.9999999999999989e-01   9.9999999999999989e-01   9.9999999999983069e-01   9.9999999999956313e-01   9.9999999806736217e-01   9.9999999303872178e-01   9.9999167548357160e-01   9.9995701458723352e-01   9.9074533907453344e-01   9.4603732587710354e-01   7.1512395173396059e-01   4.4750213746655471e-01   6.2554526793087017e-01   2.9256843031127616e-01   4.8843803894061905e-01   8.7967238021247604e-02   4.2791289983547437e-01   3.1221670732742030e-02   4.8981682464375392e-01   3.3370844341604283e-02   5.8225777668295675e-01   7.0091493626924364e-02   6.3864017144105478e-01   1.5266023764289313e-01   6.6159518375195070e-01   2.4841285396090013e-01   6.7277896029143536e-01   3.0015839981872944e-01   6.8011447303300576e-01   3.1820381995236502e-01   6.8237891219110780e-01   3.2384314532509678e-01   3.2413245844151417e-01   4.4964300569232587e-03   2.1785550338937849e-03   2.4461514826730944e-05   8.5653692712422957e-04   1.1734248032829742e-05   3.1690250683191756e-04   5.2147466159853835e-06   1.4423551244725311e-04   2.6222853033256808e-06   1.1455604048873912e-04   2.0368333076096570e-06   2.1540633594976003e-04   3.2573070491796288e-06   1.5325688334246002e-03   1.3777028127825995e-05   5.4941650751199118e-02   2.4861317633607466e-04   5.5799774960252846e-01   2.2670696569239996e-02   9.9127998840036902e-01   4.9186557030602757e-01   9.9999825191724900e-01   9.9288539474031301e-01   9.9999999990729238e-01   9.9999908816040928e-01   9.9999999999999656e-01   9.9999999996377553e-01   1.0000000000000000e+00   9.9999999999999856e-01   9.9999999999999989e-01   9.9999999999999989e-01   1.0000000000000000e+00   1.0000000000000000e+00   9.9999999999999989e-01   9.9999999999999989e-01   1.0000000000000000e+00   1.0000000000000000e+00   9.9999999999999989e-01   9.9999999999999989e-01   9.9999999999999967e-01   9.9999999999999944e-01   9.9999999999100853e-01   9.9999999998190636e-01   9.9999974595915320e-01   9.9999941928207081e-01   9.9687205764169073e-01   9.9193652422881473e-01   6.5080538583675240e-01   4.7779730144179888e-01   1.2892420430700929e-01   5.2149192513951302e-02   4.5560793368969632e-04   9.0962918778349680e-05   5.0486712106131045e-06   6.6864775268478849e-07   2.8201245763637134e-07   2.2467176628386078e-08   6.6417610337469554e-08   2.9548576733577176e-09   5.2488367920563065e-08   1.2401430993236318e-09   9.0025496326158917e-08   1.3365405264013457e-09   2.1452075617730182e-07   2.2749380990116914e-09   5.5687964289896630e-07   4.7041079920262518e-09   1.2599176715995713e-06   9.7427549824076944e-09   2.0986189672074955e-06   1.6365085730996043e-08   2.4558504618614006e-06   2.0054642872284013e-08   2.0837553180164110e-06   1.8017915002592012e-08   1.2424086500336291e-08   5.2443234939876983e-12   4.1409746002566781e-12   1.0772864082279435e-13   3.8353209497188329e-12   1.1001384988181447e-13   5.1036952442018446e-12   1.4957479699262421e-13   1.2009347220380086e-11   3.2433315292716231e-13   6.2874464893762154e-11   1.3617995620052170e-12   9.6930047321919233e-10   1.3664190149735116e-11   5.5806229184070709e-08   4.2132934178577364e-10   1.3284967221166566e-05   4.7169199231718771e-08   1.2405639485773567e-02   2.0350657394335725e-05   6.5415804058886406e-01   3.0364938642372812e-02   9.9987327838307249e-01   8.4058765616899367e-01   9.9999999450263355e-01   9.9997497926439849e-01   9.9999999999984257e-01   9.9999999900406933e-01   9.9999999999999967e-01   9.9999999999996325e-01   9.9999999999999989e-01   9.9999999999999989e-01   9.9999999999999989e-01   9.9999999999999989e-01   9.9999999999999989e-01   9.9999999999999989e-01   9.9999999999999756e-01   9.9999999999999656e-01   9.9999999995539857e-01   9.9999999994373168e-01   9.9999851789369010e-01   9.9999826428616767e-01   9.7447294826120368e-01   9.7054858986189041e-01   3.8985068198201689e-01   3.5630795670900101e-01   1.2789918104492979e-03   8.7859184788540324e-04   8.8018912923019487e-07   4.9021443482288863e-07   2.2575737205580517e-09   9.5275447716443762e-10   2.1844664965797730e-11   6.5335237220409681e-12   7.4159197301545043e-13   1.4815001077768858e-13   7.7428804109066122e-14   9.9364960703951495e-15   2.0640896399489368e-14   1.6838382540148209e-15   1.0824674490095276e-14   6.0137080500529316e-16   8.4932061383824460e-15   3.5157062446463284e-16   8.1046280797636427e-15   2.5905203907920311e-16   7.9751020602240406e-15   2.2204460492503131e-16   7.1794422259093446e-15   1.8503717077085943e-16   5.5788706987414108e-15   1.3877787807814454e-16   3.6729878398015590e-15   9.2518585385429703e-17   2.0909200297107114e-15   5.5511151231257802e-17   1.8503717077085941e-17   0.0000000000000000e+00   0.0000000000000000e+00   0.0000000000000000e+00   9.2518585385429691e-18   0.0000000000000000e+00   6.4763009769800790e-17   0.0000000000000000e+00   7.4940054162198057e-16   1.8503717077085938e-17   2.1945408453423927e-14   4.9960036108132034e-16   1.8118747243297165e-12   2.7311486405778848e-14   4.5615002515949260e-10   4.3831049900688868e-12   3.5580346583833717e-07   2.1437680889728000e-09   8.3850511889311640e-04   3.1398945241530494e-06   4.6705217031505369e-01   1.2622708472332321e-02   9.9973852971875099e-01   8.9564124569951631e-01   9.9999998830821901e-01   9.9999056529412900e-01   9.9999999999953593e-01   9.9999999960039576e-01   9.9999999999999978e-01   9.9999999999996581e-01   9.9999999999999989e-01   9.9999999999999967e-01   9.9999999999999856e-01   9.9999999999999833e-01   9.9999999999188238e-01   9.9999999999507616e-01   9.9999981791599268e-01   9.9999991207371797e-01   9.9596457940252703e-01   9.9815906076036620e-01   3.6733071663921352e-01   5.1093624886306888e-01   5.7510690158391043e-04   1.0403653404657633e-03   1.7221235813306518e-07   2.6039960169625215e-07   1.5069052487307980e-10   1.8146906199945076e-10   3.8844853259926510e-13   3.5562293850451461e-13   2.9050835811024927e-15   1.9336384345554807e-15   6.4763009769800778e-17   2.7755575615628910e-17   0.0000000000000000e+00   0.0000000000000000e+00   0.0000000000000000e+00   0.0000000000000000e+00   0.0000000000000000e+00   0.0000000000000000e+00   0.0000000000000000e+00   0.0000000000000000e+00   0.0000000000000000e+00   0.0000000000000000e+00   0.0000000000000000e+00   0.0000000000000000e+00   0.0000000000000000e+00   0.0000000000000000e+00   0.0000000000000000e+00   0.0000000000000000e+00   0.0000000000000000e+00   0.0000000000000000e+00   0.0000000000000000e+00   0.0000000000000000e+00   0.0000000000000000e+00   0.0000000000000000e+00   0.0000000000000000e+00   0.0000000000000000e+00   0.0000000000000000e+00   0.0000000000000000e+00   0.0000000000000000e+00   0.0000000000000000e+00   0.0000000000000000e+00   0.0000000000000000e+00   1.8503717077085938e-17   0.0000000000000000e+00   2.0354088784794531e-15   7.4014868308343753e-17   6.9106757353646730e-13   2.4757973449140991e-14   6.0597489063655518e-10   1.9524465377784843e-11   1.3736798260092591e-06   3.9434883543817037e-08   7.6370679020880674e-03   2.0022468896903803e-04   8.8104493304903653e-01   3.8083673675796703e-01   9.9998987862860444e-01   9.9954960797080905e-01   9.9999999956534324e-01   9.9999998482019059e-01   9.9999999999994704e-01   9.9999999999917555e-01   9.9999999999999933e-01   9.9999999999999833e-01   9.9999999999997424e-01   9.9999999999999389e-01   9.9999999980072773e-01   9.9999999997991706e-01   9.9999477659890257e-01   9.9999948872524957e-01   9.1023223675684350e-01   9.8783815911704753e-01   2.5390923362864738e-02   1.4435633923754354e-01   3.8376243071032894e-06   2.1941746791218998e-05   1.2604873903902338e-09   5.5145678116523076e-09   1.0238014140166265e-12   3.3250716994596518e-12   2.0631644540950824e-15   4.8572257327350591e-15   9.2518585385429691e-18   9.2518585385429691e-18   0.0000000000000000e+00   0.0000000000000000e+00   0.0000000000000000e+00   0.0000000000000000e+00   0.0000000000000000e+00   0.0000000000000000e+00   0.0000000000000000e+00   0.0000000000000000e+00   0.0000000000000000e+00   0.0000000000000000e+00   0.0000000000000000e+00   0.0000000000000000e+00   0.0000000000000000e+00   0.0000000000000000e+00   0.0000000000000000e+00   0.0000000000000000e+00   0.0000000000000000e+00   0.0000000000000000e+00   0.0000000000000000e+00   0.0000000000000000e+00   0.0000000000000000e+00   0.0000000000000000e+00   0.0000000000000000e+00   0.0000000000000000e+00   0.0000000000000000e+00   0.0000000000000000e+00   0.0000000000000000e+00   0.0000000000000000e+00   0.0000000000000000e+00   0.0000000000000000e+00   0.0000000000000000e+00   0.0000000000000000e+00   0.0000000000000000e+00   0.0000000000000000e+00   7.4014868308343753e-17   1.8503717077085938e-17   5.3956838996782620e-14   7.8640797577615265e-15   7.8541562142930843e-11   1.1976632648587797e-11   2.7876223606300893e-07   4.3300199213206866e-08   2.4969779897941460e-03   3.9430166230057051e-04   7.2497936064243074e-01   4.0275205742170833e-01   9.9995188295161774e-01   9.9969827041409365e-01   9.9999999860130351e-01   9.9999999331749456e-01   9.9999999999988110e-01   9.9999999999969313e-01   9.9999999999999933e-01   9.9999999999999933e-01   9.9999999999999212e-01   9.9999999999999967e-01   9.9999999995324285e-01   9.9999999999969946e-01   9.9999826654013346e-01   9.9999998922468003e-01   9.5405755934868297e-01   9.9944290883117370e-01   1.8701934165122711e-02   3.8110675475561118e-01   2.0846879227228348e-06   8.7100198544687299e-05   4.9656094051423838e-10   1.2553080140180011e-08   2.6966392082291201e-13   4.1521138379370849e-12   3.2381504884900393e-16   3.0993726104118951e-15   0.0000000000000000e+00   0.0000000000000000e+00   0.0000000000000000e+00   0.0000000000000000e+00   0.0000000000000000e+00   0.0000000000000000e+00   0.0000000000000000e+00   0.0000000000000000e+00   0.0000000000000000e+00   0.0000000000000000e+00   0.0000000000000000e+00   0.0000000000000000e+00   0.0000000000000000e+00   0.0000000000000000e+00   0.0000000000000000e+00   0.0000000000000000e+00   0.0000000000000000e+00   0.0000000000000000e+00   0.0000000000000000e+00   0.0000000000000000e+00   0.0000000000000000e+00   0.0000000000000000e+00   0.0000000000000000e+00   0.0000000000000000e+00   0.0000000000000000e+00   0.0000000000000000e+00   0.0000000000000000e+00   0.0000000000000000e+00   0.0000000000000000e+00   0.0000000000000000e+00   0.0000000000000000e+00   0.0000000000000000e+00   0.0000000000000000e+00   0.0000000000000000e+00   0.0000000000000000e+00   0.0000000000000000e+00   1.7578531223231644e-16   5.5511151231257821e-17   2.7229144864785820e-13   1.0266787420221135e-13   9.3314815134230347e-10   3.7048701143997193e-10   7.6362034262163654e-06   3.0951460037731415e-06   1.1216532578656138e-01   5.7189560854157127e-02   9.3375441397300130e-01   8.7280138972200294e-01   9.9999825243834872e-01   9.9999567487386720e-01   9.9999999996688971e-01   9.9999999992958732e-01   9.9999999999999656e-01   9.9999999999999512e-01   9.9999999999999989e-01   9.9999999999999989e-01   9.9999999999999978e-01   1.0000000000000000e+00   9.9999999999985378e-01   9.9999999999999944e-01   9.9999999458748345e-01   9.9999999999625377e-01   9.9966673487247826e-01   9.9999976412941283e-01   4.6891816846997619e-01   9.8524643336616669e-01   1.0636844269864182e-04   4.8986545844279965e-02   1.2163366175377275e-08   3.1539275309836836e-06   3.1080416018625097e-12   3.9568550288156723e-10   1.7115938296304498e-15   1.0833001162779965e-13   0.0000000000000000e+00   5.5511151231257821e-17   0.0000000000000000e+00   0.0000000000000000e+00   0.0000000000000000e+00   0.0000000000000000e+00   0.0000000000000000e+00   0.0000000000000000e+00   0.0000000000000000e+00   0.0000000000000000e+00   0.0000000000000000e+00   0.0000000000000000e+00   0.0000000000000000e+00   0.0000000000000000e+00   0.0000000000000000e+00   0.0000000000000000e+00   0.0000000000000000e+00   0.0000000000000000e+00   0.0000000000000000e+00   0.0000000000000000e+00   0.0000000000000000e+00   0.0000000000000000e+00   0.0000000000000000e+00   0.0000000000000000e+00   0.0000000000000000e+00   0.0000000000000000e+00   0.0000000000000000e+00   0.0000000000000000e+00   0.0000000000000000e+00   0.0000000000000000e+00   0.0000000000000000e+00   0.0000000000000000e+00   0.0000000000000000e+00   0.0000000000000000e+00   0.0000000000000000e+00   0.0000000000000000e+00   1.6579330501068999e-14   1.0260311119244152e-14   8.0124814190914620e-11   5.5676306158029343e-11   8.2024105845420360e-07   6.2029958767621329e-07   1.7143548482478815e-02   1.3922786909869488e-02   6.6432459474845607e-01   6.3463070794365539e-01   9.9990309758861007e-01   9.9986730224653164e-01   9.9999999847262322e-01   9.9999999771394021e-01   9.9999999999994382e-01   9.9999999999991751e-01   1.0000000000000000e+00   1.0000000000000000e+00   9.9999999999999989e-01   9.9999999999999989e-01   1.0000000000000000e+00   1.0000000000000000e+00   9.9999999999999956e-01   9.9999999999999989e-01   9.9999999999921685e-01   9.9999999999999856e-01   9.9999996846441264e-01   9.9999999999050337e-01   9.9804203075578224e-01   9.9999961083245881e-01   3.2027493147280012e-01   9.7874752414803667e-01   2.6538631661937595e-05   6.13500142