<?xml version="1.0"?>
<VTKFile type="UnstructuredGrid"  version="0.1"  >
<UnstructuredGrid>
<Piece  NumberOfPoints="2404" NumberOfCells="4573">
<Points>
<DataArray  type="Float64"  NumberOfComponents="3"  format="ascii">0 0 0  0.008260869565217391 0 0  0.008260869565217391 0.008333333333333333 0  0 0.008333333333333333 0  0.01652173913043478 0 0  0.01652173913043478 0.008333333333333333 0  0.02478260869565217 0 0  0.02478260869565217 0.008333333333333333 0  0.03304347826086956 0 0  0.03304347826086956 0.008333333333333333 0  0.04130434782608695 0 0  0.04130434782608695 0.008333333333333333 0  0.04956521739130434 0 0  0.04956521739130434 0.008333333333333333 0  0.05782608695652174 0 0  0.05782608695652174 0.008333333333333333 0  0.06608695652173913 0 0  0.06608695652173913 0.008333333333333333 0  0.07434782608695652 0 0  0.07434782608695652 0.008333333333333333 0  0.08260869565217391 0 0  0.08260869565217391 0.008333333333333333 0  0.0908695652173913 0 0  0.0908695652173913 0.008333333333333333 0  0.09913043478260869 0 0  0.09913043478260869 0.008333333333333333 0  0.1073913043478261 0 0  0.1073913043478261 0.008333333333333333 0  0.1156521739130435 0 0  0.1156521739130435 0.008333333333333333 0  0.1239130434782609 0 0  0.1239130434782609 0.008333333333333333 0  0.1321739130434783 0 0  0.1321739130434783 0.008333333333333333 0  0.1404347826086956 0 0  0.1404347826086956 0.008333333333333333 0  0.148695652173913 0 0  0.148695652173913 0.008333333333333333 0  0.1569565217391304 0 0  0.1569565217391304 0.008333333333333333 0  0.1652173913043478 0 0  0.1652173913043478 0.008333333333333333 0  0.1734782608695652 0 0  0.1734782608695652 0.008333333333333333 0  0.1817391304347826 0 0  0.1817391304347826 0.008333333333333333 0  0.19 0 0  0.19 0.008333333333333333 0  0.1982608695652174 0 0  0.1982608695652174 0.008333333333333333 0  0.2065217391304348 0 0  0.2065217391304348 0.008333333333333333 0  0.2147826086956522 0 0  0.2147826086956522 0.008333333333333333 0  0.2230434782608696 0 0  0.2230434782608696 0.008333333333333333 0  0.2313043478260869 0 0  0.2313043478260869 0.008333333333333333 0  0.2395652173913043 0 0  0.2395652173913043 0.008333333333333333 0  0.2478260869565218 0 0  0.2478260869565218 0.008333333333333333 0  0.2560869565217391 0 0  0.2560869565217391 0.008333333333333333 0  0.2643478260869565 0 0  0.2643478260869565 0.008333333333333333 0  0.2726086956521739 0 0  0.2726086956521739 0.008333333333333333 0  0.2808695652173913 0 0  0.2808695652173913 0.008333333333333333 0  0.2891304347826087 0 0  0.2891304347826087 0.008333333333333333 0  0.2973913043478261 0 0  0.2973913043478261 0.008333333333333333 0  0.3056521739130434 0 0  0.3056521739130434 0.008333333333333333 0  0.008260869565217391 0.01666666666666667 0  0 0.01666666666666667 0  0.01652173913043478 0.01666666666666667 0  0.02478260869565217 0.01666666666666667 0  0.03304347826086956 0.01666666666666667 0  0.04130434782608695 0.01666666666666667 0  0.04956521739130434 0.01666666666666667 0  0.05782608695652174 0.01666666666666667 0  0.06608695652173913 0.01666666666666667 0  0.07434782608695652 0.01666666666666667 0  0.08260869565217391 0.01666666666666667 0  0.0908695652173913 0.01666666666666667 0  0.09913043478260869 0.01666666666666667 0  0.1073913043478261 0.01666666666666667 0  0.1156521739130435 0.01666666666666667 0  0.1239130434782609 0.01666666666666667 0  0.1321739130434783 0.01666666666666667 0  0.1404347826086956 0.01666666666666667 0  0.148695652173913 0.01666666666666667 0  0.1569565217391304 0.01666666666666667 0  0.1652173913043478 0.01666666666666667 0  0.1734782608695652 0.01666666666666667 0  0.1817391304347826 0.01666666666666667 0  0.19 0.01666666666666667 0  0.1982608695652174 0.01666666666666667 0  0.2065217391304348 0.01666666666666667 0  0.2147826086956522 0.01666666666666667 0  0.2230434782608696 0.01666666666666667 0  0.2313043478260869 0.01666666666666667 0  0.2395652173913043 0.01666666666666667 0  0.2478260869565218 0.01666666666666667 0  0.2560869565217391 0.01666666666666667 0  0.2643478260869565 0.01666666666666667 0  0.2726086956521739 0.01666666666666667 0  0.2808695652173913 0.01666666666666667 0  0.2891304347826087 0.01666666666666667 0  0.2973913043478261 0.01666666666666667 0  0.3056521739130434 0.01666666666666667 0  0.3139130434782609 0.01666666666666667 0  0.008260869565217391 0.025 0  0 0.025 0  0.01652173913043478 0.025 0  0.02478260869565217 0.025 0  0.03304347826086956 0.025 0  0.04130434782608695 0.025 0  0.04956521739130434 0.025 0  0.05782608695652174 0.025 0  0.06608695652173913 0.025 0  0.07434782608695652 0.025 0  0.08260869565217391 0.025 0  0.0908695652173913 0.025 0  0.09913043478260869 0.025 0  0.1073913043478261 0.025 0  0.1156521739130435 0.025 0  0.1239130434782609 0.025 0  0.1321739130434783 0.025 0  0.1404347826086956 0.025 0  0.148695652173913 0.025 0  0.1569565217391304 0.025 0  0.1652173913043478 0.025 0  0.1734782608695652 0.025 0  0.1817391304347826 0.025 0  0.19 0.025 0  0.1982608695652174 0.025 0  0.2065217391304348 0.025 0  0.2147826086956522 0.025 0  0.2230434782608696 0.025 0  0.2313043478260869 0.025 0  0.2395652173913043 0.025 0  0.2478260869565218 0.025 0  0.2560869565217391 0.025 0  0.2643478260869565 0.025 0  0.2726086956521739 0.025 0  0.2808695652173913 0.025 0  0.2891304347826087 0.025 0  0.2973913043478261 0.025 0  0.3056521739130434 0.025 0  0.3139130434782609 0.025 0  0.3221739130434783 0.01666666666666667 0  0.3221739130434783 0.025 0  0.3304347826086956 0.025 0  0.008260869565217391 0.03333333333333333 0  0 0.03333333333333333 0  0.01652173913043478 0.03333333333333333 0  0.02478260869565217 0.03333333333333333 0  0.03304347826086956 0.03333333333333333 0  0.04130434782608695 0.03333333333333333 0  0.04956521739130434 0.03333333333333333 0  0.05782608695652174 0.03333333333333333 0  0.06608695652173913 0.03333333333333333 0  0.07434782608695652 0.03333333333333333 0  0.08260869565217391 0.03333333333333333 0  0.0908695652173913 0.03333333333333333 0  0.09913043478260869 0.03333333333333333 0  0.1073913043478261 0.03333333333333333 0  0.1156521739130435 0.03333333333333333 0  0.1239130434782609 0.03333333333333333 0  0.1321739130434783 0.03333333333333333 0  0.1404347826086956 0.03333333333333333 0  0.148695652173913 0.03333333333333333 0  0.1569565217391304 0.03333333333333333 0  0.1652173913043478 0.03333333333333333 0  0.1734782608695652 0.03333333333333333 0  0.1817391304347826 0.03333333333333333 0  0.19 0.03333333333333333 0  0.1982608695652174 0.03333333333333333 0  0.2065217391304348 0.03333333333333333 0  0.2147826086956522 0.03333333333333333 0  0.2230434782608696 0.03333333333333333 0  0.2313043478260869 0.03333333333333333 0  0.2395652173913043 0.03333333333333333 0  0.2478260869565218 0.03333333333333333 0  0.2560869565217391 0.03333333333333333 0  0.2643478260869565 0.03333333333333333 0  0.2726086956521739 0.03333333333333333 0  0.2808695652173913 0.03333333333333333 0  0.2891304347826087 0.03333333333333333 0  0.2973913043478261 0.03333333333333333 0  0.3056521739130434 0.03333333333333333 0  0.3139130434782609 0.03333333333333333 0  0.3221739130434783 0.03333333333333333 0  0.3304347826086956 0.03333333333333333 0  0.338695652173913 0.025 0  0.338695652173913 0.03333333333333333 0  0.3469565217391304 0.03333333333333333 0  0.008260869565217391 0.04166666666666666 0  0 0.04166666666666666 0  0.01652173913043478 0.04166666666666666 0  0.02478260869565217 0.04166666666666666 0  0.03304347826086956 0.04166666666666666 0  0.04130434782608695 0.04166666666666666 0  0.04956521739130434 0.04166666666666666 0  0.05782608695652174 0.04166666666666666 0  0.06608695652173913 0.04166666666666666 0  0.07434782608695652 0.04166666666666666 0  0.08260869565217391 0.04166666666666666 0  0.0908695652173913 0.04166666666666666 0  0.09913043478260869 0.04166666666666666 0  0.1073913043478261 0.04166666666666666 0  0.1156521739130435 0.04166666666666666 0  0.1239130434782609 0.04166666666666666 0  0.1321739130434783 0.04166666666666666 0  0.1404347826086956 0.04166666666666666 0  0.148695652173913 0.04166666666666666 0  0.1569565217391304 0.04166666666666666 0  0.1652173913043478 0.04166666666666666 0  0.1734782608695652 0.04166666666666666 0  0.1817391304347826 0.04166666666666666 0  0.19 0.04166666666666666 0  0.1982608695652174 0.04166666666666666 0  0.2065217391304348 0.04166666666666666 0  0.2147826086956522 0.04166666666666666 0  0.2230434782608696 0.04166666666666666 0  0.2313043478260869 0.04166666666666666 0  0.2395652173913043 0.04166666666666666 0  0.2478260869565218 0.04166666666666666 0  0.2560869565217391 0.04166666666666666 0  0.2643478260869565 0.04166666666666666 0  0.2726086956521739 0.04166666666666666 0  0.2808695652173913 0.04166666666666666 0  0.2891304347826087 0.04166666666666666 0  0.2973913043478261 0.04166666666666666 0  0.3056521739130434 0.04166666666666666 0  0.3139130434782609 0.04166666666666666 0  0.3221739130434783 0.04166666666666666 0  0.3304347826086956 0.04166666666666666 0  0.338695652173913 0.04166666666666666 0  0.3469565217391304 0.04166666666666666 0  0.3552173913043478 0.03333333333333333 0  0.3552173913043478 0.04166666666666666 0  0.3634782608695652 0.04166666666666666 0  0.008260869565217391 0.05 0  0 0.05 0  0.01652173913043478 0.05 0  0.02478260869565217 0.05 0  0.03304347826086956 0.05 0  0.04130434782608695 0.05 0  0.04956521739130434 0.05 0  0.05782608695652174 0.05 0  0.06608695652173913 0.05 0  0.07434782608695652 0.05 0  0.08260869565217391 0.05 0  0.0908695652173913 0.05 0  0.09913043478260869 0.05 0  0.1073913043478261 0.05 0  0.1156521739130435 0.05 0  0.1239130434782609 0.05 0  0.1321739130434783 0.05 0  0.1404347826086956 0.05 0  0.148695652173913 0.05 0  0.1569565217391304 0.05 0  0.1652173913043478 0.05 0  0.1734782608695652 0.05 0  0.1817391304347826 0.05 0  0.19 0.05 0  0.1982608695652174 0.05 0  0.2065217391304348 0.05 0  0.2147826086956522 0.05 0  0.2230434782608696 0.05 0  0.2313043478260869 0.05 0  
[...]
<CellData  Scalars="sigma_m"> 
<DataArray  type="Float64"  Name="sigma_m"  format="ascii">3.6796463475058727e+07   2.5989399805997066e+07   3.2735636895737145e+07   2.7796527937149726e+07   3.2161030209452212e+07   2.7358362835383430e+07   3.2146691083459590e+07   2.6993542575366028e+07   3.2260458178787798e+07   2.6790498707037080e+07   3.2410214037654903e+07   2.6689045657998823e+07   3.2568288861794349e+07   2.6639523633839428e+07   3.2726622729662050e+07   2.6610550364933033e+07   3.2902776243206874e+07   2.6596743658987492e+07   3.3131167250652168e+07   2.6610971473737963e+07   3.3444699825851534e+07   2.6668499223991279e+07   3.3852123112703644e+07   2.6769193613703869e+07   3.4334138347234070e+07   2.6891779292798158e+07   3.4902043478818342e+07   2.7034357044972524e+07   3.5584860570930526e+07   2.7210423931374285e+07   3.6349221224771969e+07   2.7390973829395767e+07   3.7183325643463619e+07   2.7559815019661285e+07   3.8105571222828671e+07   2.7729466843248028e+07   3.8967090725194223e+07   2.7804015590822332e+07   3.9752932171604306e+07   2.7779262619856264e+07   4.0451655992469266e+07   2.7708285681854483e+07   4.0617053810077243e+07   2.7401819139464855e+07   4.0267340504105963e+07   2.6936451541079819e+07   3.9056786045342423e+07   2.6380688962952353e+07   3.6542241315315180e+07   2.5468044753191616e+07   3.3087431019679133e+07   2.4071911787584111e+07   2.9149474201850887e+07   2.2417704007653736e+07   2.5033626658917468e+07   2.0623392532037973e+07   2.0946698313183956e+07   1.8723025743324667e+07   1.7050187000820737e+07   1.6726600953763839e+07   1.3546231907315331e+07   1.4641548232307922e+07   1.0696041161834972e+07   1.2678233558275202e+07   8.6472913545741364e+06   1.1148222372640077e+07   7.1409493926691376e+06   9.8879571451623384e+06   5.8327456758509912e+06   8.6578442475190237e+06   4.6670116164389625e+06   7.5220542930759471e+06   3.7362794957068083e+06   6.6092326549176499e+06   2.4996976606860831e+07   1.8666008588900894e+07   2.7357293629515156e+07   2.0372459841317881e+07   2.6950092219061829e+07   2.1066129675309200e+07   2.6616849850852251e+07   2.0955441381288480e+07   2.6423790822680753e+07   2.0705912025610056e+07   2.6323090790080849e+07   2.0481530690552179e+07   2.6266755551014479e+07   2.0282711732831627e+07   2.6226847030077927e+07   2.0074536751286171e+07   2.6208032068337377e+07   1.9849116112988133e+07   2.6228369491760116e+07   1.9626779916141350e+07   2.6301337115220323e+07   1.9428416149469420e+07   2.6415933572662193e+07   1.9242572689327478e+07   2.6540074321270943e+07   1.9013307051271744e+07   2.6690281414678261e+07   1.8735764803484883e+07   2.6882865741201326e+07   1.8450607641854275e+07   2.7054989020686790e+07   1.8094183255210709e+07   2.7211411132716522e+07   1.7646876605501946e+07   2.7370140727332260e+07   1.7206526406561766e+07   2.7339341697061006e+07   1.6617398285824865e+07   2.7222155140858289e+07   1.5869645483766494e+07   2.7041145632951599e+07   1.5316412697496444e+07   2.6366863584556736e+07   1.4836103029448137e+07   2.5677130819316089e+07   1.4229110585618211e+07   2.4768674546373669e+07   1.4537093724624461e+07   2.3410867576664668e+07   1.5436102955864482e+07   2.2057186802397583e+07   1.5571246398648435e+07   2.0788384080505699e+07   1.5735632454526663e+07   1.9572745042556006e+07   1.6085507270036051e+07   1.8336859060345083e+07   1.6479587606758345e+07   1.6977859792634178e+07   1.6648470365766145e+07   1.5392538340955896e+07   1.6373432209047306e+07   1.3638777973520329e+07   1.5202460839958237e+07   1.2103505994178494e+07   1.3914115347857282e+07   1.0851437473932648e+07   1.3017317790772866e+07   9.6410970580805000e+06   1.1988495982246662e+07   8.4560289215492681e+06   1.0809040480214611e+07   7.4479357538440442e+06   9.8434168365206495e+06   9.0713449091886599e+06   1.8116613101581823e+07   1.2584684777295137e+07   1.9945621754870862e+07   1.3792581374016436e+07   2.0555808011152692e+07   1.4474160701683272e+07   2.0451130587273180e+07   1.4586360087056061e+07   2.0240636265919242e+07   1.4417188341921471e+07   2.0047986787348397e+07   1.4188143995499359e+07   1.9857180268086933e+07   1.3931526805580627e+07   1.9640503092065245e+07   1.3599089774000650e+07   1.9416185910030682e+07   1.3182813965430185e+07   1.9215009148221359e+07   1.2733774272963807e+07   1.9051973058409557e+07   1.2308824066153808e+07   1.8889480380628482e+07   1.1897105241616828e+07   1.8651515474766172e+07   1.1378243503475234e+07   1.8386213337632991e+07   1.0733107517762678e+07   1.8126571168004643e+07   1.0098671398731006e+07   1.7722298218918696e+07   9.3937278260429222e+06   1.7237246377459921e+07   8.4889320363841522e+06   1.6768336692461526e+07   7.7013457954156836e+06   1.5884311913195729e+07   7.3707880632308768e+06   1.4939135880110411e+07   6.7096359432801241e+06   1.4194787925243231e+07   6.3892982143840892e+06   1.2661042936800390e+07   9.2216533768464904e+06   1.1618259036369747e+07   9.2976666550861876e+06   1.1006110453132162e+07   1.0781937728049768e+07   1.0443125430572003e+07   1.2584166481007108e+07   1.0764827498891395e+07   9.9019631627697665e+06   1.1843005241189638e+07   8.3361242322224798e+06   1.3322841083462322e+07   9.6194308968184292e+06   1.4845774583271168e+07   1.2766662493804296e+07   1.6038349344434919e+07   1.6123346776677486e+07   1.6678930591532059e+07   1.8423613926639710e+07   1.6370837501399247e+07   2.0024049936928663e+07   1.5127138875628231e+07   1.6692596250767142e+07   1.4195093230233988e+07   1.5767177021907337e+07   1.3169557053225152e+07   1.5364382633789610e+07   1.1960201803280426e+07   1.4225928338336464e+07   1.0910156959255513e+07   1.3015322212984823e+07   1.0083810412404241e+07   1.2242886630635357e+07   9.2447194724317268e+06   1.1458493698707730e+07   1.0497483863676561e+07   1.2399281229951292e+07   6.9911527305454379e+06   1.3332095816849694e+07   7.8474869996641856e+06   1.3863555084375292e+07   8.3621242310847519e+06   1.3946112818081431e+07   8.4307525497214645e+06   1.3820202854202366e+07   8.2674677505581677e+06   1.3638031573396390e+07   8.0660552122240942e+06   1.3382612889572026e+07   7.8562732362022530e+06   1.3017685784466021e+07   7.5281412589292210e+06   1.2595319566258950e+07   7.0143408417499410e+06   1.2181389346953701e+07   6.3972989787163185e+06   1.1812447472963547e+07   5.8124398035648149e+06   1.1407160214186190e+07   5.3866697599916579e+06   1.0800623325474851e+07   5.0657851501884591e+06   1.0134993195480032e+07   4.5042082057551192e+06   9.4964035686132871e+06   4.0488039062598697e+06   8.5300161091613024e+06   4.8041882012604373e+06   7.3948550162742091e+06   5.6215558207100593e+06   6.4192346900990643e+06   6.0549203601136673e+06   4.8645933082039934e+06   9.4744822037471291e+06   3.3451355213443264e+06   1.1404308279165689e+07   2.2799048925364930e+06   1.2596801508967062e+07   4.0416217125625871e+06   1.9229614982225183e+07   7.5996490735557964e+06   1.6523536145360265e+07   1.0640293280691866e+07   2.1245850296277907e+07   7.0831585840868494e+06   2.6172532792932302e+07   2.2033496051993957e+06   1.4000325587280674e+07   1.6095765421737153e+06   1.0832009554159993e+06   3.8552889163908157e+06   6.6842667724690356e+04   7.1007382665856592e+06   1.0683956027931515e+05   1.2225383851708891e+07   7.3169983270209504e+05   1.6614070459116625e+07   8.5163209939584527e+06   1.9878540463968370e+07   1.8183621822718482e+07   1.8687564993512686e+07   2.1140015841427960e+07   1.6848999037117641e+07   1.5332475786707370e+07   1.6328835911143748e+07   1.7527130744866587e+07   1.5613538440760657e+07   1.9481369201602645e+07   1.4276978234386077e+07   1.6095121549599336e+07   1.3380492331850119e+07   1.5041090743973324e+07   1.2515093068362573e+07   1.4445039137675183e+07   1.1504028262118073e+07   1.3686871955720030e+07   1.0428331980500888e+07   1.2487013554182520e+07   1.1309725452026451e+07   7.1937897427997831e+06   1.9156135178965710e+06   7.2657189357886631e+06   3.3559347324270532e+06   7.4526457493989421e+06   4.0354112465202464e+06   7.4663709189675916e+06   4.0723318564800881e+06   7.3652809526094822e+06   3.7951800675296606e+06   7.2185457399451882e+06   3.5753460964010456e+06   6.9445748040977009e+06   3.7474975545776975e+06   6.4682066639536992e+06   4.1492160482719345e+06   5.8845656930107726e+06   4.3374447492562551e+06   5.2876758507227805e+06   4.4126521593682375e+06   4.7434657193625486e+06   4.4021259507655846e+06   4.1614863609821466e+06   4.8187240629557241e+06   3.3360506658831439e+06   6.4583035952407345e+06   2.4745896426549638e+06   7.5659216898065582e+06   1.4736489164129810e+06   8.1286346337413890e+06   1.8150878517929153e+06   1.0614469990661632e+07   3.5465197458010674e+06   1.2694155176883973e+07   4.3578861828568168e+06   1.3703377527653791e+07   7.2337366806272222e+06   2.0066265919194929e+07   1.0931418225647895e+07   1.8863052054693483e+07   1.5810026815398714e+07   1.7774409586520232e+07   1.6149495953384014e+07   3.2681425445822813e+07   7.7331329454224668e+06   1.2601714243329035e+07   4.4089868753636791e+05   1.2458888325642080e+04   1.6322658423176720e+03   3.0885907304223206e+01   1.3081566190594783e+01   2.0125640732740099e-01   4.9940804770517733e-01   5.0795738326444998e-03   1.3016644629767196e-01   7.2874059926463007e-04   2.3857161534910840e-01   6.2419023599044046e-04   2.3408699999325178e+00   2.9222621575424931e-03   7.1681782670351467e+01   5.5265505025587219e-02   4.3664451910070175e+03   2.6827093405360967e+00   2.6486773289418186e+05   2.3287952858134841e+02   3.8929277122423821e+06   2.2585996889036469e+04   1.4215385648789808e+07   7.0409097269057319e+05   1.8386755684369177e+07   1.4663726702654600e+07   1.7892023380720016e+07   2.0039137621952221e+07   1.6276870671454700e+07   1.5525105898706725e+07   1.5331719343838518e+07   1.5742194311270429e+07   1.4739117862825962e+07   1.7421475273998804e+07   1.3736004985048564e+07   1.6557690387924973e+07   1.2432039595158679e+07   1.4161413014956059e+07   1.1136084359590191e+07   1.2653097188668106e+07   1.1073654953775391e+07   2.8681398708747881e+06   4.1245467012766241e+06   2.0385706896298036e+06   5.4769030222291965e+06   2.0423927044500983e+06   6.2234466866417835e+06   1.9907750723226166e+06   6.5104710820851745e+06   1.7050649354311598e+06   6.4851426458229488e+06   1.2891677831164277e+06   6.3957637414355539e+06   1.0141469982235653e+06   6.8719659987990530e+06   1.2906577294015158e+06   7.9307955081600714e+06   1.9250140015489541e+06   8.7241915801990777e+06   2.5697251668204051e+06   9.4436211835118346e+06   2.8161453795552081e+06   9.8499092507368252e+06   3.1023721876528594e+06   1.0575223663818002e+07   4.8562360860083364e+06   1.2979773783923825e+07   6.5791379362125956e+06   1.4040970169240113e+07   7.2940950751845753e+06   1.4665276372123012e+07   9.3317891843910683e+06   1.9408518119580176e+07   1.2036570487328090e+07   1.9390712292635631e+07   1.5948475245574215e+07   1.6088739222884206e+07   1.9850916673400786e+07   2.9054908582302589e+07   1.5203921644254984e+07   2.5358362619208694e+07   2.1092842116231523e+06   1.5922325304081693e+05   2.0475484395432973e+03   6.0451839063366357e+01   7.1221449517080959e-01   2.2827144289832048e-02   3.2562400959152663e-04   1.3889620721835397e-05   4.6005062217462714e-07   1.8502672388527324e-08   3.8712071915142273e-09   0.0000000000000000e+00   0.0000000000000000e+00   0.0000000000000000e+00   0.0000000000000000e+00   0.0000000000000000e+00   0.0000000000000000e+00   0.0000000000000000e+00   0.0000000000000000e+00   0.0000000000000000e+00   4.0498140746372935e-09   0.0000000000000000e+00   5.6376188257495094e-07   0.0000000000000000e+00   8.2184312717909698e-05   3.2397144604009257e-08   1.9506428484670112e-02   4.3723939537279607e-06   2.4913413526772143e+00   7.9045522146251707e-04   3.3160347982067896e+02   1.1317948062933672e-01   3.7890796436530029e+04   1.5242888643028810e+01   2.4013452486817618e+06   1.9454101762286416e+03   1.0229467567845207e+07   1.8281697830667652e+05   1.6058988558447184e+07   6.7104005732388822e+06   1.7755186701623961e+07   1.8079519703027163e+07   1.5994592628787391e+07   1.6863002334055353e+07   1.4007569612998499e+07   1.4492132676780971e+07   1.2445564340143371e+07   1.3906455818230724e+07   1.1456732114504360e+07   4.3134772208228931e+06   9.5230018078042809e+06   4.7734525969490632e+06   1.0646739319949942e+07   5.3080423387450790e+06   1.1227701290520728e+07   5.6831189904809380e+06   1.1586997953585213e+07   5.7390246374849724e+06   1.1776774490428567e+07   5.5669835902078766e+06   1.1826940398946021e+07   5.7903249546109708e+06   1.2747375951221239e+07   6.6758834748197598e+06   1.4132343616304241e+07   7.6118746245518597e+06   1.4528583513500638e+07   8.7207305866000950e+06   1.4906757181538664e+07   9.2820085904942248e+06   1.5296710928269412e+07   1.0041815893665344e+07   1.6376890790374884e+07   1.1741591289146164e+07   2.1984716157377504e+07   1.3352256303818909e+07   1.8729557809437066e+07   1.6208147928776562e+07   1.5377550027012873e+07   1.9136035277651701e+07   2.7074500972932324e+07   1.6017322119464261e+07   2.5377154355677210e+07   5.7623250037879776e+06   2.2708112627248876e+06   4.2912937269097645e+04   9.8027462781181055e+02   1.2965110778897637e+01   4.0301570638272460e-01   2.1771289157843368e-03   9.7227679242627431e-05   4.2755086668450914e-07   2.3994523399398972e-08   0.0000000000000000e+00   0.0000000000000000e+00   0.0000000000000000e+00   0.0000000000000000e+00   0.0000000000000000e+00   0.0000000000000000e+00   0.0000000000000000e+00   0.0000000000000000e+00   0.0000000000000000e+00   0.0000000000000000e+00   0.0000000000000000e+00   0.0000000000000000e+00   0.0000000000000000e+00   0.0000000000000000e+00   0.0000000000000000e+00   0.0000000000000000e+00   0.0000000000000000e+00   0.0000000000000000e+00   0.0000000000000000e+00   0.0000000000000000e+00   0.0000000000000000e+00   0.0000000000000000e+00   0.0000000000000000e+00   0.0000000000000000e+00   0.0000000000000000e+00   0.0000000000000000e+00   8.1990736303629761e-09   0.0000000000000000e+00   1.7030594738882501e-06   0.0000000000000000e+00   2.8541070969175539e-04   9.2280174315726541e-08   5.4131405568600639e-02   1.3391667453303718e-05   8.7448888232620270e+00   2.3243453282050970e-03   2.5787150926465856e+03   5.5045966193330487e-01   1.1892038490942328e+06   2.3953574674243885e+02   1.1569708780222703e+07   2.3740232375107604e+05   1.5410383148298325e+07   1.2760641540544875e+07   1.3541804803170951e+07   1.4006061647917163e+07   1.1480030354005734e+07   9.2261645714181308e+06   1.5554314367553357e+07   1.0251557464282062e+07   1.6202020857865039e+07   1.0756690625109341e+07   1.6265598713638421e+07   1.1198569955662787e+07   1.6180943155688383e+07   1.1493678860742385e+07   1.6361482721804397e+07   1.1433257584892420e+07   1.6944371845339637e+07   1.2325489036252789e+07   1.9069620506396655e+07   1.3178763469126146e+07   2.2905278373241954e+07   1.3553677865622614e+07   2.0221345455331668e+07   1.4136612738582015e+07   1.8813426570050608e+07   1.5764797061007380e+07   1.5866420958471145e+07   1.7601743846956812e+07   1.9389898860363539e+07   1.8698589318487506e+07   2.9731835380478442e+07   1.5108018974249395e+07   1.7620648377251834e+07   4.8047046786810504e+06   6.1786764508665341e+05   5.2050476615810207e+04   7.1365936264963182e+02   4.2473385479310956e+01   8.4420564246278640e-01   1.8359938204275783e-02   4.9355121707566750e-04   4.6699103796497611e-06   2.0686286715634617e-07   0.0000000000000000e+00   0.0000000000000000e+00   0.0000000000000000e+00   0.0000000000000000e+00   0.0000000000000000e+00   0.0000000000000000e+00   0.0000000000000000e+00   0.0000000000000000e+00   0.0000000000000000e+00   0.0000000000000000e+00   0.0000000000000000e+00   0.0000000000000000e+00   0.0000000000000000e+00   0.0000000000000000e+00   0.0000000000000000e+00   0.0000000000000000e+00   0.0000000000000000e+00   0.0000000000000000e+00   0.0000000000000000e+00   0.0000000000000000e+00   0.0000000000000000e+00   0.0000000000000000e+00   0.0000000000000000e+00   0.0000000000000000e+00   0.0000000000000000e+00   0.0000000000000000e+00   0.0000000000000000e+00   0.0000000000000000e+00   0.0000000000000000e+00   0.0000000000000000e+00   0.0000000000000000e+00   0.0000000000000000e+00   0.0000000000000000e+00   0.0000000000000000e+00   0.0000000000000000e+00   0.0000000000000000e+00   0.0000000000000000e+00   0.0000000000000000e+00   0.0000000000000000e+00   0.0000000000000000e+00   0.0000000000000000e+00   0.0000000000000000e+00   1.2696309482434935e-07   0.0000000000000000e+00   1.0485793338698057e-04   2.4045234430543770e-08   3.3992058828214289e-01   2.9686760223882188e-05   1.9824249920622951e+03   1.1978582062542271e-01   7.1573506063342690e+06   2.2296947032375697e+03   1.2099746673337579e+07   6.1586850024084952e+06   1.1947414862683177e+07   1.2746767065502865e+07   1.0998415579773908e+07   1.4970021049078120e+07   2.3155758655687023e+07   1.5952822212006647e+07   2.1820997736318294e+07   1.5901046275763445e+07   2.0940819418889124e+07   1.5686961150716729e+07   1.9357260457026709e+07   1.6322266660064559e+07   1.6902554645614028e+07   1.7868266208497826e+07   1.7317509344255421e+07   1.8686372157897741e+07   2.6546978408658005e+07   2.0094340173344631e+07   2.6653675036797851e+07   1.7867214375118572e+07   1.7578540227955919e+07   1.4909926896649696e+07   1.3951485457129067e+07   5.6038687388729099e+06   2.7954537929974578e+05   1.8182405101952626e+05   1.3939593644971919e+03   9.7036418004942220e+02   9.4630079719068991e+00   1.9849544133791202e+00   3.0697057095636641e-02   2.5321005565255008e-03   5.0659171478901002e-05   1.9161600414211204e-06   5.8316415982862417e-08   0.0000000000000000e+00   0.0000000000000000e+00   0.0000000000000000e+00   0.0000000000000000e+00   0.0000000000000000e+00   0.0000000000000000e+00   0.0000000000000000e+00   0.0000000000000000e+00   0.0000000000000000e+00   0.0000000000000000e+00   0.0000000000000000e+00   0.0000000000000000e+00   0.0000000000000000e+00   0.0000000000000000e+00   0.0000000000000000e+00   0.0000000000000000e+00   0.0000000000000000e+00   0.0000000000000000e+00   0.0000000000000000e+00   0.0000000000000000e+00   0.0000000000000000e+00   0.0000000000000000e+00   0.0000000000000000e+00   0.0000000000000000e+00   0.0000000000000000e+00   0.0000000000000000e+00   0.0000000000000000e+00   0.0000000000000000e+00   0.0000000000000000e+00   0.0000000000000000e+00   0.0000000000000000e+00   0.0000000000000000e+00   0.0000000000000000e+00   0.0000000000000000e+00   0.0000000000000000e+00   0.0000000000000000e+00   0.0000000000000000e+00   0.0000000000000000e+00   0.0000000000000000e+00   0.0000000000000000e+00   0.0000000000000000e+00   0.0000000000000000e+00   0.0000000000000000e+00   0.0000000000000000e+00   0.0000000000000000e+00   0.0000000000000000e+00   0.0000000000000000e+00   0.0000000000000000e+00   0.0000000000000000e+00   0.0000000000000000e+00   0.0000000000000000e+00   0.0000000000000000e+00   0.0000000000000000e+00   0.0000000000000000e+00   1.5066723640873027e-06   0.0000000000000000e+00   8.8231107715850091e-02   2.3377367281473650e-06   1.3312987254503903e+04   2.1034010538678174e-01   1.4020136918988315e+07   1.4159159695024867e+05   1.5953953947408939e+07   1.4789889493927689e+07   1.3007956355873723e+07   1.2865351726397907e+07   9.4551683030024562e+06   1.7508796378784694e+07   2.1441486393984859e+06   1.6665987771193579e+07   1.1133252015720217e+06   1.4317465195913026e+07   6.0205729950528569e+05   9.3731274323019609e+06   1.5448022671733893e+05   2.4395984410733441e+06   1.7085597788470473e+04   3.0402386223813711e+05   1.2184472725248311e+03   1.9108915868973814e+04   9.6200065555753852e+01   6.6457159236570146e+02   3.7359868007194463e+00   1.1282759740465401e+01   9.3796938170893060e-02   1.3124085891673068e-01   1.2558523015597034e-03   7.4645291723893735e-04   9.8141296056100792e-06   2.8163757756002030e-06   5.2889188163288092e-08   7.35186784