<?xml version="1.0"?>
<VTKFile type="UnstructuredGrid"  version="0.1"  >
<UnstructuredGrid>
<Piece  NumberOfPoints="2444" NumberOfCells="4684">
<Points>
<DataArray  type="Float64"  NumberOfComponents="3"  format="ascii">2.940869565217391 0 0  2.949130434782608 0 0  2.949130434782608 0.008333333333333333 0  2.940869565217391 0.008333333333333333 0  2.957391304347826 0 0  2.957391304347826 0.008333333333333333 0  2.965652173913043 0 0  2.965652173913043 0.008333333333333333 0  2.973913043478261 0 0  2.973913043478261 0.008333333333333333 0  2.982173913043478 0 0  2.982173913043478 0.008333333333333333 0  2.990434782608696 0 0  2.990434782608696 0.008333333333333333 0  2.998695652173913 0 0  2.998695652173913 0.008333333333333333 0  3.006956521739131 0 0  3.006956521739131 0.008333333333333333 0  3.015217391304348 0 0  3.015217391304348 0.008333333333333333 0  3.023478260869565 0 0  3.023478260869565 0.008333333333333333 0  3.031739130434782 0 0  3.031739130434782 0.008333333333333333 0  3.04 0 0  3.04 0.008333333333333333 0  3.048260869565218 0 0  3.048260869565218 0.008333333333333333 0  3.056521739130435 0 0  3.056521739130435 0.008333333333333333 0  3.064782608695652 0 0  3.064782608695652 0.008333333333333333 0  3.073043478260869 0 0  3.073043478260869 0.008333333333333333 0  3.081304347826087 0 0  3.081304347826087 0.008333333333333333 0  3.089565217391304 0 0  3.089565217391304 0.008333333333333333 0  3.097826086956522 0 0  3.097826086956522 0.008333333333333333 0  3.106086956521739 0 0  3.106086956521739 0.008333333333333333 0  3.114347826086956 0 0  3.114347826086956 0.008333333333333333 0  3.122608695652174 0 0  3.122608695652174 0.008333333333333333 0  3.130869565217391 0 0  3.130869565217391 0.008333333333333333 0  3.139130434782609 0 0  3.139130434782609 0.008333333333333333 0  3.147391304347826 0 0  3.147391304347826 0.008333333333333333 0  3.155652173913043 0 0  3.155652173913043 0.008333333333333333 0  3.163913043478261 0 0  3.163913043478261 0.008333333333333333 0  3.172173913043478 0 0  3.172173913043478 0.008333333333333333 0  3.180434782608696 0 0  3.180434782608696 0.008333333333333333 0  3.188695652173913 0 0  3.188695652173913 0.008333333333333333 0  3.19695652173913 0 0  3.19695652173913 0.008333333333333333 0  3.205217391304347 0 0  3.205217391304347 0.008333333333333333 0  3.213478260869565 0 0  3.213478260869565 0.008333333333333333 0  3.221739130434782 0 0  3.221739130434782 0.008333333333333333 0  3.23 0 0  3.23 0.008333333333333333 0  3.238260869565217 0 0  3.238260869565217 0.008333333333333333 0  3.246521739130435 0 0  3.246521739130435 0.008333333333333333 0  3.254782608695652 0 0  3.254782608695652 0.008333333333333333 0  3.26304347826087 0 0  3.26304347826087 0.008333333333333333 0  3.271304347826087 0 0  3.271304347826087 0.008333333333333333 0  3.279565217391304 0 0  3.279565217391304 0.008333333333333333 0  3.287826086956521 0 0  3.287826086956521 0.008333333333333333 0  3.296086956521739 0 0  3.296086956521739 0.008333333333333333 0  3.304347826086957 0 0  3.304347826086957 0.008333333333333333 0  3.312608695652174 0 0  3.312608695652174 0.008333333333333333 0  3.320869565217391 0 0  3.320869565217391 0.008333333333333333 0  3.329130434782608 0 0  3.329130434782608 0.008333333333333333 0  3.337391304347826 0.008333333333333333 0  2.949130434782608 0.01666666666666667 0  2.957391304347826 0.01666666666666667 0  2.965652173913043 0.01666666666666667 0  2.973913043478261 0.01666666666666667 0  2.982173913043478 0.01666666666666667 0  2.990434782608696 0.01666666666666667 0  2.998695652173913 0.01666666666666667 0  3.006956521739131 0.01666666666666667 0  3.015217391304348 0.01666666666666667 0  3.023478260869565 0.01666666666666667 0  3.031739130434782 0.01666666666666667 0  3.04 0.01666666666666667 0  3.048260869565218 0.01666666666666667 0  3.056521739130435 0.01666666666666667 0  3.064782608695652 0.01666666666666667 0  3.073043478260869 0.01666666666666667 0  3.081304347826087 0.01666666666666667 0  3.089565217391304 0.01666666666666667 0  3.097826086956522 0.01666666666666667 0  3.106086956521739 0.01666666666666667 0  3.114347826086956 0.01666666666666667 0  3.122608695652174 0.01666666666666667 0  3.130869565217391 0.01666666666666667 0  3.139130434782609 0.01666666666666667 0  3.147391304347826 0.01666666666666667 0  3.155652173913043 0.01666666666666667 0  3.163913043478261 0.01666666666666667 0  3.172173913043478 0.01666666666666667 0  3.180434782608696 0.01666666666666667 0  3.188695652173913 0.01666666666666667 0  3.19695652173913 0.01666666666666667 0  3.205217391304347 0.01666666666666667 0  3.213478260869565 0.01666666666666667 0  3.221739130434782 0.01666666666666667 0  3.23 0.01666666666666667 0  3.238260869565217 0.01666666666666667 0  3.246521739130435 0.01666666666666667 0  3.254782608695652 0.01666666666666667 0  3.26304347826087 0.01666666666666667 0  3.271304347826087 0.01666666666666667 0  3.279565217391304 0.01666666666666667 0  3.287826086956521 0.01666666666666667 0  3.296086956521739 0.01666666666666667 0  3.304347826086957 0.01666666666666667 0  3.312608695652174 0.01666666666666667 0  3.320869565217391 0.01666666666666667 0  3.329130434782608 0.01666666666666667 0  3.337391304347826 0.01666666666666667 0  3.345652173913043 0.01666666666666667 0  2.957391304347826 0.025 0  2.965652173913043 0.025 0  2.973913043478261 0.025 0  2.982173913043478 0.025 0  2.990434782608696 0.025 0  2.998695652173913 0.025 0  3.006956521739131 0.025 0  3.015217391304348 0.025 0  3.023478260869565 0.025 0  3.031739130434782 0.025 0  3.04 0.025 0  3.048260869565218 0.025 0  3.056521739130435 0.025 0  3.064782608695652 0.025 0  3.073043478260869 0.025 0  3.081304347826087 0.025 0  3.089565217391304 0.025 0  3.097826086956522 0.025 0  3.106086956521739 0.025 0  3.114347826086956 0.025 0  3.122608695652174 0.025 0  3.130869565217391 0.025 0  3.139130434782609 0.025 0  3.147391304347826 0.025 0  3.155652173913043 0.025 0  3.163913043478261 0.025 0  3.172173913043478 0.025 0  3.180434782608696 0.025 0  3.188695652173913 0.025 0  3.19695652173913 0.025 0  3.205217391304347 0.025 0  3.213478260869565 0.025 0  3.221739130434782 0.025 0  3.23 0.025 0  3.238260869565217 0.025 0  3.246521739130435 0.025 0  3.254782608695652 0.025 0  3.26304347826087 0.025 0  3.271304347826087 0.025 0  3.279565217391304 0.025 0  3.287826086956521 0.025 0  3.296086956521739 0.025 0  3.304347826086957 0.025 0  3.312608695652174 0.025 0  3.320869565217391 0.025 0  3.329130434782608 0.025 0  3.337391304347826 0.025 0  3.345652173913043 0.025 0  3.353913043478261 0.025 0  2.965652173913043 0.03333333333333333 0  2.973913043478261 0.03333333333333333 0  2.982173913043478 0.03333333333333333 0  2.990434782608696 0.03333333333333333 0  2.998695652173913 0.03333333333333333 0  3.006956521739131 0.03333333333333333 0  3.015217391304348 0.03333333333333333 0  3.023478260869565 0.03333333333333333 0  3.031739130434782 0.03333333333333333 0  3.04 0.03333333333333333 0  3.048260869565218 0.03333333333333333 0  3.056521739130435 0.03333333333333333 0  3.064782608695652 0.03333333333333333 0  3.073043478260869 0.03333333333333333 0  3.081304347826087 0.03333333333333333 0  3.089565217391304 0.03333333333333333 0  3.097826086956522 0.03333333333333333 0  3.106086956521739 0.03333333333333333 0  3.114347826086956 0.03333333333333333 0  3.122608695652174 0.03333333333333333 0  3.130869565217391 0.03333333333333333 0  3.139130434782609 0.03333333333333333 0  3.147391304347826 0.03333333333333333 0  3.155652173913043 0.03333333333333333 0  3.163913043478261 0.03333333333333333 0  3.172173913043478 0.03333333333333333 0  3.180434782608696 0.03333333333333333 0  3.188695652173913 0.03333333333333333 0  3.19695652173913 0.03333333333333333 0  3.205217391304347 0.03333333333333333 0  3.213478260869565 0.03333333333333333 0  3.221739130434782 0.03333333333333333 0  3.23 0.03333333333333333 0  3.238260869565217 0.03333333333333333 0  3.246521739130435 0.03333333333333333 0  3.254782608695652 0.03333333333333333 0  3.26304347826087 0.03333333333333333 0  3.271304347826087 0.03333333333333333 0  3.279565217391304 0.03333333333333333 0  3.287826086956521 0.03333333333333333 0  3.296086956521739 0.03333333333333333 0  3.304347826086957 0.03333333333333333 0  3.312608695652174 0.03333333333333333 0  3.320869565217391 0.03333333333333333 0  3.329130434782608 0.03333333333333333 0  3.337391304347826 0.03333333333333333 0  3.345652173913043 0.03333333333333333 0  3.353913043478261 0.03333333333333333 0  3.362173913043478 0.03333333333333333 0  2.973913043478261 0.04166666666666666 0  2.982173913043478 0.04166666666666666 0  2.990434782608696 0.04166666666666666 0  2.998695652173913 0.04166666666666666 0  3.006956521739131 0.04166666666666666 0  3.015217391304348 0.04166666666666666 0  3.023478260869565 0.04166666666666666 0  3.031739130434782 0.04166666666666666 0  3.04 0.04166666666666666 0  3.048260869565218 0.04166666666666666 0  3.056521739130435 0.04166666666666666 0  3.064782608695652 0.04166666666666666 0  3.073043478260869 0.04166666666666666 0  3.081304347826087 0.04166666666666666 0  3.089565217391304 0.04166666666666666 0  3.097826086956522 0.04166666666666666 0  3.106086956521739 0.04166666666666666 0  3.114347826086956 0.04166666666666666 0  3.122608695652174 0.04166666666666666 0  3.130869565217391 0.04166666666666666 0  3.139130434782609 0.04166666666666666 0  3.147391304347826 0.04166666666666666 0  3.155652173913043 0.04166666666666666 0  3.163913043478261 0.04166666666666666 0  3.172173913043478 0.04166666666666666 0  3.180434782608696 0.04166666666666666 0  3.188695652173913 0.04166666666666666 0  3.19695652173913 0.04166666666666666 0  3.205217391304347 0.04166666666666666 0  3.213478260869565 0.04166666666666666 0  3.221739130434782 0.04166666666666666 0  3.23 0.04166666666666666 0  3.238260869565217 0.04166666666666666 0  3.246521739130435 0.04166666666666666 0  3.254782608695652 0.04166666666666666 0  3.2630434
[...]
<CellData  Scalars="sigma_m"> 
<DataArray  type="Float64"  Name="sigma_m"  format="ascii">2.9250189056877769e+06   3.1659974744096990e+06   2.9077600172592062e+06   3.1461955688877204e+06   2.8844192094854047e+06   3.1266734946518382e+06   2.8517963164383662e+06   3.1068159570498364e+06   2.8060029288613959e+06   3.0856186495955060e+06   2.7436829883011943e+06   3.0614938791866926e+06   2.6652203271759362e+06   3.0328307558070142e+06   2.5792178619913082e+06   2.9996640768715930e+06   2.5048509194785804e+06   2.9654979263098254e+06   2.4683326677790447e+06   2.9372062340940074e+06   2.4930199143554582e+06   2.9222632829561429e+06   2.5861504154649717e+06   2.9214202293040515e+06   2.7358997963587479e+06   2.9273447597490982e+06   2.9300338021076494e+06   2.9435927003736636e+06   3.1555159085732726e+06   2.9811278260368602e+06   3.3667063941125022e+06   3.0259721388953496e+06   3.4726921845804499e+06   3.0278677373546022e+06   3.4042488593071615e+06   2.9512853055345914e+06   3.1469113358553727e+06   2.7873481927008140e+06   2.7168730045336373e+06   2.5412203473871057e+06   2.1402034293330922e+06   2.2183533456636867e+06   1.4525232494811306e+06   1.7929702726902151e+06   7.6982213345101068e+05   1.0928500027461576e+06   3.3276353613512556e+05   6.1326392949800566e+05   2.5933215906623973e+03   3.4518312064532329e+04   9.4082296464372295e-01   1.3045620186086209e+01   1.0283078977228579e-03   1.2555818814388576e-02   2.2787965243005537e-06   2.4806010754258469e-05   7.6422577415568551e-09   7.7548245887769451e-08   0.0000000000000000e+00   0.0000000000000000e+00   0.0000000000000000e+00   0.0000000000000000e+00   0.0000000000000000e+00   0.0000000000000000e+00   0.0000000000000000e+00   0.0000000000000000e+00   0.0000000000000000e+00   0.0000000000000000e+00   0.0000000000000000e+00   0.0000000000000000e+00   0.0000000000000000e+00   0.0000000000000000e+00   0.0000000000000000e+00   0.0000000000000000e+00   0.0000000000000000e+00   0.0000000000000000e+00   0.0000000000000000e+00   0.0000000000000000e+00   0.0000000000000000e+00   0.0000000000000000e+00   0.0000000000000000e+00   0.0000000000000000e+00   0.0000000000000000e+00   0.0000000000000000e+00   0.0000000000000000e+00   0.0000000000000000e+00   0.0000000000000000e+00   0.0000000000000000e+00   0.0000000000000000e+00   0.0000000000000000e+00   0.0000000000000000e+00   0.0000000000000000e+00   0.0000000000000000e+00   0.0000000000000000e+00   0.0000000000000000e+00   3.1838691851092507e+06   3.1649247514594700e+06   3.4017765041192994e+06   3.1470418655840838e+06   3.3878508717911844e+06   3.1297547330420134e+06   3.3822939333890164e+06   3.1119508004433084e+06   3.3866306074971450e+06   3.0914021787544312e+06   3.4008408200961370e+06   3.0651981355152591e+06   3.4215513022351223e+06   3.0316283058283860e+06   3.4404519592882576e+06   2.9926959075833834e+06   3.4436813447123030e+06   2.9555071479785768e+06   3.4161307952062353e+06   2.9310931164325024e+06   3.3515322798696277e+06   2.9239618300206056e+06   3.2539292268220824e+06   2.9268890586552108e+06   3.1204777305291565e+06   2.9461743491252242e+06   2.9673604142911872e+06   2.9943505431609876e+06   2.8525164281603317e+06   3.0461424954816313e+06   2.8039818677076274e+06   3.0358915893744794e+06   2.7651169098783485e+06   2.9479020969616557e+06   2.7130977283199918e+06   2.8087527130319681e+06   2.6591131729050837e+06   2.6445232670664177e+06   2.6133754391838191e+06   2.4699228110413649e+06   2.5762787999707572e+06   2.2654441252764915e+06   2.5331930280231782e+06   2.0194364853061493e+06   2.4593598212515698e+06   2.3560483651582608e+06   2.7112700942781880e+06   2.9214803907475172e+04   1.4946034803458562e+06   1.8419220916330605e+01   1.6964902432065669e+03   2.3807227631270935e-02   1.7171405492625200e+00   5.5449277935863002e-05   3.3941961276858367e-03   1.8083101983175131e-07   9.9178824604326423e-06   5.2043515295963385e-10   3.5031301466732039e-08   0.0000000000000000e+00   0.0000000000000000e+00   0.0000000000000000e+00   0.0000000000000000e+00   0.0000000000000000e+00   0.0000000000000000e+00   0.0000000000000000e+00   0.0000000000000000e+00   0.0000000000000000e+00   0.0000000000000000e+00   0.0000000000000000e+00   0.0000000000000000e+00   0.0000000000000000e+00   0.0000000000000000e+00   0.0000000000000000e+00   0.0000000000000000e+00   0.0000000000000000e+00   0.0000000000000000e+00   0.0000000000000000e+00   0.0000000000000000e+00   0.0000000000000000e+00   0.0000000000000000e+00   0.0000000000000000e+00   0.0000000000000000e+00   0.0000000000000000e+00   0.0000000000000000e+00   0.0000000000000000e+00   0.0000000000000000e+00   0.0000000000000000e+00   0.0000000000000000e+00   0.0000000000000000e+00   0.0000000000000000e+00   0.0000000000000000e+00   0.0000000000000000e+00   0.0000000000000000e+00   0.0000000000000000e+00   0.0000000000000000e+00   3.4213342943422510e+06   3.4085871096477690e+06   3.6308226898821602e+06   3.4049642913314002e+06   3.6333281227099607e+06   3.4119320877392744e+06   3.6561644213423096e+06   3.4291115744236079e+06   3.7059129112082296e+06   3.4526448596881158e+06   3.7872007529621702e+06   3.4736971058843075e+06   3.8939951229336355e+06   3.4769271870431216e+06   3.9928083706473149e+06   3.4448601646718355e+06   4.0164178159528677e+06   3.3707042655922933e+06   3.9104356689736773e+06   3.2613080747040706e+06   3.6721002967956737e+06   3.1135805889287372e+06   3.3623239048386738e+06   2.9490889214774882e+06   3.0154322524082456e+06   2.8450843798962994e+06   2.6841184963272577e+06   2.8335513689828133e+06   2.5394356472949754e+06   2.8063685178862135e+06   2.5291791945088059e+06   2.7383324211138026e+06   2.5510005805549258e+06   2.6823347156009777e+06   2.5783956165275350e+06   2.6591828028749088e+06   2.6239071386733153e+06   2.6536444967297139e+06   2.6911176483665253e+06   2.6241642796151387e+06   2.7759503923167358e+06   2.5560630882747527e+06   2.8961799793419605e+06   2.8810798314276817e+06   3.2673585092656477e+06   3.6125609456368918e+06   4.6371162058600616e+06   5.9365737537883113e+04   4.2485744871699940e+06   8.6982958619451040e+01   2.4324903632658825e+04   1.9711669738013773e-01   4.3979906693642199e+01   5.5391245556306540e-04   1.1857192874185150e-01   1.5614579657157135e-06   3.2677434390699137e-04   3.9013639543446428e-09   8.1986422560207558e-07   0.0000000000000000e+00   1.6248871870578251e-09   0.0000000000000000e+00   0.0000000000000000e+00   0.0000000000000000e+00   0.0000000000000000e+00   0.0000000000000000e+00   0.0000000000000000e+00   0.0000000000000000e+00   0.0000000000000000e+00   0.0000000000000000e+00   0.0000000000000000e+00   0.0000000000000000e+00   0.0000000000000000e+00   0.0000000000000000e+00   0.0000000000000000e+00   0.0000000000000000e+00   0.0000000000000000e+00   0.0000000000000000e+00   0.0000000000000000e+00   0.0000000000000000e+00   0.0000000000000000e+00   0.0000000000000000e+00   0.0000000000000000e+00   0.0000000000000000e+00   0.0000000000000000e+00   0.0000000000000000e+00   0.0000000000000000e+00   0.0000000000000000e+00   0.0000000000000000e+00   0.0000000000000000e+00   0.0000000000000000e+00   0.0000000000000000e+00   0.0000000000000000e+00   0.0000000000000000e+00   0.0000000000000000e+00   0.0000000000000000e+00   3.6292941557615958e+06   3.6319635669222814e+06   3.4081926968902946e+06   3.6546679625085741e+06   3.4350036574599477e+06   3.7047979778648634e+06   3.4884164756145659e+06   3.7867325921290307e+06   3.5979002433484141e+06   3.8929424735468216e+06   3.7860992860516161e+06   3.9931988792861868e+06   4.0283244119445682e+06   4.0342835234914757e+06   4.2452413912083125e+06   3.9683193728464767e+06   4.3320677895386256e+06   3.7594034389224714e+06   4.1072511922108941e+06   3.4338842920121122e+06   3.4787070854462809e+06   3.0660554440309196e+06   3.1619167918694029e+06   2.7101194309945866e+06   2.6696623551645037e+06   2.5964114136927030e+06   1.9826403364602036e+06   2.5990441224788730e+06   2.1443371373813841e+06   2.5440585391469179e+06   2.3465935422113398e+06   2.5048439351581600e+06   2.4171429800296491e+06   2.5045398429966136e+06   2.4529389391760197e+06   2.5236997716948036e+06   2.4970922625653683e+06   2.5320280009427760e+06   2.5581332186140125e+06   2.5355682134568822e+06   2.6481217083466719e+06   2.7099180212570368e+06   2.8636672316601463e+06   3.4516888293546946e+06   3.4762021647087294e+06   4.8438117044462170e+06   4.4845098677883940e+06   3.8868677247588658e+06   4.7341684514993792e+06   8.9876835481033457e+04   3.2498741656824029e+06   2.4613399704036155e+02   1.7449527827820287e+05   4.8213954797205744e-01   4.3901648823129494e+02   5.6077691195376503e-04   5.0415025209879394e-01   5.3919098961337244e-07   4.8516037222141672e-04   4.8624248595371058e-10   3.6124167766341761e-07   0.0000000000000000e+00   2.8015778528342263e-10   0.0000000000000000e+00   0.0000000000000000e+00   0.0000000000000000e+00   0.0000000000000000e+00   0.0000000000000000e+00   0.0000000000000000e+00   0.0000000000000000e+00   0.0000000000000000e+00   0.0000000000000000e+00   0.0000000000000000e+00   0.0000000000000000e+00   0.0000000000000000e+00   0.0000000000000000e+00   0.0000000000000000e+00   0.0000000000000000e+00   0.0000000000000000e+00   0.0000000000000000e+00   0.0000000000000000e+00   0.0000000000000000e+00   0.0000000000000000e+00   0.0000000000000000e+00   0.0000000000000000e+00   0.0000000000000000e+00   0.0000000000000000e+00   0.0000000000000000e+00   0.0000000000000000e+00   0.0000000000000000e+00   0.0000000000000000e+00   0.0000000000000000e+00   0.0000000000000000e+00   0.0000000000000000e+00   0.0000000000000000e+00   0.0000000000000000e+00   3.6484746959366952e+04   4.1622926426395214e+04   3.3184421573409696e+02   4.3834997795851428e+04   4.0090991681009933e+02   4.2143883888551994e+04   4.5624603943399717e+02   3.8113468613074372e+04   4.9425517695029441e+02   3.6168296107442307e+04   5.4712942142011741e+02   4.2733087517039414e+04   7.1662715537554675e+02   7.2129091349927214e+04   1.3117130680849987e+03   1.7782690782645674e+05   3.7282572100576608e+03   5.1871495980820380e+05   1.8369946165503083e+04   1.9952372476705515e+06   1.3898268892198149e+05   2.6282019145586868e+06   1.5750016801928179e+06   2.0578203217889764e+06   1.2483762224470722e+06   2.1911466418904010e+06   1.4440320047740322e+06   2.1750075532123628e+06   2.0844211349807561e+06   2.1350538867823039e+06   2.1435294824332204e+06   2.1209033960709730e+06   2.1065217158567384e+06   2.1274186802081903e+06   2.0809591713220102e+06   2.1420328652269156e+06   2.0870474262589682e+06   2.1757834275817880e+06   2.1324311489588991e+06   2.3100719565976947e+06   2.2619192625741386e+06   2.6953296940625436e+06   2.5901600905904886e+06   3.3732483736448018e+06   3.1019643721192302e+06   3.9201130500909383e+06   3.4759911696325815e+06   3.8300604226868651e+06   3.5901069225118477e+06   3.7938681914982405e+06   3.7345382188826445e+06   2.1373189769686400e+06   3.4706356032944452e+06   5.1051480431826976e+03   1.6799327480499756e+06   2.9327312896534661e+00   1.1175987473252520e+04   6.9964938666640115e-04   3.2510953897931385e+00   1.3598416835040973e-07   5.3299485611608022e-04   0.0000000000000000e+00   7.7907103225044333e-08   0.0000000000000000e+00   0.0000000000000000e+00   0.0000000000000000e+00   0.0000000000000000e+00   0.0000000000000000e+00   0.0000000000000000e+00   0.0000000000000000e+00   0.0000000000000000e+00   0.0000000000000000e+00   0.0000000000000000e+00   0.0000000000000000e+00   0.0000000000000000e+00   0.0000000000000000e+00   0.0000000000000000e+00   0.0000000000000000e+00   0.0000000000000000e+00   0.0000000000000000e+00   0.0000000000000000e+00   0.0000000000000000e+00   0.0000000000000000e+00   0.0000000000000000e+00   0.0000000000000000e+00   0.0000000000000000e+00   0.0000000000000000e+00   0.0000000000000000e+00   0.0000000000000000e+00   0.0000000000000000e+00   0.0000000000000000e+00   0.0000000000000000e+00   0.0000000000000000e+00   0.0000000000000000e+00   0.0000000000000000e+00   0.0000000000000000e+00   1.0585232622977382e-04   1.7985909024086967e-04   3.4563654426916670e-06   3.2035982768015926e-04   6.9203030624270036e-06   6.3300137910764166e-04   1.5274177118592094e-05   1.5282127430924035e-03   4.0081804659890685e-05   5.1044672790982919e-03   1.3948744087954252e-04   2.6783834258817297e-02   7.2917248365820706e-04   2.5641691015273571e-01   6.5077153611310225e-03   6.2301905254798644e+00   1.1874854759212528e-01   2.9471769421999977e+02   6.0652078668411189e+00   3.3202829110549050e+04   7.9145139743765810e+02   1.5866078440430737e+06   2.6605562290227273e+05   1.5102469414325755e+06   1.9817380330317339e+06   1.5154047882595961e+06   1.8180528953604656e+06   1.5353858097335703e+06   1.7586667030971304e+06   1.5394165318631793e+06   1.6368329688160603e+06   1.5529765051723660e+06   1.5462840260088788e+06   1.5857812778974122e+06   1.5109770910148867e+06   1.6465104080818545e+06   1.5410820826443371e+06   1.7699884552474597e+06   1.6559837674237003e+06   2.0254367699670184e+06   1.9112618672796891e+06   2.4315523322006525e+06   2.2891497612956711e+06   2.8353465623650649e+06   2.6390238706413726e+06   3.0957792572239130e+06   2.8607961930548316e+06   3.1941392284647026e+06   2.9397461663546460e+06   3.3445660471390919e+06   2.9494862477580085e+06   2.6289238069427493e+06   2.6936257590533262e+06   2.1908040694501917e+06   2.6358963235468557e+06   3.0231047683033605e+04   1.9903197943798227e+06   2.6238923677021422e+00   2.7801621363477134e+04   1.2884938258234677e-04   1.8134523210168365e+00   7.2961996405088581e-09   6.5983654893070310e-05   0.0000000000000000e+00   3.0502266701921226e-09   0.0000000000000000e+00   0.0000000000000000e+00   0.0000000000000000e+00   0.0000000000000000e+00   0.0000000000000000e+00   0.0000000000000000e+00   0.0000000000000000e+00   0.0000000000000000e+00   0.0000000000000000e+00   0.0000000000000000e+00   0.0000000000000000e+00   0.0000000000000000e+00   0.0000000000000000e+00   0.0000000000000000e+00   0.0000000000000000e+00   0.0000000000000000e+00   0.0000000000000000e+00   0.0000000000000000e+00   0.0000000000000000e+00   0.0000000000000000e+00   0.0000000000000000e+00   0.0000000000000000e+00   0.0000000000000000e+00   0.0000000000000000e+00   0.0000000000000000e+00   0.0000000000000000e+00   0.0000000000000000e+00   0.0000000000000000e+00   0.0000000000000000e+00   0.0000000000000000e+00   0.0000000000000000e+00   0.0000000000000000e+00   0.0000000000000000e+00   7.1696642456044527e-10   0.0000000000000000e+00   4.9182855460809471e-09   0.0000000000000000e+00   4.8341777348208642e-08   1.7462214435574583e-09   7.6573959817337261e-07   2.8310086326038510e-08   2.4646607988944029e-05   8.6754327850505126e-07   2.0022899895738113e-03   6.8336234121464407e-05   4.1920385204763888e-01   1.8395287622928955e-02   3.1063377458216422e+02   1.7642055146570168e+01   5.2944632700089377e+05   6.8600789234609198e+04   1.8717490569020947e+06   4.4763759056240171e+06   1.0586565876677139e+06   2.0828499037004493e+06   9.2867856423350552e+05   1.4471648997530194e+06   9.0537503763643256e+05   1.1853290243269303e+06   9.1932567220854259e+05   1.0247229828592705e+06   9.7331396241616411e+05   9.4651420468721807e+05   1.0620581060316938e+06   9.6934101272493473e+05   1.1947831552618691e+06   1.0924529533156599e+06   1.4136322964876567e+06   1.3445228457988661e+06   1.7337008110660326e+06   1.6893127942354451e+06   2.0715844328133983e+06   2.0221362336510106e+06   2.3447843347961251e+06   2.2782044463253110e+06   2.5076677153287977e+06   2.4330658088014950e+06   2.6207357030869578e+06   2.5134968043280514e+06   2.5572995439323955e+06   2.4667475270445230e+06   2.4133344195570182e+06   2.3570523560239370e+06   2.3279799865532708e+06   2.2720489972175686e+06   1.7169014818794918e+06   2.1858737722721924e+06   8.7119140867113365e+03   1.7190994290787571e+06   1.6223387632479130e-01   3.3658181846059465e+03   2.6163990022096974e-06   7.3294229941648387e-02   9.4756768149934538e-11   9.1355182197188355e-07   0.0000000000000000e+00   0.0000000000000000e+00   0.0000000000000000e+00   0.0000000000000000e+00   0.0000000000000000e+00   0.0000000000000000e+00   0.0000000000000000e+00   0.0000000000000000e+00   0.0000000000000000e+00   0.0000000000000000e+00   0.0000000000000000e+00   0.0000000000000000e+00   0.0000000000000000e+00   0.0000000000000000e+00   0.0000000000000000e+00   0.0000000000000000e+00   0.0000000000000000e+00   0.0000000000000000e+00   0.0000000000000000e+00   0.0000000000000000e+00   0.0000000000000000e+00   0.0000000000000000e+00   0.0000000000000000e+00   0.0000000000000000e+00   0.0000000000000000e+00   0.0000000000000000e+00   0.0000000000000000e+00   0.0000000000000000e+00   0.0000000000000000e+00   0.0000000000000000e+00   0.0000000000000000e+00   0.0000000000000000e+00   0.0000000000000000e+00   0.0000000000000000e+00   0.0000000000000000e+00   0.0000000000000000e+00   6.5903386642086251e-10   0.0000000000000000e+00   1.2254844737713520e-07   9.5108162283596334e-09   4.0090920894870577e-05   4.0462656179197649e-06   4.2232544808984022e-02   5.8826260329299463e-03   1.5549873366434119e+02   3.0858902740358285e+01   7.6241311022585083e+05   5.2573729229547118e+05   1.9175384113260298e+06   2.7096065250371895e+06   9.3595844440629578e+05   1.9390313192128241e+06   5.5734572386544792e+05   1.1996637482322222e+06   3.9692286443390924e+05   8.6994526018788572e+05   3.4235702663164004e+05   6.7983716745470325e+05   3.8560522227213054e+05   5.6182847282369388e+05   4.8403926850396360e+05   5.6321239961288951e+05   6.2161055958513322e+05   6.6173059530623234e+05   8.3559096446423104e+05   9.1009485358841775e+05   1.1363565102788922e+06   1.2455188646123908e+06   1.4554851121384953e+06   1.5553729011345375e+06   1.7410751084606750e+06   1.8162601178121706e+06   1.9624995251589350e+06   2.0168481928114647e+06   2.1239262984579699e+06   2.1464024824183220e+06   2.1717059959163987e+06   2.1777707579080290e+06   2.1415710535351662e+06   2.1419810934611503e+06   2.1006689224331877e+06   2.0843733192693722e+06   2.0226452624600783e+06   1.9964544100455162e+06   1.9294209247034045e+06   1.8917323901217659e+06   9.8574641630623338e+05   1.6605794031084313e+06   1.6471514363817778e+02   9.3259211047810887e+05   9.3691906745043286e-04   4.1763063282123241e+01   6.9871195138259865e-09   2.2803179911893090e-04   0.0000000000000000e+00   1.7371210185013891e-09   0.0000000000000000e+00   0.0000000000000000e+00   0.0000000000000000e+00   0.0000000000000000e+00   0.0000000000000000e+00   0.0000000000000000e+00   0.0000000000000000e+00   0.0000000000000000e+00   0.0000000000000000e+00   0.0000000000000000e+00   0.0000000000000000e+00   0.0000000000000000e+00   0.0000000000000000e+00   0.0000000000000000e+00   0.0000000000000000e+00   0.0000000000000000e+00   0.0000000000000000e+00   0.0000000000000000e+00   0.0000000000000000e+00   0.0000000000000000e+00   0.0000000000000000e+00   0.0000000000000000e+00   0.0000000000000000e+00   0.0000000000000000e+00   0.0000000000000000e+00   0.0000000000000000e+00   0.0000000000000000e+00   0.0000000000000000e+00   0.0000000000000000e+00   0.0000000000000000e+00   0.0000000000000000e+00   0.0000000000000000e+00   0.0000000000000000e+00   2.9117298420734855e-08   5.4100733911312544e-09   4.7115725256904736e-05   1.1782166452313003e-05   2.8043073336157304e-01   8.5156334366351200e-02   4.7467163872678566e+03   2.7470535868810889e+03   2.2408664598635091e+06   2.9864354163237857e+06   1.7038814306156647e+06   2.5661185646799593e+06   8.9452961220371316e+05   1.7522750989157774e+06   4.9574583774844126e+05   1.1471337416659277e+06   3.2278244392840547e+05   8.2396984003038949e+05   2.2300555012900473e+05   6.8745472608546715e+05   1.3829050719268052e+05   6.2989434111674153e+05   7.8622287799850688e+04   6.8111014645209920e+05   9.1883459650101882e+04   7.2241453386858955e+05   3.0070435770013963e+05   8.4769129755124834e+05   6.05610589