<?xml version="1.0"?>
<VTKFile type="UnstructuredGrid"  version="0.1"  >
<UnstructuredGrid>
<Piece  NumberOfPoints="2380" NumberOfCells="4561">
<Points>
<DataArray  type="Float64"  NumberOfComponents="3"  format="ascii">2.288260869565217 0 0  2.296521739130434 0 0  2.296521739130434 0.008333333333333333 0  2.304782608695652 0 0  2.304782608695652 0.008333333333333333 0  2.31304347826087 0 0  2.31304347826087 0.008333333333333333 0  2.321304347826087 0 0  2.321304347826087 0.008333333333333333 0  2.329565217391304 0 0  2.329565217391304 0.008333333333333333 0  2.337826086956521 0 0  2.337826086956521 0.008333333333333333 0  2.346086956521739 0 0  2.346086956521739 0.008333333333333333 0  2.354347826086956 0 0  2.354347826086956 0.008333333333333333 0  2.362608695652174 0 0  2.362608695652174 0.008333333333333333 0  2.370869565217391 0 0  2.370869565217391 0.008333333333333333 0  2.379130434782609 0 0  2.379130434782609 0.008333333333333333 0  2.387391304347826 0 0  2.387391304347826 0.008333333333333333 0  2.395652173913044 0 0  2.395652173913044 0.008333333333333333 0  2.403913043478261 0 0  2.403913043478261 0.008333333333333333 0  2.412173913043478 0 0  2.412173913043478 0.008333333333333333 0  2.420434782608695 0 0  2.420434782608695 0.008333333333333333 0  2.428695652173913 0 0  2.428695652173913 0.008333333333333333 0  2.43695652173913 0 0  2.43695652173913 0.008333333333333333 0  2.445217391304348 0 0  2.445217391304348 0.008333333333333333 0  2.453478260869565 0 0  2.453478260869565 0.008333333333333333 0  2.461739130434782 0 0  2.461739130434782 0.008333333333333333 0  2.47 0 0  2.47 0.008333333333333333 0  2.478260869565217 0 0  2.478260869565217 0.008333333333333333 0  2.486521739130435 0 0  2.486521739130435 0.008333333333333333 0  2.494782608695652 0 0  2.494782608695652 0.008333333333333333 0  2.503043478260869 0 0  2.503043478260869 0.008333333333333333 0  2.511304347826087 0 0  2.511304347826087 0.008333333333333333 0  2.519565217391305 0 0  2.519565217391305 0.008333333333333333 0  2.527826086956522 0 0  2.527826086956522 0.008333333333333333 0  2.536086956521739 0 0  2.536086956521739 0.008333333333333333 0  2.544347826086956 0 0  2.544347826086956 0.008333333333333333 0  2.552608695652174 0 0  2.552608695652174 0.008333333333333333 0  2.560869565217391 0 0  2.560869565217391 0.008333333333333333 0  2.569130434782608 0 0  2.569130434782608 0.008333333333333333 0  2.577391304347826 0 0  2.577391304347826 0.008333333333333333 0  2.585652173913043 0 0  2.585652173913043 0.008333333333333333 0  2.593913043478261 0 0  2.593913043478261 0.008333333333333333 0  2.602173913043478 0 0  2.602173913043478 0.008333333333333333 0  2.610434782608696 0.008333333333333333 0  2.304782608695652 0.01666666666666667 0  2.31304347826087 0.01666666666666667 0  2.321304347826087 0.01666666666666667 0  2.329565217391304 0.01666666666666667 0  2.337826086956521 0.01666666666666667 0  2.346086956521739 0.01666666666666667 0  2.354347826086956 0.01666666666666667 0  2.362608695652174 0.01666666666666667 0  2.370869565217391 0.01666666666666667 0  2.379130434782609 0.01666666666666667 0  2.387391304347826 0.01666666666666667 0  2.395652173913044 0.01666666666666667 0  2.403913043478261 0.01666666666666667 0  2.412173913043478 0.01666666666666667 0  2.420434782608695 0.01666666666666667 0  2.428695652173913 0.01666666666666667 0  2.43695652173913 0.01666666666666667 0  2.445217391304348 0.01666666666666667 0  2.453478260869565 0.01666666666666667 0  2.461739130434782 0.01666666666666667 0  2.47 0.01666666666666667 0  2.478260869565217 0.01666666666666667 0  2.486521739130435 0.01666666666666667 0  2.494782608695652 0.01666666666666667 0  2.503043478260869 0.01666666666666667 0  2.511304347826087 0.01666666666666667 0  2.519565217391305 0.01666666666666667 0  2.527826086956522 0.01666666666666667 0  2.536086956521739 0.01666666666666667 0  2.544347826086956 0.01666666666666667 0  2.552608695652174 0.01666666666666667 0  2.560869565217391 0.01666666666666667 0  2.569130434782608 0.01666666666666667 0  2.577391304347826 0.01666666666666667 0  2.585652173913043 0.01666666666666667 0  2.593913043478261 0.01666666666666667 0  2.602173913043478 0.01666666666666667 0  2.610434782608696 0.01666666666666667 0  2.618695652173913 0.01666666666666667 0  2.31304347826087 0.025 0  2.321304347826087 0.025 0  2.329565217391304 0.025 0  2.337826086956521 0.025 0  2.346086956521739 0.025 0  2.354347826086956 0.025 0  2.362608695652174 0.025 0  2.370869565217391 0.025 0  2.379130434782609 0.025 0  2.387391304347826 0.025 0  2.395652173913044 0.025 0  2.403913043478261 0.025 0  2.412173913043478 0.025 0  2.420434782608695 0.025 0  2.428695652173913 0.025 0  2.43695652173913 0.025 0  2.445217391304348 0.025 0  2.453478260869565 0.025 0  2.461739130434782 0.025 0  2.47 0.025 0  2.478260869565217 0.025 0  2.486521739130435 0.025 0  2.494782608695652 0.025 0  2.503043478260869 0.025 0  2.511304347826087 0.025 0  2.519565217391305 0.025 0  2.527826086956522 0.025 0  2.536086956521739 0.025 0  2.544347826086956 0.025 0  2.552608695652174 0.025 0  2.560869565217391 0.025 0  2.569130434782608 0.025 0  2.577391304347826 0.025 0  2.585652173913043 0.025 0  2.593913043478261 0.025 0  2.602173913043478 0.025 0  2.610434782608696 0.025 0  2.618695652173913 0.025 0  2.62695652173913 0.025 0  2.321304347826087 0.03333333333333333 0  2.329565217391304 0.03333333333333333 0  2.337826086956521 0.03333333333333333 0  2.346086956521739 0.03333333333333333 0  2.354347826086956 0.03333333333333333 0  2.362608695652174 0.03333333333333333 0  2.370869565217391 0.03333333333333333 0  2.379130434782609 0.03333333333333333 0  2.387391304347826 0.03333333333333333 0  2.395652173913044 0.03333333333333333 0  2.403913043478261 0.03333333333333333 0  2.412173913043478 0.03333333333333333 0  2.420434782608695 0.03333333333333333 0  2.428695652173913 0.03333333333333333 0  2.43695652173913 0.03333333333333333 0  2.445217391304348 0.03333333333333333 0  2.453478260869565 0.03333333333333333 0  2.461739130434782 0.03333333333333333 0  2.47 0.03333333333333333 0  2.478260869565217 0.03333333333333333 0  2.486521739130435 0.03333333333333333 0  2.494782608695652 0.03333333333333333 0  2.503043478260869 0.03333333333333333 0  2.511304347826087 0.03333333333333333 0  2.519565217391305 0.03333333333333333 0  2.527826086956522 0.03333333333333333 0  2.536086956521739 0.03333333333333333 0  2.544347826086956 0.03333333333333333 0  2.552608695652174 0.03333333333333333 0  2.560869565217391 0.03333333333333333 0  2.569130434782608 0.03333333333333333 0  2.577391304347826 0.03333333333333333 0  2.585652173913043 0.03333333333333333 0  2.593913043478261 0.03333333333333333 0  2.602173913043478 0.03333333333333333 0  2.610434782608696 0.03333333333333333 0  2.618695652173913 0.03333333333333333 0  2.62695652173913 0.03333333333333333 0  2.635217391304348 0.03333333333333333 0  2.329565217391304 0.04166666666666666 0  2.337826086956521 0.04166666666666666 0  2.346086956521739 0.04166666666666666 0  2.354347826086956 0.04166666666666666 0  2.362608695652174 0.04166666666666666 0  2.370869565217391 0.04166666666666666 0  2.379130434782609 0.04166666666666666 0  2.387391304347826 0.04166666666666666 0  2.395652173913044 0.04166666666666666 0  2.403913043478261 0.04166666666666666 0  2.412173913043478 0.04166666666666666 0  2.420434782608695 0.04166666666666666 0  2.428695652173913 0.04166666666666666 0  2.43695652173913 0.04166666666666666 0  2.445217391304348 0.04166666666666666 0  2.453478260869565 0.04166666666666666 0  2.461739130434782 0.04166666666666666 0  2.47 0.04166666666666666 0  2.478260869565217 0.04166666666666666 0  2.486521739130435 0.04166666666666666 0  2.494782608695652 0.04166666666666666 0  2.503043478260869 0.04166666666666666 0  2.511304347826087 0.04166666666666666 0  2.519565217391305 0.04166666666666666 0  2.527826086956522 0.04166666666666666 0  2.536086956521739 0.04166666666666666 0  2.544347826086956 0.04166666666666666 0  2.552608695652174 0.04166666666666666 0  2.560869565217391 0.04166666666666666 0  2.569130434782608 0.04166666666666666 0  2.577391304347826 0.04166666666666666 0  2.585652173913043 0.04166666666666666 0  2.593913043478261 0.04166666666666666 0  2.602173913043478 0.04166666666666666 0  2.610434782608696 0.04166666666666666 0  2.618695652173913 0.04166666666666666 0  2.62695652173913 0.04166666666666666 0  2.635217391304348 0.04166666666666666 0  2.643478260869565 0.04166666666666666 0  2.337826086956521 0.05 0  2.346086956521739 0.05 0  2.354347826086956 0.05 0  2.362608695652174 0.05 0  2.370869565217391 0.05 0  2.379130434782609 0.05 0  2.387391304347826 0.05 0  2.395652173913044 0.05 0  2.403913043478261 0.05 0  2.412173913043478 0.05 0  2.420434782608695 0.05 0  2.428695652173913 0.05 0  2.43695652173913 0.05 0  2.445217391304348 0.05 0  2.453478260869565 0.05 0  2.461739130434782 0.05 0  2.47 0.05 0  2.478260869565217 0.05 0  2.486521739130435 0.05 0  2.494782608695652 0.05 0  2.503043478260869 0.05 0  2.511304347826087 0.05 0  2.519565217391305 0.05 0  2.527826086956522 0.05 0  2.536086956521739 0.05 0  2.544347826086956 0.05 0  2.552608695652174 0.05 0  2.560869565217391 0.05 0  2.569130434782608 0.05 0  2.577391304347826 0.05 0  2.585652173913043 0.05 0  2.593913043478261 0.05 0  2.602173913043478 0.05 0  2.610434782608696 0.05 0  2.618695652173913 0.05 0  2.62695652173913 0.05 0  2.635217391304348 0.05 0  2.643478260869565 0.05 0  2.651739130434783 0.05 0  2.346086956521739 0.05833333333333333 0  2.354347826086956 0.05833333333333333 0  2.362608695652174 0.05833333333333333 0  2.370869565217391 0.05833333333333333 0  2.379130434782609 0.05833333333333333 0  2.387391304347826 0.05833333333333333 0  2.395652173913044 0.05833333333333333 0  2.403913043478261 0.05833333333333333 0  2.412173913043478 0.05833333333333333 0  2.420434782608695 0.05833333333333333 0  2.428695652173913 0.05833333333333333 0  2.43695652173913 0.05833333333333333
[...]
<CellData  Scalars="sigma_m"> 
<DataArray  type="Float64"  Name="sigma_m"  format="ascii">5.6590287110254290e+06   5.7249819659351464e+06   5.4551369530199319e+06   5.7425499243432032e+06   5.4657935871062344e+06   5.6969517265760247e+06   5.4662533710617237e+06   5.5805308987124274e+06   5.4525261867824746e+06   5.3984747390097091e+06   5.4251124612380024e+06   5.1734179977942491e+06   5.3899983875819817e+06   4.9499909130535694e+06   5.3561298883486558e+06   4.7846931694693547e+06   5.3232172641014792e+06   4.7395127900426788e+06   5.2877760386886802e+06   4.8736433136097491e+06   5.2773451620763671e+06   5.1859765061322004e+06   5.3148105580232460e+06   5.5851913410232356e+06   5.3755846265374012e+06   5.9818492623479068e+06   5.4489547559634577e+06   6.3115450740653062e+06   5.5214234977818988e+06   6.5383819222821053e+06   5.5768107385429507e+06   6.6349568497289531e+06   5.5883936120571159e+06   6.5843281012426494e+06   5.5302591187532917e+06   6.3895357170690950e+06   5.3883655613285825e+06   6.0843664014695548e+06   5.1702290015429342e+06   5.7262574202707699e+06   4.9034524090397237e+06   5.3820853088078341e+06   4.6277047610426098e+06   5.1160372945827693e+06   4.3865098214931320e+06   4.9789886642269390e+06   4.2189830043334728e+06   4.9958470761231435e+06   4.1497655178156756e+06   5.1508728357603345e+06   4.1784057056465340e+06   5.3742327991081718e+06   4.2687896544642309e+06   5.5649511790774716e+06   4.3661955927460706e+06   5.6442564310073638e+06   4.4366178122331556e+06   5.5965034048659997e+06   4.4632117629227126e+06   5.4776160122486483e+06   4.4536818884307612e+06   5.3438853680063095e+06   4.4286687636977313e+06   5.2278846062743133e+06   4.3995050106130252e+06   5.1413685742983893e+06   4.3691907492526090e+06   5.0819452348549478e+06   4.3397230887664445e+06   5.0381055797538245e+06   4.3119883571916800e+06   4.9983978297719723e+06   4.2859143633358320e+06   4.9557477457382260e+06   4.2606496184891118e+06   4.2355245316592017e+06   5.4493617344362438e+06   5.4581534547772221e+06   5.1945787091242447e+06   5.4583065111893993e+06   5.2344132519430341e+06   5.4471452165218377e+06   5.3114149108905997e+06   5.4263451013720315e+06   5.4211653466977738e+06   5.4007492850213554e+06   5.5680650411553625e+06   5.3755801672267597e+06   5.7483478556385301e+06   5.3407780748898434e+06   5.8912330627310555e+06   5.2894876492432198e+06   5.8785595353402523e+06   5.2686320918597253e+06   5.6769657691240450e+06   5.3162594544761023e+06   5.4200576234688032e+06   5.3905895083995610e+06   5.1640793779271366e+06   5.4691863563447436e+06   4.9425975494377771e+06   5.5301431798853539e+06   4.7838562370056203e+06   5.5620945284208357e+06   4.6948490771195563e+06   5.5418113165212637e+06   4.6421596399077447e+06   5.4513001052826596e+06   4.5797381285459064e+06   5.2841174984406848e+06   4.4693668493783204e+06   5.0533329548505275e+06   4.2926565055987900e+06   4.7840752023738660e+06   4.0538628814087110e+06   4.5111703177952142e+06   3.7738012424007226e+06   4.2780238746652948e+06   3.4886551123889103e+06   4.1294446578842415e+06   3.2481785282766921e+06   4.0938067199233822e+06   3.1028042286279551e+06   4.1614099325870126e+06   3.0743951951246662e+06   4.2707911893554516e+06   3.1213658432174642e+06   4.3507982179982737e+06   3.1690062322873315e+06   4.3820358264668034e+06   3.1980057926228810e+06   4.3706020038446346e+06   3.2756868234508997e+06   4.3528116577572143e+06   3.3625144169041566e+06   4.3366082839307357e+06   3.4406316419453095e+06   4.3199831315940777e+06   3.5118151880228254e+06   4.3002062871412383e+06   3.5485601642837259e+06   4.2781068421236230e+06   3.5499145982084288e+06   4.2542115360242072e+06   3.5344627240219535e+06   4.2298184783442784e+06   3.5204342660415214e+06   4.2052944465016359e+06   3.5135339305001814e+06   4.1810401111027189e+06   3.5125487663939204e+06   3.5171184046959840e+06   5.1823446490311855e+06   5.2232632252329728e+06   4.8721758774428135e+06   5.3009584537303001e+06   5.0307951955677234e+06   5.4144115622800617e+06   5.2844818318633344e+06   5.5759790240374114e+06   5.6457185719582699e+06   5.7818271983960802e+06   6.1899301949316161e+06   5.9363940391129833e+06   6.7590223196437676e+06   5.9084349916263288e+06   6.9608789116617832e+06   5.6726155380635606e+06   6.5556911982653812e+06   5.3916806389389914e+06   5.5538049814556418e+06   5.1236810382516254e+06   4.8317422090715133e+06   4.9079702075352585e+06   4.2554623929358292e+06   4.7569883670067340e+06   3.8748217707111472e+06   4.6679507747446075e+06   3.7240140483295694e+06   4.5918379787281007e+06   3.7022731797216772e+06   4.4876290421307860e+06   3.7096292324915561e+06   4.3305200037142215e+06   3.6730628001924846e+06   4.1230951830606302e+06   3.5476056155119794e+06   3.8742971408986333e+06   3.3265085103898309e+06   3.6006827083347281e+06   3.0200922000917415e+06   3.3355137881083903e+06   2.6552869120602040e+06   3.1304793626623210e+06   2.2883560772848488e+06   3.0372110412918893e+06   2.0107462619526389e+06   3.0667050003287559e+06   1.9057301248408963e+06   3.1462796760641411e+06   1.9118866359740179e+06   3.1704379487981880e+06   1.9168138535624982e+06   3.1441502486096327e+06   1.8658900163492125e+06   3.2035800472962274e+06   1.8165870692030098e+06   3.2701005545437699e+06   2.3399337314175623e+06   3.3636782057043295e+06   2.4720903501894339e+06   3.4448607619959423e+06   2.7122500842371779e+06   3.4846509852857860e+06   2.8336059126771470e+06   3.4865201612053029e+06   2.8291918812592626e+06   3.4710207489764784e+06   2.7659111198173566e+06   3.4583063950893278e+06   2.7320078066901783e+06   3.4527483039348633e+06   2.7429117483264636e+06   3.4534558987032687e+06   2.7706911451589260e+06   3.4605623278911086e+06   2.8056003647057768e+06   2.8517059268031190e+06   4.8507167023008391e+06   5.0361652786646364e+06   4.1636349316515806e+06   5.3142437337526726e+06   4.5221407516067382e+06   5.6638150057020830e+06   5.1016505954681318e+06   6.1221017618839955e+06   5.7721004947951073e+06   6.5746436354608005e+06   6.0812226725938888e+06   6.7519562878145082e+06   6.1545107225373238e+06   6.5080362581230663e+06   6.4782839482220290e+06   5.7211730842048749e+06   6.2060249183147838e+06   4.8726721896062437e+06   4.0819647031611954e+06   4.2106206818672251e+06   3.5254028956610663e+06   3.7884809434951707e+06   2.5717338009422477e+06   3.6570301317331688e+06   2.4624271086126058e+06   3.6268560948220021e+06   2.6289795322341099e+06   3.5785740985415149e+06   2.8491912183678499e+06   3.4592472042202889e+06   2.9901125291482010e+06   3.2830449005935304e+06   2.9710556676323884e+06   3.0566694051990220e+06   2.8076360345486128e+06   2.7816924783492358e+06   2.5204457708631363e+06   2.4723534658741965e+06   2.1228160180816539e+06   2.1711819079566118e+06   1.6395973759021647e+06   1.9562773858939621e+06   1.1461460101384658e+06   1.9045673372678892e+06   8.1021987145063735e+05   1.9347462256224034e+06   7.0984898881641496e+05   1.8965676760292100e+06   7.2574800880221918e+05   1.7223209728639328e+06   9.6336690286086162e+05   1.7060544794738842e+06   8.0032137720793393e+05   2.1097738090078305e+06   9.9899036847767245e+05   2.1771720875567645e+06   1.0547643426525679e+06   2.2150422755713635e+06   6.9459541709944757e+05   2.2089967799721188e+06   2.9198748551457410e+05   2.3067939451917424e+06   3.1496634799717768e+05   2.3738231992365406e+06   5.8412234794875653e+05   2.4045130149825038e+06   1.0110158709626949e+06   2.4381907683841884e+06   1.2651419384851803e+06   2.4779682932399511e+06   1.3805571361691784e+06   2.5212596327127377e+06   1.4734997681785789e+06   2.5699891058786782e+06   1.5484527575596499e+06   1.6145981467615156e+06   2.7361492715452827e+05   1.4218050565207854e+05   1.5666854264548065e+03   5.9479390587734393e+04   8.0044516485560973e+02   2.3282793112157109e+04   3.7513055801336321e+02   1.0935785142944342e+04   1.9605549213708969e+02   8.6616403167511307e+03   1.5462254370160440e+02   1.5816217480398731e+04   2.4453468451526749e+02   9.3417817779178513e+04   9.8203700822201824e+02   8.7927467962160334e+05   1.6531693240771234e+04   2.8038736902199732e+06   3.8316687391976273e+05   2.2678050675054379e+06   1.4264829169864317e+06   2.2911458427251005e+06   9.9786697450425569e+05   2.5205055405125390e+06   1.2953459758092239e+06   2.6610093939759899e+06   1.9577643397882441e+06   2.6377095766032739e+06   2.4450599427806246e+06   2.5464726815526066e+06   2.5973350220292644e+06   2.4096471186091192e+06   2.5459977787422617e+06   2.2201173411785741e+06   2.3683449126324798e+06   1.9672992479604858e+06   2.0875189628846655e+06   1.6386274769159895e+06   1.7066824863083847e+06   1.2208340891964426e+06   1.2399630921178935e+06   8.1712796059320157e+05   7.3106076115922513e+05   7.6041417529376689e+05   5.1625888837928668e+05   9.4932105159221299e+05   1.2080644039330054e+06   1.0197360255947800e+06   1.9034056799098223e+06   1.9206246694734236e+05   6.0470662597793678e+05   1.1179594638173279e+04   2.5599048539967616e+03   1.5850694351908444e+02   2.0505165338215189e+01   9.5895248144436351e+00   7.6889666905438259e-01   2.3226712828736598e+00   1.0450509868843809e-01   1.8696817460339594e+00   4.4869693250266171e-02   3.2420330220936457e+00   4.8959164591677824e-02   7.7850460264001073e+00   8.4034603292168386e-02   2.0400669127750575e+01   1.7483402563597616e-01   4.6792460257224874e+01   3.6662748331133233e-01   7.8861072013312466e+01   6.2300008331009493e-01   9.2965900568945401e+01   7.6821250339538716e-01   7.9228757400423930e+01   6.9192271233590252e-01   4.7707237113450962e-01   3.6565088181639971e-04   2.9715611747365670e-04   7.6747319457402184e-06   2.8189629315079028e-04   8.0291191177363085e-06   3.7990829153873454e-04   1.1063151787663499e-05   8.9134935874965373e-04   2.3963354289290811e-05   4.5590124337550218e-03   9.8643551383102070e-05   6.7728934334005397e-02   9.4172187473925333e-04   4.5185750815535828e+00   2.7401417235526932e-02   7.4057187901595478e+02   3.6734640964977703e+00   1.1177814576979664e+05   1.1571604418342051e+03   1.0788479354279959e+06   1.6221881179289450e+05   1.5655788476039853e+06   6.8343327480259573e+05   1.8888796410426686e+06   1.1645387885296908e+06   1.8950926798473625e+06   2.0996628298611543e+06   1.9363193876199021e+06   2.3998962772534811e+06   1.9848038077546915e+06   2.4541104713668544e+06   2.0137571451784759e+06   2.4226926296389648e+06   2.0085723447453922e+06   2.3425147658965462e+06   1.9266217424419767e+06   2.1940705825657519e+06   1.6323884933347690e+06   1.9177467563690105e+06   9.4270346786060615e+05   1.4121411255607177e+06   1.2254588785807041e+06   1.1759006945667947e+06   1.5698890473797375e+06   1.8170890045139033e+06   4.0623564965872851e+04   2.8857776590833324e+04   3.9207003412551650e+01   1.9138683182238349e+01   1.0687045834771004e-01   4.8116286151860407e-02   7.8421386216669445e-04   2.4373858112561547e-04   2.5944025208264442e-05   5.3213321500873843e-06   2.7353246575372847e-06   3.5996692133460175e-07   7.3450732263484675e-07   6.1394875778572434e-08   3.8830144359718469e-07   2.2090532504304596e-08   3.0698238970961646e-07   1.2999226977417667e-08   2.9530415317567133e-07   9.6379986004740204e-09   2.9258763017870620e-07   8.3030540871068506e-09   2.6518486902340524e-07   6.9562894230257420e-09   2.0722474986358582e-07   5.2379326194666753e-09   1.3691228659358725e-07   3.4967442668497611e-09   7.8063522518457171e-08   2.0958654856942711e-09   6.9643904978857763e-10   0.0000000000000000e+00   0.0000000000000000e+00   0.0000000000000000e+00   6.7949840157325832e-10   0.0000000000000000e+00   4.6876331747510745e-09   0.0000000000000000e+00   5.2664036378892130e-08   1.3063181457375891e-09   1.4895908904615435e-06   3.3754303761533547e-08   1.2648285675398655e-04   1.7772090614774981e-06   3.0834026230815974e-02   2.9876117657141258e-04   2.5318015421361967e+01   1.3525598187711571e-01   3.1703027938390947e+04   2.1559423153076810e+02   2.7610488849829109e+06   4.0007113642177888e+05   2.2503851505208830e+06   2.2600073659108453e+06   1.4630868930239729e+06   2.2069418211320438e+06   1.4790423838650105e+06   2.3295277392617855e+06   1.7143782843340500e+06   2.3567929453218090e+06   1.9737589632186322e+06   2.4095525268793590e+06   2.2317993537951745e+06   2.4910150565397199e+06   2.4631506295929188e+06   2.5545281672996492e+06   2.4839977727645845e+06   2.4611999878592696e+06   1.8532915127635926e+06   2.0321484441184127e+06   1.6074053317670124e+06   1.1898529132396604e+06   1.9714204255076762e+04   3.8332038023029687e+04   7.6095039442027543e+00   1.2689820055615881e+01   5.7461246401104725e-03   6.9854376031691628e-03   1.5062702800819661e-05   1.4297707700302993e-05   1.0967070354388699e-07   7.7104225037699963e-08   2.3268916701937251e-09   1.0364110428962284e-09   0.0000000000000000e+00   0.0000000000000000e+00   0.0000000000000000e+00   0.0000000000000000e+00   0.0000000000000000e+00   0.0000000000000000e+00   0.0000000000000000e+00   0.0000000000000000e+00   0.0000000000000000e+00   0.0000000000000000e+00   0.0000000000000000e+00   0.0000000000000000e+00   0.0000000000000000e+00   0.0000000000000000e+00   0.0000000000000000e+00   0.0000000000000000e+00   0.0000000000000000e+00   0.0000000000000000e+00   0.0000000000000000e+00   0.0000000000000000e+00   0.0000000000000000e+00   0.0000000000000000e+00   0.0000000000000000e+00   0.0000000000000000e+00   0.0000000000000000e+00   0.0000000000000000e+00   0.0000000000000000e+00   0.0000000000000000e+00   0.0000000000000000e+00   0.0000000000000000e+00   1.2458533679139863e-09   0.0000000000000000e+00   1.3739213907368746e-07   4.8751482635580998e-09   4.5777709701786372e-05   1.6456790770826039e-06   4.0101046325489241e-02   1.2579473459508534e-03   8.9355526204902759e+01   2.5670180627361847e+00   3.3134746741167415e+05   1.2812811594257571e+04   3.7217794992723614e+06   6.7437860767775085e+06   1.6222996246520625e+06   3.4520584154194267e+06   1.1984900628928891e+06   2.4337644479614892e+06   1.4307848740281882e+06   2.1429855597217814e+06   1.7823488285921896e+06   2.1532211995735043e+06   2.1600083334441176e+06   2.3154835462716492e+06   2.5622531664190530e+06   2.5480820100141009e+06   2.9999688995047677e+06   2.7588437655984303e+06   3.2624762481121286e+06   2.8407904070507721e+06   2.2348779466786058e+05   1.4035291363614844e+06   1.6316446900212651e+02   1.0555835225371527e+03   5.1618096418951778e-02   2.2758320549099162e-01   3.9390327443895499e-05   1.3267404821871477e-04   7.7526856042212810e-08   1.8809141887236058e-07   3.4404752220169752e-10   3.5858218502391300e-10   0.0000000000000000e+00   0.0000000000000000e+00   0.0000000000000000e+00   0.0000000000000000e+00   0.0000000000000000e+00   0.0000000000000000e+00   0.0000000000000000e+00   0.0000000000000000e+00   0.0000000000000000e+00   0.0000000000000000e+00   0.0000000000000000e+00   0.0000000000000000e+00   0.0000000000000000e+00   0.0000000000000000e+00   0.0000000000000000e+00   0.0000000000000000e+00   0.0000000000000000e+00   0.0000000000000000e+00   0.0000000000000000e+00   0.0000000000000000e+00   0.0000000000000000e+00   0.0000000000000000e+00   0.0000000000000000e+00   0.0000000000000000e+00   0.0000000000000000e+00   0.0000000000000000e+00   0.0000000000000000e+00   0.0000000000000000e+00   0.0000000000000000e+00   0.0000000000000000e+00   0.0000000000000000e+00   0.0000000000000000e+00   0.0000000000000000e+00   0.0000000000000000e+00   5.0732143222749712e-09   1.2558848725785877e-09   3.6978706499063985e-06   5.3755007068887261e-07   5.1588135166630873e-03   8.1854085572736113e-04   1.7975208657375934e+01   2.8073314882685492e+00   1.1997080145731481e+05   2.6524712379020792e+04   4.1257854125812817e+06   8.2701760595436795e+06   1.8717511205457360e+06   4.6779470328080505e+06   1.0307064713948327e+06   2.4224274029361098e+06   1.0238093730959113e+06   1.7092761194840940e+06   1.3217458378109857e+06   1.6111173665950317e+06   1.7084020301668602e+06   1.8090252643983550e+06   2.1715372046462754e+06   2.1632544973553093e+06   2.8699129687090949e+06   2.6617447591620260e+06   4.8572284973063907e+06   3.6065362017201688e+06   1.1241750610193284e+06   5.4924387879032018e+06   1.1330605990924033e+02   6.1914217331531663e+03   2.0446271572745960e-02   5.3519958378788901e-01   1.0371362801210098e-05   1.6358336214328812e-04   1.2260365819761237e-08   1.2168289119117501e-07   0.0000000000000000e+00   0.0000000000000000e+00   0.0000000000000000e+00   0.0000000000000000e+00   0.0000000000000000e+00   0.0000000000000000e+00   0.0000000000000000e+00   0.0000000000000000e+00   0.0000000000000000e+00   0.0000000000000000e+00   0.0000000000000000e+00   0.0000000000000000e+00   0.0000000000000000e+00   0.0000000000000000e+00   0.0000000000000000e+00   0.0000000000000000e+00   0.0000000000000000e+00   0.0000000000000000e+00   0.0000000000000000e+00   0.0000000000000000e+00   0.0000000000000000e+00   0.0000000000000000e+00   0.0000000000000000e+00   0.0000000000000000e+00   0.0000000000000000e+00   0.0000000000000000e+00   0.0000000000000000e+00   0.0000000000000000e+00   0.0000000000000000e+00   0.0000000000000000e+00   0.0000000000000000e+00   0.0000000000000000e+00   0.0000000000000000e+00   0.0000000000000000e+00   0.0000000000000000e+00   0.0000000000000000e+00   1.2503404550571271e-08   3.9181775254513410e-09   1.9373194539611646e-05   7.2927482559627824e-06   5.7848917249412969e-02   2.6386758856842489e-02   2.7447101167548715e+02   2.0102355981517653e+02   1.3328624117365619e+06   2.0488343777440283e+06   4.1254160366478181e+06   3.9609084050577581e+06   1.8242844530807887e+06   3.3851072290945058e+06   9.4760712499225442e+05   1.9737955226809657e+06   5.8401685646292591e+05   1.1515117092947008e+06   6.7476686285951000e+05   9.1709123914842296e+05   1.0246870547528992e+06   1.1123168495054487e+06   1.5056253920703754e+06   1.5237342171220460e+06   2.2059678198847771e+06   2.1074991250445293e+06   3.4933943195906589e+06   3.1110792992637362e+06   4.7752177920222450e+06   5.4854467173235295e+06   5.2351565842159252e+03   1.5401350670861674e+06   5.2021534913755196e-01   1.5838366587535123e+02   1.2422535370813602e-04   1.7262753398342868e-02   6.7101111853687005e-08   4.5345961781976129e-06   0.0000000000000000e+00   2.2666661136917524e-09   0.0000000000000000e+00   0.0000000000000000e+00   0.0000000000000000e+00   0.0000000000000000e+00   0.0000000000000000e+00   0.0000000000000000e+00   0.0000000000000000e+00   0.0000000000000000e+00   0.0000000000000000e+00   0.0000000000000000e+00   0.0000000000000000e+00   0.0000000000000000e+00   0.0000000000000000e+00   0.0000000000000000e+00   0.0000000000000000e+00   0.0000000000000000e+00   0.0000000000000000e+00   0.0000000000000000e+00   0.0000000000000000e+00   0.0000000000000000e+00   0.0000000000000000e+00   0.0000000000000000e+00   0.0000000000000000e+00   0.0000000000000000e+00   0.0000000000000000e+00   0.0000000000000000e+00   0.0000000000000000e+00   0.0000000000000000e+00   0.0000000000000000e+00   0.0000000000000000e+00   0.0000000000000000e+00   0.0000000000000000e+00   0.0000000000000000e+00   0.0000000000000000e+00   1.2062705412531095e-06   7.7296884480636500e-07   5.6511018923761759e-03   3.9619218714675199e-03   2.5973529507702644e+01   5.1650626203557820e+01   2.1241003277013078e+05   5.3090494240185327e+05   4.2947174946984975e+06   3.7684905710988152e+06   3.0512226118507888e+06   3.5440946473157397e+06   1.6071753871839743e+06   2.5503274531049184e+06   8.6488720683998230e+05   1.6175379432885668e+06   4.1220279301192338e+05   8.9612149355200666e+05   6.7528177411836892e+04   4.2595968228642415e+05   4.3116416549753462e+05   4.5134333197636547e+05   9.4588462150548329e+05   8.7730435850001301e+05   1.6071876426062102e+06   1.4732992160530821e+06   2.5050487275456823e+06   2.3603906007952406e+06   3.7495557048256816e+06   3.7730657656528144e+06   3.3314924884775165e+06   4.7298955432862220e+06   1.0534892682958234e+03   1.33304412