<?xml version="1.0"?>
<VTKFile type="UnstructuredGrid"  version="0.1"  >
<UnstructuredGrid>
<Piece  NumberOfPoints="2386" NumberOfCells="4572">
<Points>
<DataArray  type="Float64"  NumberOfComponents="3"  format="ascii">0 0.09166666666666666 0  0 0.1 0  0.008260869565217391 0.1 0  0.008260869565217391 0.1083333333333333 0  0 0.1083333333333333 0  0.01652173913043478 0.1 0  0.01652173913043478 0.1083333333333333 0  0.02478260869565217 0.1 0  0.02478260869565217 0.1083333333333333 0  0.03304347826086956 0.1 0  0.03304347826086956 0.1083333333333333 0  0.04130434782608695 0.1 0  0.04130434782608695 0.1083333333333333 0  0.04956521739130434 0.1 0  0.04956521739130434 0.1083333333333333 0  0.05782608695652174 0.1 0  0.05782608695652174 0.1083333333333333 0  0.06608695652173913 0.1 0  0.06608695652173913 0.1083333333333333 0  0.07434782608695652 0.1083333333333333 0  0.008260869565217391 0.1166666666666667 0  0 0.1166666666666667 0  0.01652173913043478 0.1166666666666667 0  0.02478260869565217 0.1166666666666667 0  0.03304347826086956 0.1166666666666667 0  0.04130434782608695 0.1166666666666667 0  0.04956521739130434 0.1166666666666667 0  0.05782608695652174 0.1166666666666667 0  0.06608695652173913 0.1166666666666667 0  0.07434782608695652 0.1166666666666667 0  0.08260869565217391 0.1166666666666667 0  0.008260869565217391 0.125 0  0 0.125 0  0.01652173913043478 0.125 0  0.02478260869565217 0.125 0  0.03304347826086956 0.125 0  0.04130434782608695 0.125 0  0.04956521739130434 0.125 0  0.05782608695652174 0.125 0  0.06608695652173913 0.125 0  0.07434782608695652 0.125 0  0.08260869565217391 0.125 0  0.0908695652173913 0.125 0  0.008260869565217391 0.1333333333333333 0  0 0.1333333333333333 0  0.01652173913043478 0.1333333333333333 0  0.02478260869565217 0.1333333333333333 0  0.03304347826086956 0.1333333333333333 0  0.04130434782608695 0.1333333333333333 0  0.04956521739130434 0.1333333333333333 0  0.05782608695652174 0.1333333333333333 0  0.06608695652173913 0.1333333333333333 0  0.07434782608695652 0.1333333333333333 0  0.08260869565217391 0.1333333333333333 0  0.0908695652173913 0.1333333333333333 0  0.09913043478260869 0.1333333333333333 0  0.008260869565217391 0.1416666666666667 0  0 0.1416666666666667 0  0.01652173913043478 0.1416666666666667 0  0.02478260869565217 0.1416666666666667 0  0.03304347826086956 0.1416666666666667 0  0.04130434782608695 0.1416666666666667 0  0.04956521739130434 0.1416666666666667 0  0.05782608695652174 0.1416666666666667 0  0.06608695652173913 0.1416666666666667 0  0.07434782608695652 0.1416666666666667 0  0.08260869565217391 0.1416666666666667 0  0.0908695652173913 0.1416666666666667 0  0.09913043478260869 0.1416666666666667 0  0.1073913043478261 0.1333333333333333 0  0.1073913043478261 0.1416666666666667 0  0.1156521739130435 0.1333333333333333 0  0.1156521739130435 0.1416666666666667 0  0.1239130434782609 0.1333333333333333 0  0.1239130434782609 0.1416666666666667 0  0.1321739130434783 0.1333333333333333 0  0.1321739130434783 0.1416666666666667 0  0.1404347826086956 0.1333333333333333 0  0.1404347826086956 0.1416666666666667 0  0.148695652173913 0.1416666666666667 0  0.008260869565217391 0.15 0  0 0.15 0  0.01652173913043478 0.15 0  0.02478260869565217 0.15 0  0.03304347826086956 0.15 0  0.04130434782608695 0.15 0  0.04956521739130434 0.15 0  0.05782608695652174 0.15 0  0.06608695652173913 0.15 0  0.07434782608695652 0.15 0  0.08260869565217391 0.15 0  0.0908695652173913 0.15 0  0.09913043478260869 0.15 0  0.1073913043478261 0.15 0  0.1156521739130435 0.15 0  0.1239130434782609 0.15 0  0.1321739130434783 0.15 0  0.1404347826086956 0.15 0  0.148695652173913 0.15 0  0.1569565217391304 0.1416666666666667 0  0.1569565217391304 0.15 0  0.1652173913043478 0.1416666666666667 0  0.1652173913043478 0.15 0  0.1734782608695652 0.1416666666666667 0  0.1734782608695652 0.15 0  0.1817391304347826 0.1416666666666667 0  0.1817391304347826 0.15 0  0.19 0.1416666666666667 0  0.19 0.15 0  0.1982608695652174 0.15 0  0.008260869565217391 0.1583333333333333 0  0 0.1583333333333333 0  0.01652173913043478 0.1583333333333333 0  0.02478260869565217 0.1583333333333333 0  0.03304347826086956 0.1583333333333333 0  0.04130434782608695 0.1583333333333333 0  0.04956521739130434 0.1583333333333333 0  0.05782608695652174 0.1583333333333333 0  0.06608695652173913 0.1583333333333333 0  0.07434782608695652 0.1583333333333333 0  0.08260869565217391 0.1583333333333333 0  0.0908695652173913 0.1583333333333333 0  0.09913043478260869 0.1583333333333333 0  0.1073913043478261 0.1583333333333333 0  0.1156521739130435 0.1583333333333333 0  0.1239130434782609 0.1583333333333333 0  0.1321739130434783 0.1583333333333333 0  0.1404347826086956 0.1583333333333333 0  0.148695652173913 0.1583333333333333 0  0.1569565217391304 0.1583333333333333 0  0.1652173913043478 0.1583333333333333 0  0.1734782608695652 0.1583333333333333 0  0.1817391304347826 0.1583333333333333 0  0.19 0.1583333333333333 0  0.1982608695652174 0.1583333333333333 0  0.2065217391304348 0.15 0  0.2065217391304348 0.1583333333333333 0  0.2147826086956522 0.1583333333333333 0  0.008260869565217391 0.1666666666666667 0  0 0.1666666666666667 0  0.01652173913043478 0.1666666666666667 0  0.02478260869565217 0.1666666666666667 0  0.03304347826086956 0.1666666666666667 0  0.04130434782608695 0.1666666666666667 0  0.04956521739130434 0.1666666666666667 0  0.05782608695652174 0.1666666666666667 0  0.06608695652173913 0.1666666666666667 0  0.07434782608695652 0.1666666666666667 0  0.08260869565217391 0.1666666666666667 0  0.0908695652173913 0.1666666666666667 0  0.09913043478260869 0.1666666666666667 0  0.1073913043478261 0.1666666666666667 0  0.1156521739130435 0.1666666666666667 0  0.1239130434782609 0.1666666666666667 0  0.1321739130434783 0.1666666666666667 0  0.1404347826086956 0.1666666666666667 0  0.148695652173913 0.1666666666666667 0  0.1569565217391304 0.1666666666666667 0  0.1652173913043478 0.1666666666666667 0  0.1734782608695652 0.1666666666666667 0  0.1817391304347826 0.1666666666666667 0  0.19 0.1666666666666667 0  0.1982608695652174 0.1666666666666667 0  0.2065217391304348 0.1666666666666667 0  0.2147826086956522 0.1666666666666667 0  0.2230434782608696 0.1583333333333333 0  0.2230434782608696 0.1666666666666667 0  0.2313043478260869 0.1666666666666667 0  0.008260869565217391 0.175 0  0 0.175 0  0.01652173913043478 0.175 0  0.02478260869565217 0.175 0  0.03304347826086956 0.175 0  0.04130434782608695 0.175 0  0.04956521739130434 0.175 0  0.05782608695652174 0.175 0  0.06608695652173913 0.175 0  0.07434782608695652 0.175 0  0.08260869565217391 0.175 0  0.0908695652173913 0.175 0  0.09913043478260869 0.175 0  0.1073913043478261 0.175 0  0.1156521739130435 0.175 0  0.1239130434782609 0.175 0  0.1321739130434783 0.175 0  0.1404347826086956 0.175 0  0.148695652173913 0.175 0  0.1569565217391304 0.175 0  0.1652173913043478 0.175 0  0.1734782608695652 0.175 0  0.1817391304347826 0.175 0  0.19 0.175 0  0.1982608695652174 0.175 0  0.2065217391304348 0.175 0  0.2147826086956522 0.175 0  0.2230434782608696 0.175 0  0.2313043478260869 0.175 0  0.2395652173913043 0.1666666666666667 0  0.2395652173913043 0.175 0  0.2478260869565218 0.175 0  0.008260869565217391 0.1833333333333333 0  0 0.1833333333333333 0  0.01652173913043478 0.1833333333333333 0  0.02478260869565217 0.1833333333333333 0  0.03304347826086956 0.1833333333333333 0  0.04130434782608695 0.1833333333333333 0  0.04956521739130434 0.1833333333333333 0  0.05782608695652174 0.1833333333333333 0  0.06608695652173913 0.1833333333333333 0  0.07434782608695652 0.1833333333333333 0  0.08260869565217391 0.1833333333333333 0  0.0908695652173913 0.1833333333333333 0  0.09913043478260869 0.1833333333333333 0  0.1073913043478261 0.1833333333333333 0  0.1156521739130435 0.1833333333333333 0  0.1239130434782609 0.1833333333333333 0  0.1321739130434783 0.1833333333333333 0  0.1404347826086956 0.1833333333333333 0  0.148695652173913 0.1833333333333333 0  0.1569565217391304 0.1833333333333333 0  0.1652173913043478 0.1833333333333333 0  0.1734782608695652 0.1833333333333333 0  0.1817391304347826 0.1833333333333333 0  0.19 0.1833333333333333 0  0.1982608695652174 0.1833333333333333 0  0.2065217391304348 0.1833333333333333 0  0.2147826086956522 0.1833333333333333 0  0.2230434782608696 0.1833333333333333 0  0.2313043478260869 0.1833333333333333 0  0.2395652173913043 0.1833333333333333 0  0.2478260869565218 0.1833333333333333 0  0.2560869565217391 0.175 0  0.2560869565217391 0.1833333333333333 0  0.2643478260869565 0.1833333333333333 0  0.008260869565217391 0.1916666666666667 0  0 0.1916666666666667 0  0.01652173913043478 0.1916666666666667 0  0.02478260869565217 0.1916666666666667 0  0.03304347826086956 0.1916666666666667 0  0.04130434782608695 0.1916666666666667 0  0.04956521739130434 0.1916666666666667 0  0.05782608695652174 0.1916666666666667 0  0.06608695652173913 0.1916666666666667 0  0.07434782608695652 0.1916666666666667 0  0.08260869565217391 0.1916666666666667 0  0.0908695652173913 0.1916666666666667 0  0.09913043478260869 0.1916666666666667 0  0.1073913043478261 0.1916666666666667 0  0.1156521739130435 0.1916666666666667 0  0.1239130434782609 0.1916666666666667 0  0.1321739130434783 0.1916666666666667 0  0.1404347826086956 0.1916666666666667 0  0.148695652173913 0.1916666666666667 0  0.1569565217391304 0.1916666666666667 0  0.1652173913043478 0.1916666666666667 0  0.1734782608695652 0.1916666666666667 0  0.1817391304347826 0.1916666666666667 0  0.19 0.1916666666666667 0  0.1982608695652174 0.1916666666666667 0  0.2065217391304348 0.1916666666666667 0  0.2147826086956522 0.1916666666666667 0  0.2230434782608696 0.1916666666666667 0  0.2313043478260869 0.1916666666666667 0  0.2395652173913043 0.1916666666666667 0  0.2478260869565218 0.1916666666666667 0  0.2560869565217391 0.1916666666666667 0  0.2643478260869565 0.1916666666666667 0  0.2726086956521739 0.1833333333333333 0  0.2726086956521739 0.1916666666666667 0  0.28086956
[...]
<CellData  Scalars="rho_bar"> 
<DataArray  type="Float64"  Name="rho_bar"  format="ascii">4.2895428454362186e-02   7.6543371628080854e-03   3.6874140816439463e-03   7.2616053801845817e-03   3.5766646056122307e-03   6.4653054553824810e-03   3.2731978901789360e-03   5.4257622576922892e-03   2.8314156332573466e-03   4.3204353442399665e-03   2.3275201667745478e-03   3.2886222144319363e-03   1.8303209878944775e-03   2.4121203708191660e-03   1.3868507262187358e-03   1.7194350862461271e-03   1.0203897196133290e-03   7.3472467126415469e-04   8.5780943803243732e-04   4.7213638276404746e-04   8.1703669412440481e-04   4.5736387852830275e-04   7.4407690558482055e-04   4.2537765139868722e-04   6.4860710975065316e-04   3.7971227052254597e-04   5.4328036035748749e-04   3.2622301226067880e-04   4.3954767036023665e-04   2.7092802733504257e-04   3.4551092343985257e-04   2.1863166189535014e-04   2.6548713266256416e-04   1.7238135761716677e-04   2.0059750974274902e-04   1.3353772188762564e-04   1.0216046609436286e-04   1.4659723601714568e-04   9.0368236547914732e-05   1.4074195458604915e-04   8.7923183001859982e-05   1.3068661662090668e-04   8.2963548704994132e-05   1.1744686111943180e-04   7.5925799798083125e-05   1.0240134251978728e-04   6.7508717256037378e-05   8.6925255579129717e-05   5.8485933647300863e-05   7.2135465050973465e-05   4.9547088196775131e-05   5.8777216914631801e-05   4.1206285096914777e-05   4.7228499616002862e-05   3.3777045883841877e-05   3.7572984934087338e-05   2.7393543114954438e-05   2.2056629445529753e-05   3.5513764538139601e-05   2.4004643240500316e-05   3.4365865581631036e-05   2.3474248461080214e-05   3.2414720655193681e-05   2.2417584186431640e-05   2.9823165044224719e-05   2.0915046741816572e-05   2.6809766640473567e-05   1.9087443016291026e-05   2.3605546679434342e-05   1.7073541625997742e-05   2.0416278563080943e-05   1.5006269620523937e-05   1.7399640390720721e-05   1.2996024675737682e-05   1.4657941907278663e-05   1.1122116362886064e-05   1.2242860634823393e-05   9.4325052124581506e-06   1.0166375084893153e-05   7.9482077532237336e-06   6.6702494570934094e-06   1.1355727353161176e-05   8.2618778569726824e-06   1.1062121038681970e-05   8.1149869212205154e-06   1.0563536077040220e-05   7.8240557927962050e-06   9.8951303321642904e-06   7.4082199501192379e-06   9.1036492228693823e-06   6.8953166943963458e-06   8.2402887978471012e-06   6.3179397353578705e-06   7.3535763864146513e-06   5.7088906252556403e-06   6.4843360101808677e-06   5.0974437280610964e-06   5.6629860566489349e-06   4.5070278130965467e-06   4.9092388099436896e-06   3.9542919257915360e-06   4.2333780094915690e-06   3.4494542562972847e-06   3.6382978212310147e-06   2.9973178454015109e-06   3.1217308560322569e-06   2.5985820067761144e-06   2.6782223756166603e-06   2.2511763371337005e-06   2.3006419511862391e-06   1.9513424000933404e-06   1.9812770471898309e-06   1.6944787798053998e-06   1.7125259210593508e-06   1.4757268720176657e-06   1.2903323093150094e-06   4.5132525083597482e-06   3.4790525728360933e-06   4.4198114296597610e-06   3.4292226846739590e-06   4.2608761546131314e-06   3.3307380183829235e-06   4.0459823529086760e-06   3.1891949012640239e-06   3.7877894072641055e-06   3.0126005933833033e-06   3.5004849833989348e-06   2.8104532571090671e-06   3.1981599061514747e-06   2.5926638863474871e-06   2.8934327511873230e-06   2.3685432519427288e-06   2.5966158500957706e-06   2.1461057243210362e-06   2.3153390673819420e-06   1.9316577293122624e-06   2.0546272001264664e-06   1.7297102069984122e-06   1.8172480983279277e-06   1.5431137905011444e-06   1.6041861739637003e-06   1.3733344161063570e-06   1.4151342246732608e-06   1.2207662381675437e-06   1.2489348968995896e-06   1.0850459229527263e-06   1.1039318556818924e-06   9.6531849188508712e-07   9.7822660598135507e-07   8.6044266274992985e-07   8.6985634191950609e-07   7.6914295012600232e-07   7.7691640423885983e-07   6.9011371115315842e-07   6.9763489640154238e-07   6.2209736004965212e-07   6.3041131303177050e-07   5.6392602179276700e-07   5.7383204380455392e-07   5.1454552790180293e-07   5.2667712020777187e-07   4.7302699602982218e-07   4.3857403260190559e-07   2.1222834295034530e-06   1.7108028605880384e-06   2.0867834223139226e-06   1.6908561556498611e-06   2.0262658263681856e-06   1.6514942138276004e-06   1.9438470377778983e-06   1.5946443809216815e-06   1.8436621751016956e-06   1.5230483729779463e-06   1.7304350049759015e-06   1.4400142320077776e-06   1.6090026572515618e-06   1.3490623488292969e-06   1.4839217978237464e-06   1.2536446544425770e-06   1.3591534182027918e-06   1.1568877005879007e-06   1.2378930935796307e-06   1.0614313894993127e-06   1.1225175983965208e-06   9.6934648657278130e-07   1.0146357397700393e-06   8.8213657720873074e-07   9.1519396207698476e-07   8.0079180698460926e-07   8.2460980890185717e-07   7.2587097921509373e-07   7.4290700384715694e-07   6.5759629298714221e-07   6.6983429187654952e-07   5.9594065917667189e-07   6.0496317956018522e-07   5.4070504473584478e-07   5.4776296589723118e-07   4.9157993865959922e-07   4.9765558849286005e-07   4.4819184679486691e-07   4.5406269986541184e-07   4.1014291605155856e-07   4.1643010722617230e-07   3.7703775351109438e-07   3.8424638280055309e-07   3.4850073102324257e-07   3.5705436762859490e-07   3.2418824807552775e-07   3.3446001361442207e-07   3.0379862338300568e-07   3.1613932035854385e-07   2.8707944620392043e-07   2.7383432852337026e-07   1.1349591756711186e-06   9.4677794595288223e-07   1.1193841859574989e-06   9.3764421340299033e-07   1.0928032238165401e-06   9.1966165435502135e-07   1.0563891307622591e-06   8.9358635864224978e-07   1.0117137783649587e-06   8.6050588703257321e-07   9.6059914129136315e-07   8.2173829884568396e-07   9.0496102796639153e-07   7.7872172733282327e-07   8.4666649991783474e-07   7.3290449933424134e-07   7.8742010594841544e-07   6.8565483931222993e-07   7.2868070774227266e-07   6.3818598031335555e-07   6.7162298021763525e-07   5.9151392446927010e-07   6.1713175874175130e-07   5.4643994085414306e-07   5.6582819613001601e-07   5.0355918643315201e-07   5.1810474425479134e-07   4.6328299189808638e-07   4.7416899480112426e-07   4.2586586403673340e-07   4.3408811684148550e-07   3.9143903545898758e-07   3.9782482415632721e-07   3.6003943180238106e-07   3.6526957730641956e-07   3.3163335233193484e-07   3.3626875240280816e-07   3.0614121832500102e-07   3.1064466126352243e-07   2.8345382575005267e-07   2.8821315320793384e-07   2.6344904808550012e-07   2.6879491622300695e-07   2.4600176504643440e-07   2.5222457078363780e-07   2.3099314704880539e-07   2.3835877979312554e-07   2.1831767140418274e-07   2.2708255091361988e-07   2.0788947489705849e-07   2.1831614538378820e-07   1.9964870113484830e-07   2.1202090378592191e-07   1.9356739445495180e-07   1.8965694832018254e-07   6.6928268734210324e-07   5.7308387897630958e-07   6.6161241578905797e-07   5.6842963530784286e-07   6.4851286623588628e-07   5.5927977268481818e-07   6.3048758463983185e-07   5.4597577721798917e-07   6.0821188868626438e-07   5.2899957439505519e-07   5.8247814418033708e-07   5.0894161417682891e-07   5.5413686510250181e-07   4.8645660251875118e-07   5.2404148437673284e-07   4.6222065334907224e-07   4.9300028787333222e-07   4.3689212441588653e-07   4.6173633096333759e-07   4.1107905431821795e-07   4.3086409573185776e-07   3.8531323327845105e-07   4.0088182026968392e-07   3.6004052610320344e-07   3.7217281623075954e-07   3.3561727387567806e-07   3.4501693213729117e-07   3.1231587247604733e-07   3.1960438494838319e-07   2.9033397574027911e-07   2.9605173113994603e-07   2.6980537746159195e-07   2.7441802165608225e-07   2.5081226761702726e-07   2.5471807840309193e-07   2.3339677444289967e-07   2.3693485739054657e-07   2.1756959210013794e-07   2.2103185667912341e-07   2.0332108754221165e-07   2.0696096889730707e-07   1.9062843738191083e-07   1.9467065464962594e-07   1.7946237554160042e-07   1.8411199369609054e-07   1.6979342747147019e-07   1.7524360753416352e-07   1.6159582591627542e-07   1.6803756960759792e-07   1.5485299663955861e-07   1.6248386143734994e-07   1.4956169783561760e-07   1.5859664944464677e-07   1.4573742789754932e-07   1.5642091272488290e-07   1.4342002812199722e-07   1.5604382496411224e-07   1.4268262337418839e-07   1.4364231315874060e-07   4.2511666306486240e-07   3.7136900013786456e-07   4.2097373551027826e-07   3.6878369923957080e-07   4.1389329128632936e-07   3.6370985907274683e-07   4.0411751678332573e-07   3.5631596738983515e-07   3.9196728782538187e-07   3.4683791938068633e-07   3.7782276535455899e-07   3.3556628992491044e-07   3.6210055714815951e-07   3.2282822718253757e-07   3.4522770666593213e-07   3.0896871048008321e-07   3.2761945070746487e-07   2.9433098945320901e-07   3.0966202171134421e-07   2.7924215592736570e-07   2.9169692508770413e-07   2.6399992250936540e-07   2.7401479762960598e-07   2.4886349419284086e-07   2.5685454550793188e-07   2.3405191835366678e-07   2.4040477756963249e-07   2.1974375345933460e-07   2.2480900352337234e-07   2.0607968859450927e-07   2.1017165249690809e-07   1.9316694333137779e-07   1.9656468738653588e-07   1.8108415370200543e-07   1.8403380577789439e-07   1.6988608743685728e-07   1.7260482190717635e-07   1.5960901275475308e-07   1.6228916304349426e-07   1.5027497633995189e-07   1.5308934482326203e-07   1.4189666309473591e-07   1.4500361065121482e-07   1.3448146669903143e-07   1.3802975490228428e-07   1.2803503076931338e-07   1.3216850370875121e-07   1.2256434284733071e-07   1.2742759859274579e-07   1.1808076168291588e-07   1.2382555472006126e-07   1.1460406520056284e-07   1.2139627360030392e-07   1.1216584050143238e-07   1.2019455215355899e-07   1.1081481349943336e-07   1.2030361516822635e-07   1.1062212964271669e-07   1.2184548718263620e-07   1.1169087781600590e-07   1.2499250284512173e-07   1.1416529488720283e-07   1.1824628722088419e-07   2.8585335002722836e-07   2.5362412987306567e-07   2.8344177342523677e-07   2.5208463660454001e-07   2.7932134792223953e-07   2.4907024710420346e-07   2.7361573498826650e-07   2.4466885260466378e-07   2.6649103778270016e-07   2.3900523569791724e-07   2.5814709381191158e-07   2.3223522404761445e-07   2.4880408579385151e-07   2.2453554404930309e-07   2.3869253801899098e-07   2.1609483012207642e-07   2.2804228256284142e-07   2.0710562777032739e-07   2.1707197925933965e-07   1.9775518990681776e-07   2.0598242447769167e-07   1.8821902798201031e-07   1.9495089607984906e-07   1.7865566412518351e-07   1.8412951377801477e-07   1.6920387863263040e-07   1.7364558199934560e-07   1.5998243289293643e-07   1.6360228772604315e-07   1.5109016655001992e-07   1.5408164547361204e-07   1.4260758105159584e-07   1.4514708681263265e-07   1.3459894594626835e-07   1.3684653897164205e-07   1.2711477528280415e-07   1.2921545883679476e-07   1.2019397193237202e-07   1.2227998270155191e-07   1.1386660255461025e-07   1.1606007464709496e-07   1.0815648613870209e-07   1.1057233400092725e-07   1.0308363906659712e-07   1.0583264411681438e-07   9.8666708472628482e-08   1.0185836587066294e-07   9.4924991082767340e-08   9.8670861503335137e-08   9.1880415453516286e-08   9.6299195096593017e-08   8.9560732901630214e-08   9.4782826483614851e-08   8.8002265852580316e-08   9.4176407570822415e-08   8.7253301432281756e-08   9.4555489736683430e-08   8.7379482526277524e-08   9.6023277995275887e-08   8.8469050448329542e-08   9.8721119035014194e-08   9.0641676572278476e-08   1.0284102572142343e-07   9.4058410210138841e-08   1.0864512695990766e-07   9.8937686680945941e-08   1.0557513700613903e-07   2.0094750552847612e-07   1.8051335225991241e-07   1.9945814919362635e-07   1.7954516322584531e-07   1.9691274935899570e-07   1.7765158733656088e-07   1.9337933804585067e-07   1.7488202021115098e-07   1.8895094630245611e-07   1.7130755091692783e-07   1.8373924156999963e-07   1.6701677897194109e-07   1.7786977455770176e-07   1.6211194356078303e-07   1.7147495453634291e-07   1.5670333858416168e-07   1.6468933412749788e-07   1.5090465477266404e-07   1.5764453036512202e-07   1.4482953413657883e-07   1.5046377336974755e-07   1.3858649167511337e-07   1.4325974166289827e-07   1.3227630951583440e-07   1.3613246257759590e-07   1.2599023714096988e-07   1.2916884108885441e-07   1.1980878640657804e-07   1.2244298713525662e-07   1.1380201738803278e-07   1.1601674773046627e-07   1.0802943370447307e-07   1.0994134598584803e-07   1.0254126731543518e-07   1.0425875387379064e-07   9.7379481616833241e-08   9.9003323497268317e-08   9.2579160247008753e-08   9.4203426602809099e-08   8.8169844313657351e-08   8.9883344902153393e-08   8.4176834028847818e-08   8.6065396954736406e-08   8.0623262208268558e-08   8.2771227525488133e-08   7.7531426409631252e-08   8.0023477499415957e-08   7.4923939632835368e-08   7.7848018168937263e-08   7.2825809351827749e-08   7.6276019478069330e-08   7.1266110704343855e-08   7.5346862989249523e-08   7.0280684538005865e-08   7.5111076619783551e-08   6.9914582242247314e-08   7.5634899556135078e-08   7.0225568086410361e-08   7.7005978087902122e-08   7.1289433035145283e-08   7.9340112129344741e-08   7.3205184228055090e-08   8.2791585319598271e-08   7.6103777006023519e-08   8.7566363773294426e-08   8.0158325005544357e-08   9.3941578241574630e-08   8.5600356889825839e-08   1.0229288038364850e-07   9.2740616150542047e-08   1.0200250304976653e-07   1.4640595368101468e-07   1.3287820316781181e-07   1.4544066925008577e-07   1.3224140775982087e-07   1.4379030210946530e-07   1.3099690099111611e-07   1.4149502560507449e-07   1.2917445607082077e-07   1.3860939444328751e-07   1.2681606992359178e-07   1.3520041305046369e-07   1.2397590953808023e-07   1.3134318753152271e-07   1.2071604977352137e-07   1.2711848813773802e-07   1.1710432289425919e-07   1.2260936313200876e-07   1.1321186910263964e-07   1.1789823998663841e-07   1.0911029012082382e-07   1.1306452739358019e-07   1.0486983919378371e-07   1.0818218823309244e-07   1.0055696614509377e-07   1.0331901609674178e-07   9.6233363870923438e-08   9.8535662898348037e-08   9.1955211963424039e-08   9.3885575896569106e-08   8.7772580641104481e-08   8.9415313969756184e-08   8.3729791950721829e-08   8.5164993222568769e-08   7.9865532732499460e-08   8.1169277564187645e-08   7.6213599441166229e-08   7.7458182186150343e-08   7.2803654698355249e-08   7.4057987100320934e-08   6.9661837832137975e-08   7.0992452056219168e-08   6.6811866283275459e-08   6.8283935090969532e-08   6.4275876349548739e-08   6.5954890766358415e-08   6.2075740650711161e-08   6.4028587400824945e-08   6.0234086684327807e-08   6.2530833096578467e-08   5.8775189260251024e-08   6.1491873259204412e-08   5.7727048709064290e-08   6.0948153808009580e-08   5.7122768909714153e-08   6.0944964534371933e-08   5.7002724029008426e-08   6.1539773453804735e-08   5.7417525852369357e-08   6.2806528874885822e-08   5.8431420622964255e-08   6.4841132901771492e-08   6.0127241830999878e-08   6.7768481036164945e-08   6.2611796813509335e-08   7.1752705920662420e-08   6.6024511239575047e-08   7.7010828385084470e-08   7.0548129136937112e-08   8.3833086985403708e-08   7.6425114294442219e-08   9.2611438388143050e-08   8.3979748460662866e-08   1.0388282946972999e-07   9.3651730965291383e-08   1.0604479334241757e-07   1.0993721883259549e-07   1.0068905024998075e-07   1.0928672598019232e-07   1.0025475331300142e-07   1.0817417113504192e-07   9.9406764174564744e-08   1.0662421060746939e-07   9.8163105477663850e-08   1.0467064233250136e-07   9.6550473299586775e-08   1.0235558535935501e-07   9.4602908603234935e-08   9.9726646700419409e-08   9.2360488496675290e-08   9.6835028095261166e-08   8.9866770943251833e-08   9.3734327755896020e-08   8.7167851081054004e-08   9.0478505725356760e-08   8.4311081912637524e-08   8.7120325586808825e-08   8.1343285254232470e-08   8.3710167782899619e-08   7.8309875242223578e-08   8.0295064165599004e-08   7.5253735268293211e-08   7.6918282532146323e-08   7.2214799897091774e-08   7.3618946401334317e-08   6.9229655898252141e-08   7.0432177436651677e-08   6.6331462634129014e-08   6.7389317638967675e-08   6.3550150419690702e-08   6.4518380550522696e-08   6.0912676521502357e-08   6.1844558229134767e-08   5.8443456016875221e-08   5.9390755200831608e-08   5.6164831945667766e-08   5.7178373572742755e-08   5.4097592859368766e-08   5.5228104751820505e-08   5.2261806941095333e-08   5.3560778266044341e-08   5.0677424616282664e-08   5.2198404754424306e-08   4.9365315843541137e-08   5.1165058964578727e-08   4.8348018636439880e-08   5.0488511901221803e-08   4.7650995789994327e-08   5.0201628921081483e-08   4.7304103928102889e-08   5.0344182690499150e-08   4.7343027912017660e-08   5.0965652613416333e-08   4.7811406001980953e-08   5.2128667337689424e-08   4.8764035534411715e-08   5.3912903193095738e-08   5.0270177122155895e-08   5.6420382981711352e-08   5.2417888105727001e-08   5.9783217426026225e-08   5.5320091403799010e-08   6.4173491790470545e-08   5.9123105673187624e-08   6.9817696230469598e-08   6.4017568804899920e-08   7.7017305103852806e-08   7.0255291927605156e-08   8.6177431833568690e-08   7.8171438273226379e-08   9.7850631610497851e-08   8.8218149573219397e-08   1.1280117542920948e-07   1.0101369101700458e-07   1.1741657776988430e-07   8.4831472936054752e-08   7.8371106997904108e-08   8.4379338310027941e-08   7.8066623851734009e-08   8.3605546965842628e-08   7.7471852716900006e-08   8.2525448628447443e-08   7.6598041339410945e-08   8.1161486988692548e-08   7.5462842195316574e-08   7.9540902346063211e-08   7.4088884799087586e-08   7.7695167707775111e-08   7.2502688767274383e-08   7.5658286094849221e-08   7.0733492394174485e-08   7.3465963620061551e-08   6.8812322460513957e-08   7.1154827372653520e-08   6.6771411329220721e-08   6.8761096148005555e-08   6.4643153585346834e-08   6.6320004852380321e-08   6.2459315991934564e-08   6.3865056971088335e-08   6.0250532884286050e-08   6.1427631244137379e-08   5.8045749309724643e-08   5.9036880312099364e-08   5.5872122948620293e-08   5.6719547501514463e-08   5.3754842685402851e-08   5.4500188157152801e-08   5.1717182972495035e-08   5.2401309493139541e-08   4.9780631848307903e-08   5.0443716446008653e-08   4.7965133530278107e-08   4.8646903657533635e-08   4.6289428494760662e-08   4.7029439908040113e-08   4.4771374276044078e-08   4.5609688438518138e-08   4.3428477735143786e-08   4.4406359231190105e-08   4.2278519615905151e-08   4.3439289376198592e-08   4.1340096306205847e-08   4.2730291522736321e-08   4.0633499551123093e-08   4.2304144577533493e-08   4.0181440448034506e-08   4.2189947492614810e-08   4.0010290324668482e-08   4.2422460461274524e-08   4.0151276218274159e-08   4.3044172736680661e-08   4.0642143138915564e-08   4.4108074285776222e-08   4.1529462186651772e-08   4.5680682433710689e-08   4.2871363384630892e-08   4.7846113876003370e-08   4.4740900182967823e-08   5.0711400298055547e-08   4.7230346466905900e-08   5.4414452552558362e-08   5.0457621178358076e-08   5.9133906591335970e-08   5.4574557184840560e-08   6.5103830685581430e-08   5.9778149700867425e-08   7.2633974649382586e-08   6.6327092712053838e-08   8.2138602930279918e-08   7.4563849510671518e-08   9.4179849577536625e-08   8.4948013748565203e-08   1.0953126202853649e-07   9.8104560406796436e-08   1.1489680709722668e-07   6.7228371633228776e-08   6.2670080556321635e-08   6.6906556125386428e-08   6.2452170992769840e-08   6.6354575206746483e-08   6.2025104884466187e-08   6.5583051336317713e-08   6.1396831217263315e-08   6.4606487434749834e-08   6.0578917222421051e-08   6.3443991212501524e-08   5.9587057608266858e-08   6.2116733646720293e-08   5.8439546421125234e-08   6.0647996619072995e-08   5.7156441241480998e-08   5.9062551671808720e-08   5.5759416218173456e-08   5.7385851302621966e-08   5.4271023325829468e-08   5.5643604045198067e-08   5.2714298457645622e-08   5.3860971666763388e-08   5.1112060226871886e-08   5.2062332681275998e-08   4.9486581590522513e-08   5.0270952141268246e-08   4.7859345720529840e-08   4.8508802179506284e-08   4.6250799080836186e-08   4.6796570492946269e-08   4.4680354859834177e-08   4.51535546