<?xml version="1.0"?>
<VTKFile type="UnstructuredGrid"  version="0.1"  >
<UnstructuredGrid>
<Piece  NumberOfPoints="2431" NumberOfCells="4624">
<Points>
<DataArray  type="Float64"  NumberOfComponents="3"  format="ascii">1.933043478260869 0.2166666666666667 0  1.941304347826087 0.2166666666666667 0  1.941304347826087 0.225 0  1.933043478260869 0.225 0  1.949565217391304 0.225 0  1.941304347826087 0.2333333333333333 0  1.933043478260869 0.2333333333333333 0  1.949565217391304 0.2333333333333333 0  1.957826086956522 0.225 0  1.957826086956522 0.2333333333333333 0  1.966086956521739 0.225 0  1.966086956521739 0.2333333333333333 0  1.974347826086956 0.225 0  1.974347826086956 0.2333333333333333 0  1.982608695652174 0.225 0  1.982608695652174 0.2333333333333333 0  1.990869565217391 0.225 0  1.990869565217391 0.2333333333333333 0  1.999130434782608 0.2333333333333333 0  1.941304347826087 0.2416666666666667 0  1.949565217391304 0.2416666666666667 0  1.957826086956522 0.2416666666666667 0  1.966086956521739 0.2416666666666667 0  1.974347826086956 0.2416666666666667 0  1.982608695652174 0.2416666666666667 0  1.990869565217391 0.2416666666666667 0  1.999130434782608 0.2416666666666667 0  2.007391304347826 0.2416666666666667 0  1.949565217391304 0.25 0  1.941304347826087 0.25 0  1.957826086956522 0.25 0  1.966086956521739 0.25 0  1.974347826086956 0.25 0  1.982608695652174 0.25 0  1.990869565217391 0.25 0  1.999130434782608 0.25 0  2.007391304347826 0.25 0  2.015652173913043 0.2416666666666667 0  2.015652173913043 0.25 0  2.023913043478261 0.2416666666666667 0  2.023913043478261 0.25 0  2.032173913043478 0.25 0  1.933043478260869 0.25 0  1.941304347826087 0.2583333333333334 0  1.933043478260869 0.2583333333333334 0  1.949565217391304 0.2583333333333334 0  1.957826086956522 0.2583333333333334 0  1.966086956521739 0.2583333333333334 0  1.974347826086956 0.2583333333333334 0  1.982608695652174 0.2583333333333334 0  1.990869565217391 0.2583333333333334 0  1.999130434782608 0.2583333333333334 0  2.007391304347826 0.2583333333333334 0  2.015652173913043 0.2583333333333334 0  2.023913043478261 0.2583333333333334 0  2.032173913043478 0.2583333333333334 0  2.040434782608695 0.25 0  2.040434782608695 0.2583333333333334 0  2.048695652173913 0.25 0  2.048695652173913 0.2583333333333334 0  2.05695652173913 0.25 0  2.05695652173913 0.2583333333333334 0  2.065217391304348 0.25 0  2.065217391304348 0.2583333333333334 0  2.073478260869565 0.25 0  2.073478260869565 0.2583333333333334 0  2.081739130434782 0.25 0  2.081739130434782 0.2583333333333334 0  2.09 0.25 0  2.09 0.2583333333333334 0  2.098260869565217 0.25 0  2.098260869565217 0.2583333333333334 0  2.106521739130435 0.2583333333333334 0  1.941304347826087 0.2666666666666667 0  1.933043478260869 0.2666666666666667 0  1.949565217391304 0.2666666666666667 0  1.957826086956522 0.2666666666666667 0  1.966086956521739 0.2666666666666667 0  1.974347826086956 0.2666666666666667 0  1.982608695652174 0.2666666666666667 0  1.990869565217391 0.2666666666666667 0  1.999130434782608 0.2666666666666667 0  2.007391304347826 0.2666666666666667 0  2.015652173913043 0.2666666666666667 0  2.023913043478261 0.2666666666666667 0  2.032173913043478 0.2666666666666667 0  2.040434782608695 0.2666666666666667 0  2.048695652173913 0.2666666666666667 0  2.05695652173913 0.2666666666666667 0  2.065217391304348 0.2666666666666667 0  2.073478260869565 0.2666666666666667 0  2.081739130434782 0.2666666666666667 0  2.09 0.2666666666666667 0  2.098260869565217 0.2666666666666667 0  2.106521739130435 0.2666666666666667 0  2.114782608695652 0.2666666666666667 0  1.941304347826087 0.275 0  1.933043478260869 0.275 0  1.949565217391304 0.275 0  1.957826086956522 0.275 0  1.966086956521739 0.275 0  1.974347826086956 0.275 0  1.982608695652174 0.275 0  1.990869565217391 0.275 0  1.999130434782608 0.275 0  2.007391304347826 0.275 0  2.015652173913043 0.275 0  2.023913043478261 0.275 0  2.032173913043478 0.275 0  2.040434782608695 0.275 0  2.048695652173913 0.275 0  2.05695652173913 0.275 0  2.065217391304348 0.275 0  2.073478260869565 0.275 0  2.081739130434782 0.275 0  2.09 0.275 0  2.098260869565217 0.275 0  2.106521739130435 0.275 0  2.114782608695652 0.275 0  2.12304347826087 0.275 0  1.941304347826087 0.2833333333333333 0  1.933043478260869 0.2833333333333333 0  1.949565217391304 0.2833333333333333 0  1.957826086956522 0.2833333333333333 0  1.966086956521739 0.2833333333333333 0  1.974347826086956 0.2833333333333333 0  1.982608695652174 0.2833333333333333 0  1.990869565217391 0.2833333333333333 0  1.999130434782608 0.2833333333333333 0  2.007391304347826 0.2833333333333333 0  2.015652173913043 0.2833333333333333 0  2.023913043478261 0.2833333333333333 0  2.032173913043478 0.2833333333333333 0  2.040434782608695 0.2833333333333333 0  2.048695652173913 0.2833333333333333 0  2.05695652173913 0.2833333333333333 0  2.065217391304348 0.2833333333333333 0  2.073478260869565 0.2833333333333333 0  2.081739130434782 0.2833333333333333 0  2.09 0.2833333333333333 0  2.098260869565217 0.2833333333333333 0  2.106521739130435 0.2833333333333333 0  2.114782608695652 0.2833333333333333 0  2.12304347826087 0.2833333333333333 0  2.131304347826087 0.2833333333333333 0  1.941304347826087 0.2916666666666667 0  1.933043478260869 0.2916666666666667 0  1.949565217391304 0.2916666666666667 0  1.957826086956522 0.2916666666666667 0  1.966086956521739 0.2916666666666667 0  1.974347826086956 0.2916666666666667 0  1.982608695652174 0.2916666666666667 0  1.990869565217391 0.2916666666666667 0  1.999130434782608 0.2916666666666667 0  2.007391304347826 0.2916666666666667 0  2.015652173913043 0.2916666666666667 0  2.023913043478261 0.2916666666666667 0  2.032173913043478 0.2916666666666667 0  2.040434782608695 0.2916666666666667 0  2.048695652173913 0.2916666666666667 0  2.05695652173913 0.2916666666666667 0  2.065217391304348 0.2916666666666667 0  2.073478260869565 0.2916666666666667 0  2.081739130434782 0.2916666666666667 0  2.09 0.2916666666666667 0  2.098260869565217 0.2916666666666667 0  2.106521739130435 0.2916666666666667 0  2.114782608695652 0.2916666666666667 0  2.12304347826087 0.2916666666666667 0  2.131304347826087 0.2916666666666667 0  2.139565217391304 0.2916666666666667 0  1.941304347826087 0.3 0  1.933043478260869 0.3 0  1.949565217391304 0.3 0  1.957826086956522 0.3 0  1.966086956521739 0.3 0  1.974347826086956 0.3 0  1.982608695652174 0.3 0  1.990869565217391 0.3 0  1.999130434782608 0.3 0  2.007391304347826 0.3 0  2.015652173913043 0.3 0  2.023913043478261 0.3 0  2.032173913043478 0.3 0  2.040434782608695 0.3 0  2.048695652173913 0.3 0  2.05695652173913 0.3 0  2.065217391304348 0.3 0  2.073478260869565 0.3 0  2.081739130434782 0.3 0  2.09 0.3 0  2.098260869565217 0.3 0  2.106521739130435 0.3 0  2.114782608695652 0.3 0  2.12304347826087 0.3 0  2.131304347826087 0.3 0  2.139565217391304 0.3 0  2.147826086956522 0.2916666666666667 0  2.147826086956522 0.3 0  2.156086956521739 0.2916666666666667 0  2.156086956521739 0.3 0  2.164347826086956 0.2916666666666667 0  2.164347826086956 0.3 0  2.172608695652174 0.2916666666666667 0  2.172608695652174 0.3 0  2.180869565217391 0.2916666666666667 0  2.180869565217391 0.3 0  2.189130434782609 0.2916666666666667 0  2.189130434782609 0.3 0  2.197391304347826 0.2916666666666667 0  2.197391304347826 0.3 0  2.205652173913043 0.2916666666666667 0  2.205652173913043 0.3 0  2.213913043478261 0.2916666666666667 0  2.213913043478261 0.3 0  2.222173913043478 0.2916666666666667 0  2.222173913043478 0.3 0  2.230434782608695 0.2916666666666667 0  2.230434782608695 0.3 0  2.238695652173913 0.2916666666666667 0  2.238695652173913 0.3 0  2.24695652173913 0.3 0  1.941304347826087 0.3083333333333333 0  1.933043478260869 0.3083333333333333 0  1.949565217391304 0.3083333333333333 0  1.957826086956522 0.3083333333333333 0  1.966086956521739 0.3083333333333333 0  1.974347826086956 0.3083333333333333 0  1.982608695652174 0.3083333333333333 0  1.990869565217391 0.3083333333333333 0  1.999130434782608 0.3083333333333333 0  2.007391304347826 0.3083333333333333 0  2.015652173913043 0.3083333333333333 0  2.023913043478261 0.3083333333333333 0  2.032173913043478 0.3083333333333333 0  2.040434782608695 0.3083333333333333 0  2.048695652173913 0.3083333333333333 0  2.05695652173913 0.3083333333333333 0  2.065217391304348 0.3083333333333333 0  2.073478260869565 0.3083333333333333 0  2.081739130434782 0.3083333333333333 0  2.09 0.3083333333333333 0  2.098260869565217 0.3083333333333333 0  2.106521739130435 0.3083333333333333 0  2.114782608695652 0.3083333333333333 0  2.12304347826087 0.3083333333333333 0  2.131304347826087 0.3083333333333333 0  2.139565217391304 0.3083333333333333 0  2.147826086956522 0.3083333333333333 0  2.156086956521739 0.3083333333333333 0  2.164347826086956 0.3083333333333333 0  2.172608695652174 0.3083333333333333 0  2.180869565217391 0.3083333333333333 0  2.189130434782609 0.3083333333333333 0  2.197391304347826 0.3083333333333333 0  2.205652173913043 0.3083333333333333 0  2.213913043478261 0.3083333333333333 0  2.222173913043478 0.3083333333333333 0  2.230434782608695 0.3083333333333333 0  2.238695652173913 0.3083333333333333 0  2.24695652173913 0.3083333333333333 0  2.255217391304348 0.3083333333333333 0  1.941304347826087 0.3166666666666667 0  1.933043478260869 0.3166666666666667 0  1.949565217391304 0.3166666666666667 0  1.957826086956522 0.3166666666666667 0  1.966086956521739 0.3166666666666667 0  1.974347826086956 0.3166666666666667 0  1.982608695652174 0.3166666666666667 0  1.990869565217391 0.3166666666666667 0  1.999130434782608 0.3166666666666667 0  2.007391304347826 0.3166666666666667 0  2.015652173913043 0.3166666666666667 0  2.023913043478261 0.3166666666666667 0  2.032173913043478 0.3166666666666667 0  2.040434782608695 0.3166666666666667 0  2.048695652173913 0.3166666666666667 0  2.05695652173913 0.3166666666666667 0  2.065217391304348 0.3166666666666667 0  2.073478260869565 0.316666666666666
[...]
<PointData  Vectors="Displacement"> 
<DataArray  type="Float64"  Name="Displacement"  NumberOfComponents="3" format="ascii">-1.2387764981637228e-04 3.6720093494750214e-03 0.0000000000000000e+00  -1.2281080673451667e-04 3.6987820731859758e-03 0.0000000000000000e+00  -1.4499326850283875e-04 3.6932682407669615e-03 0.0000000000000000e+00  -1.4611905660292374e-04 3.6665119743168159e-03 0.0000000000000000e+00  -1.4378288902173705e-04 3.7193761064760545e-03 0.0000000000000000e+00  -1.6735069228856724e-04 3.6879187802475871e-03 0.0000000000000000e+00  -1.6859109897435695e-04 3.6611844395669870e-03 0.0000000000000000e+00  -1.6603030426895328e-04 3.7139612060541581e-03 0.0000000000000000e+00  -1.4248185754985087e-04 3.7448552075947886e-03 0.0000000000000000e+00  -1.6462242598812198e-04 3.7393522520637462e-03 0.0000000000000000e+00  -1.4109445282671165e-04 3.7697251952343337e-03 0.0000000000000000e+00  -1.6313740303224069e-04 3.7641323502793718e-03 0.0000000000000000e+00  -1.3962931374746968e-04 3.7939901351238918e-03 0.0000000000000000e+00  -1.6159222158109444e-04 3.7883107453000851e-03 0.0000000000000000e+00  -1.3809144825947659e-04 3.8176353911390376e-03 0.0000000000000000e+00  -1.5999649616004846e-04 3.8118640817480023e-03 0.0000000000000000e+00  -1.3647841626230264e-04 3.8406364923271562e-03 0.0000000000000000e+00  -1.5834791956204986e-04 3.8347563108184764e-03 0.0000000000000000e+00  -1.5663426373947425e-04 3.8569526486843106e-03 0.0000000000000000e+00  -1.8985297658368961e-04 3.6827161357822747e-03 0.0000000000000000e+00  -1.8838168730407316e-04 3.7086825125048971e-03 0.0000000000000000e+00  -1.8682786595475279e-04 3.7339774003015544e-03 0.0000000000000000e+00  -1.8521067321537117e-04 3.7586762952975783e-03 0.0000000000000000e+00  -1.8355938597276172e-04 3.7827923471639227e-03 0.0000000000000000e+00  -1.8188839568486837e-04 3.8062831343734630e-03 0.0000000000000000e+00  -1.8019329705106272e-04 3.8290938057544597e-03 0.0000000000000000e+00  -1.7845688540526428e-04 3.8511774760025138e-03 0.0000000000000000e+00  -1.7665540189835914e-04 3.8725004683476142e-03 0.0000000000000000e+00  -2.1079257587497378e-04 3.7035222473080325e-03 0.0000000000000000e+00  -2.1244486782929714e-04 3.6776513348962484e-03 0.0000000000000000e+00  -2.0906026184712521e-04 3.7287022217135871e-03 0.0000000000000000e+00  -2.0728043316993876e-04 3.7533319348680813e-03 0.0000000000000000e+00  -2.0550194159385166e-04 3.7774222447542146e-03 0.0000000000000000e+00  -2.0374368909092415e-04 3.8008910198377051e-03 0.0000000000000000e+00  -2.0199559494966362e-04 3.8236545374880516e-03 0.0000000000000000e+00  -2.0023236358193420e-04 3.8456513997807643e-03 0.0000000000000000e+00  -1.9842316366055980e-04 3.8668425532632608e-03 0.0000000000000000e+00  -1.7476277200995582e-04 3.8930418442837821e-03 0.0000000000000000e+00  -1.9653685763215554e-04 3.8872067113825798e-03 0.0000000000000000e+00  -1.7275290442103131e-04 3.9127910181584284e-03 0.0000000000000000e+00  -1.9454422353527989e-04 3.9067351080849669e-03 0.0000000000000000e+00  -1.9241818523404070e-04 3.9254269902358327e-03 0.0000000000000000e+00  -2.1404741961365855e-04 3.6509775903545445e-03 0.0000000000000000e+00  -2.3502383237829040e-04 3.6727323816305767e-03 0.0000000000000000e+00  -2.3685695864363680e-04 3.6460912415978140e-03 0.0000000000000000e+00  -2.3319157617985743e-04 3.6984729271728810e-03 0.0000000000000000e+00  -2.3126879325365086e-04 3.7234937133791418e-03 0.0000000000000000e+00  -2.2930696401379073e-04 3.7480703503638938e-03 0.0000000000000000e+00  -2.2738966762724013e-04 3.7721907233133518e-03 0.0000000000000000e+00  -2.2554007906100409e-04 3.7956918822356473e-03 0.0000000000000000e+00  -2.2373778898825922e-04 3.8184494012069967e-03 0.0000000000000000e+00  -2.2194639108135292e-04 3.8403874631939595e-03 0.0000000000000000e+00  -2.2012665766492443e-04 3.8614645862710298e-03 0.0000000000000000e+00  -2.1824217364063044e-04 3.8816624630710192e-03 0.0000000000000000e+00  -2.1626101754296728e-04 3.9009768046201782e-03 0.0000000000000000e+00  -2.1415482295759875e-04 3.9194102963267504e-03 0.0000000000000000e+00  -1.9013350585037053e-04 3.9432877007633876e-03 0.0000000000000000e+00  -2.1189782148680581e-04 3.9369710436824527e-03 0.0000000000000000e+00  -1.8766650690237363e-04 3.9603278028727488e-03 0.0000000000000000e+00  -2.0946636257438830e-04 3.9536720703103748e-03 0.0000000000000000e+00  -1.8499476961207756e-04 3.9765624214817387e-03 0.0000000000000000e+00  -2.0683844877711284e-04 3.9695306039757693e-03 0.0000000000000000e+00  -1.8209679460506838e-04 3.9920108205964274e-03 0.0000000000000000e+00  -2.0399318264206949e-04 3.9845676109543588e-03 0.0000000000000000e+00  -1.7895170606275465e-04 4.0066963050811987e-03 0.0000000000000000e+00  -2.0091030838439921e-04 3.9988078529832050e-03 0.0000000000000000e+00  -1.7553905291183512e-04 4.0206463082237392e-03 0.0000000000000000e+00  -1.9756992663342307e-04 4.0122801613093496e-03 0.0000000000000000e+00  -1.7183869115671696e-04 4.0338925110186951e-03 0.0000000000000000e+00  -1.9395232065230351e-04 4.0250176607018844e-03 0.0000000000000000e+00  -1.6783071225058094e-04 4.0464709385570610e-03 0.0000000000000000e+00  -1.9003781392829152e-04 4.0370578985756229e-03 0.0000000000000000e+00  -1.8580663951190497e-04 4.0484429747470723e-03 0.0000000000000000e+00  -2.5732862086907780e-04 3.6681127401333342e-03 0.0000000000000000e+00  -2.5777397004851145e-04 3.6464564283077436e-03 0.0000000000000000e+00  -2.5546378391238844e-04 3.6935625723375971e-03 0.0000000000000000e+00  -2.5340373950424828e-04 3.7183124412589171e-03 0.0000000000000000e+00  -2.5126216626959898e-04 3.7428563100650580e-03 0.0000000000000000e+00  -2.4920489014426526e-04 3.7670936274508972e-03 0.0000000000000000e+00  -2.4726553598568816e-04 3.7906977286526573e-03 0.0000000000000000e+00  -2.4540991102293242e-04 3.8134955177803725e-03 0.0000000000000000e+00  -2.4358892529957631e-04 3.8354026392362051e-03 0.0000000000000000e+00  -2.4175447443989983e-04 3.8563811910317029e-03 0.0000000000000000e+00  -2.3986512242660981e-04 3.8764210681124837e-03 0.0000000000000000e+00  -2.3788707419848700e-04 3.8955261326223327e-03 0.0000000000000000e+00  -2.3579130612874378e-04 3.9137037005116965e-03 0.0000000000000000e+00  -2.3355195744684059e-04 3.9309652750836258e-03 0.0000000000000000e+00  -2.3114591020916136e-04 3.9473269355496656e-03 0.0000000000000000e+00  -2.2855218889331066e-04 3.9628083615288173e-03 0.0000000000000000e+00  -2.2575109182603408e-04 3.9774322504420321e-03 0.0000000000000000e+00  -2.2272352238643278e-04 3.9912246983656221e-03 0.0000000000000000e+00  -2.1945063546967324e-04 4.0042157893114801e-03 0.0000000000000000e+00  -2.1591363173401848e-04 4.0164399344335437e-03 0.0000000000000000e+00  -2.1209353850530597e-04 4.0279359791868209e-03 0.0000000000000000e+00  -2.0797095110399778e-04 4.0387473176851374e-03 0.0000000000000000e+00  -2.0352579996745938e-04 4.0489221730312481e-03 0.0000000000000000e+00  -2.7751256778437680e-04 3.6684851729746567e-03 0.0000000000000000e+00  -2.7810286236473237e-04 3.6468266985140267e-03 0.0000000000000000e+00  -2.7702962230261963e-04 3.6896450333413402e-03 0.0000000000000000e+00  -2.7550721868639476e-04 3.7130964468192781e-03 0.0000000000000000e+00  -2.7319001737987042e-04 3.7376324545803836e-03 0.0000000000000000e+00  -2.7097165699932176e-04 3.7621309720214167e-03 0.0000000000000000e+00  -2.6892952527789345e-04 3.7859274968369138e-03 0.0000000000000000e+00  -2.6701175809036359e-04 3.8088149784624766e-03 0.0000000000000000e+00  -2.6515381017568811e-04 3.8307167340999454e-03 0.0000000000000000e+00  -2.6329637570278241e-04 3.8516078216589036e-03 0.0000000000000000e+00  -2.6139201353507968e-04 3.8714938965968690e-03 0.0000000000000000e+00  -2.5940554552738421e-04 3.8903919269805713e-03 0.0000000000000000e+00  -2.5730750438072552e-04 3.9083141699378350e-03 0.0000000000000000e+00  -2.5507204093071033e-04 3.9252759235331855e-03 0.0000000000000000e+00  -2.5267706236544216e-04 3.9412971239931220e-03 0.0000000000000000e+00  -2.5010339119794074e-04 3.9564003205106116e-03 0.0000000000000000e+00  -2.4733328772414027e-04 3.9706098238044187e-03 0.0000000000000000e+00  -2.4434947917010831e-04 3.9839528001320212e-03 0.0000000000000000e+00  -2.4113479226049316e-04 3.9964603917558156e-03 0.0000000000000000e+00  -2.3767196921737000e-04 4.0081681422170787e-03 0.0000000000000000e+00  -2.3394336558992633e-04 4.0191159544174888e-03 0.0000000000000000e+00  -2.2993051740927102e-04 4.0293481070833208e-03 0.0000000000000000e+00  -2.2561370088672227e-04 4.0389135828669499e-03 0.0000000000000000e+00  -2.2097161834637615e-04 4.0478667403821738e-03 0.0000000000000000e+00  -2.9723073526105717e-04 3.6688527588014963e-03 0.0000000000000000e+00  -2.9788811050402239e-04 3.6472759937561344e-03 0.0000000000000000e+00  -2.9665656320672953e-04 3.6900096973474616e-03 0.0000000000000000e+00  -2.9614453732499974e-04 3.7108722052286067e-03 0.0000000000000000e+00  -2.9536659565453685e-04 3.7322378512700265e-03 0.0000000000000000e+00  -2.9277669793068879e-04 3.7572925214793594e-03 0.0000000000000000e+00  -2.9055247585486860e-04 3.7814007329947529e-03 0.0000000000000000e+00  -2.8853944136105023e-04 3.8044321128977718e-03 0.0000000000000000e+00  -2.8662926102100542e-04 3.8263515900938548e-03 0.0000000000000000e+00  -2.8473789596042501e-04 3.8471602782698274e-03 0.0000000000000000e+00  -2.8280647277347979e-04 3.8668911871773681e-03 0.0000000000000000e+00  -2.8079814964694730e-04 3.8855816265483795e-03 0.0000000000000000e+00  -2.7868246033750703e-04 3.9032466909725977e-03 0.0000000000000000e+00  -2.7643322404843521e-04 3.9199057770606411e-03 0.0000000000000000e+00  -2.7403009010109334e-04 3.9355841425283396e-03 0.0000000000000000e+00  -2.7145691742991150e-04 3.9503077603213156e-03 0.0000000000000000e+00  -2.6869901669091309e-04 3.9641021064841520e-03 0.0000000000000000e+00  -2.6574177787514261e-04 3.9769949104443598e-03 0.0000000000000000e+00  -2.6257045580179263e-04 3.9890181438761163e-03 0.0000000000000000e+00  -2.5917012278286203e-04 4.0002083887475410e-03 0.0000000000000000e+00  -2.5552527198838797e-04 4.0106063830422159e-03 0.0000000000000000e+00  -2.5161914419337801e-04 4.0202568106917679e-03 0.0000000000000000e+00  -2.4743301204568083e-04 4.0292086596406818e-03 0.0000000000000000e+00  -2.4294560355217875e-04 4.0375161158626542e-03 0.0000000000000000e+00  -2.3813280587263469e-04 4.0452399005199051e-03 0.0000000000000000e+00  -3.1661154055986760e-04 3.6692742420655839e-03 0.0000000000000000e+00  -3.1723138546085753e-04 3.6478209965236669e-03 0.0000000000000000e+00  -3.1601825171208753e-04 3.6903630096085647e-03 0.0000000000000000e+00  -3.1547083366953850e-04 3.7112142577105972e-03 0.0000000000000000e+00  -3.1494384745646604e-04 3.7319387553024310e-03 0.0000000000000000e+00  -3.1448596040780454e-04 3.7525806249118308e-03 0.0000000000000000e+00  -3.1204863911740173e-04 3.7771464477119234e-03 0.0000000000000000e+00  -3.0993560841197711e-04 3.8003802332196262e-03 0.0000000000000000e+00  -3.0797739585398579e-04 3.8223365085654384e-03 0.0000000000000000e+00  -3.0605296990652263e-04 3.8430574010135461e-03 0.0000000000000000e+00  -3.0408764519505226e-04 3.8626228876974525e-03 0.0000000000000000e+00  -3.0204589350040504e-04 3.8811020650874354e-03 0.0000000000000000e+00  -2.9989596670768710e-04 3.8985043018884926e-03 0.0000000000000000e+00  -2.9761115784628084e-04 3.9148541492277427e-03 0.0000000000000000e+00  -2.9517465557214479e-04 3.9301852503331155e-03 0.0000000000000000e+00  -2.9257568931857737e-04 3.9445276192368482e-03 0.0000000000000000e+00  -2.8980425449378955e-04 3.9579066348163433e-03 0.0000000000000000e+00  -2.8684944321761825e-04 3.9703496564362029e-03 0.0000000000000000e+00  -2.8369983911860505e-04 3.9818892751436637e-03 0.0000000000000000e+00  -2.8034382585351368e-04 3.9925631820233089e-03 0.0000000000000000e+00  -2.7676905498443932e-04 4.0024127918456137e-03 0.0000000000000000e+00  -2.7296143270865239e-04 4.0114826455943248e-03 0.0000000000000000e+00  -2.6890405964914422e-04 4.0198208061675107e-03 0.0000000000000000e+00  -2.6457633505470591e-04 4.0274800158257599e-03 0.0000000000000000e+00  -2.5995335757714676e-04 4.0345194760475940e-03 0.0000000000000000e+00  -2.5500580569024948e-04 4.0410071805417553e-03 0.0000000000000000e+00  -3.3576403721029561e-04 3.6697606202820469e-03 0.0000000000000000e+00  -3.3010565734374706e-04 3.6599071922700857e-03 0.0000000000000000e+00  -3.3523510189077286e-04 3.6907406741129019e-03 0.0000000000000000e+00  -3.3468943073978682e-04 3.7115514540322758e-03 0.0000000000000000e+00  -3.3416365430493213e-04 3.7322551902246939e-03 0.0000000000000000e+00  -3.3364103229574591e-04 3.7528863484753931e-03 0.0000000000000000e+00  -3.3325071523501417e-04 3.7732630991304159e-03 0.0000000000000000e+00  -3.3110284265915155e-04 3.7967294168627526e-03 0.0000000000000000e+00  -3.2914193705869266e-04 3.8187243410499317e-03 0.0000000000000000e+00  -3.2721118799149639e-04 3.8393275750026106e-03 0.0000000000000000e+00  -3.2521682226958811e-04 3.8587001136230173e-03 0.0000000000000000e+00  -3.2313503224561043e-04 3.8769610348381033e-03 0.0000000000000000e+00  -3.2093326385805007e-04 3.8940879330483717e-03 0.0000000000000000e+00  -3.1858507523978578e-04 3.9101153989032685e-03 0.0000000000000000e+00  -3.1608153850635595e-04 3.9250917530627002e-03 0.0000000000000000e+00  -3.1342153018632077e-04 3.9390510994946649e-03 0.0000000000000000e+00  -3.1060198484280510e-04 3.9520155194957300e-03 0.0000000000000000e+00  -3.0761680174332595e-04 3.9640104003268832e-03 0.0000000000000000e+00  -3.0445888239121187e-04 3.9750689352487396e-03 0.0000000000000000e+00  -3.0112111667963639e-04 3.9852303519776278e-03 0.0000000000000000e+00  -2.9759555558740762e-04 3.9945366911717222e-03 0.0000000000000000e+00  -2.9387189868679205e-04 4.0030317173541845e-03 0.0000000000000000e+00  -2.8993604638542016e-04 4.0107614466787815e-03 0.0000000000000000e+00  -2.8576886735160551e-04 4.0177756095947648e-03 0.0000000000000000e+00  -2.8134522028240680e-04 4.0241298936397486e-03 0.0000000000000000e+00  -2.7663342900775546e-04 4.0298890396269667e-03 0.0000000000000000e+00  -2.4970055020396458e-04 4.0470226581012566e-03 0.0000000000000000e+00  -2.7159561034016162e-04 4.0351307454292084e-03 0.0000000000000000e+00  -2.4400225988453232e-04 4.0526598200985300e-03 0.0000000000000000e+00  -2.6618935373795094e-04 4.0399500534928487e-03 0.0000000000000000e+00  -2.3787616384215052e-04 4.0580294413354225e-03 0.0000000000000000e+00  -2.6037120655418773e-04 4.0444635834658779e-03 0.0000000000000000e+00  -2.3129196657564467e-04 4.0632606639667279e-03 0.0000000000000000e+00  -2.5410213215947431e-04 4.0488128544449884e-03 0.0000000000000000e+00  -2.2422852019205415e-04 4.0685007841611484e-03 0.0000000000000000e+00  -2.4735484977531487e-04 4.0531652763371373e-03 0.0000000000000000e+00  -2.1667935833861749e-04 4.0739134043758273e-03 0.0000000000000000e+00  -2.4012316445214799e-04 4.0577153404339457e-03 0.0000000000000000e+00  -2.0865401653602554e-04 4.0796677068452563e-03 0.0000000000000000e+00  -2.3242600827005918e-04 4.0626631247778202e-03 0.0000000000000000e+00  -2.0017869818297570e-04 4.0859276333496111e-03 0.0000000000000000e+00  -2.2429939167028877e-04 4.0682101592677614e-03 0.0000000000000000e+00  -1.9129269114803604e-04 4.0928561932021311e-03 0.0000000000000000e+00  -2.1582563495992611e-04 4.0745488251424803e-03 0.0000000000000000e+00  -1.8208523523635062e-04 4.1006029026948599e-03 0.0000000000000000e+00  -2.0709035578782154e-04 4.0819917859006198e-03 0.0000000000000000e+00  -1.7268417833953090e-04 4.1093882894570428e-03 0.0000000000000000e+00  -1.9859994620859874e-04 4.0908315888700929e-03 0.0000000000000000e+00  -1.6363522319408667e-04 4.1193339074340378e-03 0.0000000000000000e+00  -1.9074265494457631e-04 4.1026131852425658e-03 0.0000000000000000e+00  -1.8786123383845792e-04 4.1195882452645556e-03 0.0000000000000000e+00  -3.4804169969367821e-04 3.6822471841690282e-03 0.0000000000000000e+00  -3.4188396059673667e-04 3.6728291422962922e-03 0.0000000000000000e+00  -3.5433169489629046e-04 3.6911761610966968e-03 0.0000000000000000e+00  -3.5386060497979109e-04 3.7118901271905769e-03 0.0000000000000000e+00  -3.5332116038459566e-04 3.7325817757007467e-03 0.0000000000000000e+00  -3.5280050520561672e-04 3.7531839284258325e-03 0.0000000000000000e+00  -3.5230159968137266e-04 3.7736156278961853e-03 0.0000000000000000e+00  -3.5195907426284739e-04 3.7935882946291376e-03 0.0000000000000000e+00  -3.5005679097049777e-04 3.8156073290124782e-03 0.0000000000000000e+00  -3.4819052121239183e-04 3.8360140289240168e-03 0.0000000000000000e+00  -3.4619273621487573e-04 3.8551325567898584e-03 0.0000000000000000e+00  -3.4406922019354603e-04 3.8731681166908438e-03 0.0000000000000000e+00  -3.4179276802306089e-04 3.8899945103420394e-03 0.0000000000000000e+00  -3.3934182635129664e-04 3.9056755182461113e-03 0.0000000000000000e+00  -3.3672440498231959e-04 3.9202860466490651e-03 0.0000000000000000e+00  -3.3395579853073821e-04 3.9338617323082517e-03 0.0000000000000000e+00  -3.3104220212693138e-04 3.9464139698425528e-03 0.0000000000000000e+00  -3.2798303330190475e-04 3.9579638488254553e-03 0.0000000000000000e+00  -3.2477648405284174e-04 3.9685458312529714e-03 0.0000000000000000e+00  -3.2142141066547831e-04 3.9782018025639231e-03 0.0000000000000000e+00  -3.1791571032480526e-04 3.9869744751042232e-03 0.0000000000000000e+00  -3.1425406528513876e-04 3.9949060520702000e-03 0.0000000000000000e+00  -3.1042616110205990e-04 4.0020391861126572e-03 0.0000000000000000e+00  -3.0641520603132030e-04 4.0084187590918750e-03 0.0000000000000000e+00  -3.0219653209281416e-04 4.0140944762520727e-03 0.0000000000000000e+00  -2.9773643358086988e-04 4.0191247181523230e-03 0.0000000000000000e+00  -2.9299181592352074e-04 4.0235818807336466e-03 0.0000000000000000e+00  -2.8791156747002406e-04 4.0275589216477118e-03 0.0000000000000000e+00  -2.8244057395167369e-04 4.0311763678657206e-03 0.0000000000000000e+00  -2.7652733968860905e-04 4.0345885152741779e-03 0.0000000000000000e+00  -2.7013438389315262e-04 4.0379875734947871e-03 0.0000000000000000e+00  -2.6325788402522691e-04 4.0416093408916325e-03 0.0000000000000000e+00  -2.5592195465620282e-04 4.0456987864807368e-03 0.0000000000000000e+00  -2.4819618575272148e-04 4.0504736964683541e-03 0.0000000000000000e+00  -2.4012169481037540e-04 4.0562484445192436e-03 0.0000000000000000e+00  -2.3211735490501057e-04 4.0632512764214182e-03 0.0000000000000000e+00  -2.2418869148916788e-04 4.0731595895031275e-03 0.0000000000000000e+00  -2.2104828283118146e-04 4.0864809713179314e-03 0.0000000000000000e+00  -2.2096149224151227e-04 4.1191693760330569e-03 0.0000000000000000e+00  -2.2112957709712080e-04 4.1529436167299988e-03 0.0000000000000000e+00  -3.5930239130926557e-04 3.6952251801313850e-03 0.0000000000000000e+00  -3.5286752758314962e-04 3.6861142522044985e-03 0.0000000000000000e+00  -3.6590799217655793e-04 3.7039902900353637e-03 0.0000000000000000e+00  -3.7285512857912701e-04 3.7123196626163836e-03 0.0000000000000000e+00  -3.7239495620526586e-04 3.7328960865213056e-03 0.0000000000000000e+00  -3.7180664193643014e-04 3.7535086014733395e-03 0.0000000000000000e+00  -3.7126372583445741e-04 3.7739010166040702e-03 0.0000000000000000e+00  -3.7079474084695819e-04 3.7938930735968738e-03 0.0000000000000000e+00  -3.7049957793455079e-04 3.8131755051318255e-03 0.0000000000000000e+00  -3.6896728399234938e-04 3.8331984079329156e-03 0.0000000000000000e+00  -3.6708027457584561e-04 3.8519121468832897e-03 0.0000000000000000e+00  -3.6489446830702575e-04 3.8697319963167118e-03 0.0000000000000000e+00  -3.6249454285093791e-04 3.8862109537109030e-03 0.0000000000000000e+00  -3.5987798882905085e-04 3.9015055489816822e-03 0.0000000000000000e+00  -3.5708003629389927e-04 3.9157371378814422e-03 0.0000000000000000e+00  -3.5413915303000236e-04 3.9289330904427140e-03 0.0000000000000000e+00  -3.5107128414499616e-04 3.9410786257279900e-03 0.0000000000000000e+00  -3.4788106883381080e-04 3.9521884103911695e-03 0.0000000000000000e+