<?xml version="1.0"?>
<VTKFile type="UnstructuredGrid"  version="0.1"  >
<UnstructuredGrid>
<Piece  NumberOfPoints="2444" NumberOfCells="4684">
<Points>
<DataArray  type="Float64"  NumberOfComponents="3"  format="ascii">2.940869565217391 0 0  2.949130434782608 0 0  2.949130434782608 0.008333333333333333 0  2.940869565217391 0.008333333333333333 0  2.957391304347826 0 0  2.957391304347826 0.008333333333333333 0  2.965652173913043 0 0  2.965652173913043 0.008333333333333333 0  2.973913043478261 0 0  2.973913043478261 0.008333333333333333 0  2.982173913043478 0 0  2.982173913043478 0.008333333333333333 0  2.990434782608696 0 0  2.990434782608696 0.008333333333333333 0  2.998695652173913 0 0  2.998695652173913 0.008333333333333333 0  3.006956521739131 0 0  3.006956521739131 0.008333333333333333 0  3.015217391304348 0 0  3.015217391304348 0.008333333333333333 0  3.023478260869565 0 0  3.023478260869565 0.008333333333333333 0  3.031739130434782 0 0  3.031739130434782 0.008333333333333333 0  3.04 0 0  3.04 0.008333333333333333 0  3.048260869565218 0 0  3.048260869565218 0.008333333333333333 0  3.056521739130435 0 0  3.056521739130435 0.008333333333333333 0  3.064782608695652 0 0  3.064782608695652 0.008333333333333333 0  3.073043478260869 0 0  3.073043478260869 0.008333333333333333 0  3.081304347826087 0 0  3.081304347826087 0.008333333333333333 0  3.089565217391304 0 0  3.089565217391304 0.008333333333333333 0  3.097826086956522 0 0  3.097826086956522 0.008333333333333333 0  3.106086956521739 0 0  3.106086956521739 0.008333333333333333 0  3.114347826086956 0 0  3.114347826086956 0.008333333333333333 0  3.122608695652174 0 0  3.122608695652174 0.008333333333333333 0  3.130869565217391 0 0  3.130869565217391 0.008333333333333333 0  3.139130434782609 0 0  3.139130434782609 0.008333333333333333 0  3.147391304347826 0 0  3.147391304347826 0.008333333333333333 0  3.155652173913043 0 0  3.155652173913043 0.008333333333333333 0  3.163913043478261 0 0  3.163913043478261 0.008333333333333333 0  3.172173913043478 0 0  3.172173913043478 0.008333333333333333 0  3.180434782608696 0 0  3.180434782608696 0.008333333333333333 0  3.188695652173913 0 0  3.188695652173913 0.008333333333333333 0  3.19695652173913 0 0  3.19695652173913 0.008333333333333333 0  3.205217391304347 0 0  3.205217391304347 0.008333333333333333 0  3.213478260869565 0 0  3.213478260869565 0.008333333333333333 0  3.221739130434782 0 0  3.221739130434782 0.008333333333333333 0  3.23 0 0  3.23 0.008333333333333333 0  3.238260869565217 0 0  3.238260869565217 0.008333333333333333 0  3.246521739130435 0 0  3.246521739130435 0.008333333333333333 0  3.254782608695652 0 0  3.254782608695652 0.008333333333333333 0  3.26304347826087 0 0  3.26304347826087 0.008333333333333333 0  3.271304347826087 0 0  3.271304347826087 0.008333333333333333 0  3.279565217391304 0 0  3.279565217391304 0.008333333333333333 0  3.287826086956521 0 0  3.287826086956521 0.008333333333333333 0  3.296086956521739 0 0  3.296086956521739 0.008333333333333333 0  3.304347826086957 0 0  3.304347826086957 0.008333333333333333 0  3.312608695652174 0 0  3.312608695652174 0.008333333333333333 0  3.320869565217391 0 0  3.320869565217391 0.008333333333333333 0  3.329130434782608 0 0  3.329130434782608 0.008333333333333333 0  3.337391304347826 0.008333333333333333 0  2.949130434782608 0.01666666666666667 0  2.957391304347826 0.01666666666666667 0  2.965652173913043 0.01666666666666667 0  2.973913043478261 0.01666666666666667 0  2.982173913043478 0.01666666666666667 0  2.990434782608696 0.01666666666666667 0  2.998695652173913 0.01666666666666667 0  3.006956521739131 0.01666666666666667 0  3.015217391304348 0.01666666666666667 0  3.023478260869565 0.01666666666666667 0  3.031739130434782 0.01666666666666667 0  3.04 0.01666666666666667 0  3.048260869565218 0.01666666666666667 0  3.056521739130435 0.01666666666666667 0  3.064782608695652 0.01666666666666667 0  3.073043478260869 0.01666666666666667 0  3.081304347826087 0.01666666666666667 0  3.089565217391304 0.01666666666666667 0  3.097826086956522 0.01666666666666667 0  3.106086956521739 0.01666666666666667 0  3.114347826086956 0.01666666666666667 0  3.122608695652174 0.01666666666666667 0  3.130869565217391 0.01666666666666667 0  3.139130434782609 0.01666666666666667 0  3.147391304347826 0.01666666666666667 0  3.155652173913043 0.01666666666666667 0  3.163913043478261 0.01666666666666667 0  3.172173913043478 0.01666666666666667 0  3.180434782608696 0.01666666666666667 0  3.188695652173913 0.01666666666666667 0  3.19695652173913 0.01666666666666667 0  3.205217391304347 0.01666666666666667 0  3.213478260869565 0.01666666666666667 0  3.221739130434782 0.01666666666666667 0  3.23 0.01666666666666667 0  3.238260869565217 0.01666666666666667 0  3.246521739130435 0.01666666666666667 0  3.254782608695652 0.01666666666666667 0  3.26304347826087 0.01666666666666667 0  3.271304347826087 0.01666666666666667 0  3.279565217391304 0.01666666666666667 0  3.287826086956521 0.01666666666666667 0  3.296086956521739 0.01666666666666667 0  3.304347826086957 0.01666666666666667 0  3.312608695652174 0.01666666666666667 0  3.320869565217391 0.01666666666666667 0  3.329130434782608 0.01666666666666667 0  3.337391304347826 0.01666666666666667 0  3.345652173913043 0.01666666666666667 0  2.957391304347826 0.025 0  2.965652173913043 0.025 0  2.973913043478261 0.025 0  2.982173913043478 0.025 0  2.990434782608696 0.025 0  2.998695652173913 0.025 0  3.006956521739131 0.025 0  3.015217391304348 0.025 0  3.023478260869565 0.025 0  3.031739130434782 0.025 0  3.04 0.025 0  3.048260869565218 0.025 0  3.056521739130435 0.025 0  3.064782608695652 0.025 0  3.073043478260869 0.025 0  3.081304347826087 0.025 0  3.089565217391304 0.025 0  3.097826086956522 0.025 0  3.106086956521739 0.025 0  3.114347826086956 0.025 0  3.122608695652174 0.025 0  3.130869565217391 0.025 0  3.139130434782609 0.025 0  3.147391304347826 0.025 0  3.155652173913043 0.025 0  3.163913043478261 0.025 0  3.172173913043478 0.025 0  3.180434782608696 0.025 0  3.188695652173913 0.025 0  3.19695652173913 0.025 0  3.205217391304347 0.025 0  3.213478260869565 0.025 0  3.221739130434782 0.025 0  3.23 0.025 0  3.238260869565217 0.025 0  3.246521739130435 0.025 0  3.254782608695652 0.025 0  3.26304347826087 0.025 0  3.271304347826087 0.025 0  3.279565217391304 0.025 0  3.287826086956521 0.025 0  3.296086956521739 0.025 0  3.304347826086957 0.025 0  3.312608695652174 0.025 0  3.320869565217391 0.025 0  3.329130434782608 0.025 0  3.337391304347826 0.025 0  3.345652173913043 0.025 0  3.353913043478261 0.025 0  2.965652173913043 0.03333333333333333 0  2.973913043478261 0.03333333333333333 0  2.982173913043478 0.03333333333333333 0  2.990434782608696 0.03333333333333333 0  2.998695652173913 0.03333333333333333 0  3.006956521739131 0.03333333333333333 0  3.015217391304348 0.03333333333333333 0  3.023478260869565 0.03333333333333333 0  3.031739130434782 0.03333333333333333 0  3.04 0.03333333333333333 0  3.048260869565218 0.03333333333333333 0  3.056521739130435 0.03333333333333333 0  3.064782608695652 0.03333333333333333 0  3.073043478260869 0.03333333333333333 0  3.081304347826087 0.03333333333333333 0  3.089565217391304 0.03333333333333333 0  3.097826086956522 0.03333333333333333 0  3.106086956521739 0.03333333333333333 0  3.114347826086956 0.03333333333333333 0  3.122608695652174 0.03333333333333333 0  3.130869565217391 0.03333333333333333 0  3.139130434782609 0.03333333333333333 0  3.147391304347826 0.03333333333333333 0  3.155652173913043 0.03333333333333333 0  3.163913043478261 0.03333333333333333 0  3.172173913043478 0.03333333333333333 0  3.180434782608696 0.03333333333333333 0  3.188695652173913 0.03333333333333333 0  3.19695652173913 0.03333333333333333 0  3.205217391304347 0.03333333333333333 0  3.213478260869565 0.03333333333333333 0  3.221739130434782 0.03333333333333333 0  3.23 0.03333333333333333 0  3.238260869565217 0.03333333333333333 0  3.246521739130435 0.03333333333333333 0  3.254782608695652 0.03333333333333333 0  3.26304347826087 0.03333333333333333 0  3.271304347826087 0.03333333333333333 0  3.279565217391304 0.03333333333333333 0  3.287826086956521 0.03333333333333333 0  3.296086956521739 0.03333333333333333 0  3.304347826086957 0.03333333333333333 0  3.312608695652174 0.03333333333333333 0  3.320869565217391 0.03333333333333333 0  3.329130434782608 0.03333333333333333 0  3.337391304347826 0.03333333333333333 0  3.345652173913043 0.03333333333333333 0  3.353913043478261 0.03333333333333333 0  3.362173913043478 0.03333333333333333 0  2.973913043478261 0.04166666666666666 0  2.982173913043478 0.04166666666666666 0  2.990434782608696 0.04166666666666666 0  2.998695652173913 0.04166666666666666 0  3.006956521739131 0.04166666666666666 0  3.015217391304348 0.04166666666666666 0  3.023478260869565 0.04166666666666666 0  3.031739130434782 0.04166666666666666 0  3.04 0.04166666666666666 0  3.048260869565218 0.04166666666666666 0  3.056521739130435 0.04166666666666666 0  3.064782608695652 0.04166666666666666 0  3.073043478260869 0.04166666666666666 0  3.081304347826087 0.04166666666666666 0  3.089565217391304 0.04166666666666666 0  3.097826086956522 0.04166666666666666 0  3.106086956521739 0.04166666666666666 0  3.114347826086956 0.04166666666666666 0  3.122608695652174 0.04166666666666666 0  3.130869565217391 0.04166666666666666 0  3.139130434782609 0.04166666666666666 0  3.147391304347826 0.04166666666666666 0  3.155652173913043 0.04166666666666666 0  3.163913043478261 0.04166666666666666 0  3.172173913043478 0.04166666666666666 0  3.180434782608696 0.04166666666666666 0  3.188695652173913 0.04166666666666666 0  3.19695652173913 0.04166666666666666 0  3.205217391304347 0.04166666666666666 0  3.213478260869565 0.04166666666666666 0  3.221739130434782 0.04166666666666666 0  3.23 0.04166666666666666 0  3.238260869565217 0.04166666666666666 0  3.246521739130435 0.04166666666666666 0  3.254782608695652 0.04166666666666666 0  3.2630434
[...]
<CellData  Scalars="rho_bar"> 
<DataArray  type="Float64"  Name="rho_bar"  format="ascii">9.9999999999999978e-01   9.9999999999999978e-01   1.0000000000000000e+00   1.0000000000000000e+00   1.0000000000000000e+00   1.0000000000000000e+00   1.0000000000000000e+00   1.0000000000000000e+00   9.9999999999999978e-01   9.9999999999999978e-01   1.0000000000000000e+00   1.0000000000000000e+00   9.9999999999999978e-01   9.9999999999999978e-01   9.9999999999999978e-01   9.9999999999999978e-01   9.9999999999999978e-01   9.9999999999999978e-01   9.9999999999999978e-01   9.9999999999999978e-01   1.0000000000000000e+00   1.0000000000000000e+00   9.9999999999999978e-01   9.9999999999999978e-01   9.9999999999999978e-01   9.9999999999999978e-01   9.9999999999999978e-01   9.9999999999999978e-01   1.0000000000000000e+00   1.0000000000000000e+00   9.9999999999999978e-01   9.9999999999999978e-01   1.0000000000000000e+00   1.0000000000000000e+00   1.0000000000000000e+00   1.0000000000000000e+00   1.0000000000000000e+00   1.0000000000000000e+00   9.9999999999999978e-01   9.9999999999999978e-01   9.9999999999960887e-01   9.9999999999997780e-01   9.9999995786262652e-01   9.9999999891878477e-01   9.9641860002718552e-01   9.9990402741451789e-01   1.6791174947243981e-01   6.3642514212013668e-01   3.9158989971616043e-05   7.6062313163404360e-04   1.9223157871062213e-08   2.9750863981640546e-07   2.4917882572121172e-11   3.2521990656064754e-10   6.2228000530240024e-14   7.1867511941547926e-13   2.3129646346357425e-16   2.4980018054066018e-15   0.0000000000000000e+00   0.0000000000000000e+00   0.0000000000000000e+00   0.0000000000000000e+00   0.0000000000000000e+00   0.0000000000000000e+00   0.0000000000000000e+00   0.0000000000000000e+00   0.0000000000000000e+00   0.0000000000000000e+00   0.0000000000000000e+00   0.0000000000000000e+00   0.0000000000000000e+00   0.0000000000000000e+00   0.0000000000000000e+00   0.0000000000000000e+00   0.0000000000000000e+00   0.0000000000000000e+00   0.0000000000000000e+00   0.0000000000000000e+00   0.0000000000000000e+00   0.0000000000000000e+00   0.0000000000000000e+00   0.0000000000000000e+00   0.0000000000000000e+00   0.0000000000000000e+00   0.0000000000000000e+00   0.0000000000000000e+00   0.0000000000000000e+00   0.0000000000000000e+00   0.0000000000000000e+00   0.0000000000000000e+00   0.0000000000000000e+00   0.0000000000000000e+00   0.0000000000000000e+00   0.0000000000000000e+00   0.0000000000000000e+00   9.9999999999999334e-01   9.9999999999999412e-01   9.9999999999994971e-01   9.9999999999999467e-01   9.9999999999995537e-01   9.9999999999999478e-01   9.9999999999995770e-01   9.9999999999999445e-01   9.9999999999995703e-01   9.9999999999999389e-01   9.9999999999995270e-01   9.9999999999999245e-01   9.9999999999994327e-01   9.9999999999999067e-01   9.9999999999992839e-01   9.9999999999998890e-01   9.9999999999991018e-01   9.9999999999998856e-01   9.9999999999989908e-01   9.9999999999999056e-01   9.9999999999990685e-01   9.9999999999999400e-01   9.9999999999993383e-01   9.9999999999999734e-01   9.9999999999996636e-01   9.9999999999999922e-01   9.9999999999998868e-01   9.9999999999999989e-01   9.9999999999999767e-01   9.9999999999999978e-01   9.9999999999999944e-01   1.0000000000000000e+00   1.0000000000000000e+00   1.0000000000000000e+00   1.0000000000000000e+00   1.0000000000000000e+00   1.0000000000000000e+00   9.9999999999999978e-01   9.9999999999999978e-01   9.9999999999990552e-01   9.9999999999999512e-01   9.9999999639066173e-01   9.9999999996716882e-01   9.9978801837531051e-01   9.9999901069248887e-01   5.5131519278341767e-01   9.8308617136876553e-01   7.2122022590811097e-04   7.6578828560071990e-02   4.1983915426609581e-07   4.2151678799377347e-05   6.1118506552067698e-10   4.8679754227620726e-08   1.5964451982597436e-12   1.0693033495693760e-10   5.8101671622049854e-15   3.4648210226843429e-13   1.8503717077085938e-17   1.3600232051658168e-15   0.0000000000000000e+00   0.0000000000000000e+00   0.0000000000000000e+00   0.0000000000000000e+00   0.0000000000000000e+00   0.0000000000000000e+00   0.0000000000000000e+00   0.0000000000000000e+00   0.0000000000000000e+00   0.0000000000000000e+00   0.0000000000000000e+00   0.0000000000000000e+00   0.0000000000000000e+00   0.0000000000000000e+00   0.0000000000000000e+00   0.0000000000000000e+00   0.0000000000000000e+00   0.0000000000000000e+00   0.0000000000000000e+00   0.0000000000000000e+00   0.0000000000000000e+00   0.0000000000000000e+00   0.0000000000000000e+00   0.0000000000000000e+00   0.0000000000000000e+00   0.0000000000000000e+00   0.0000000000000000e+00   0.0000000000000000e+00   0.0000000000000000e+00   0.0000000000000000e+00   0.0000000000000000e+00   0.0000000000000000e+00   0.0000000000000000e+00   0.0000000000000000e+00   0.0000000000000000e+00   0.0000000000000000e+00   0.0000000000000000e+00   9.9999999943897766e-01   9.9999999950117069e-01   9.9999998607631246e-01   9.9999999952346263e-01   9.9999998716638361e-01   9.9999999950005602e-01   9.9999998708270077e-01   9.9999999940757378e-01   9.9999998537200296e-01   9.9999999919433413e-01   9.9999998082956509e-01   9.9999999879343349e-01   9.9999997129591212e-01   9.9999999825379637e-01   9.9999995561783461e-01   9.9999999790784200e-01   9.9999993970069811e-01   9.9999999809326512e-01   9.9999993637738271e-01   9.9999999877582491e-01   9.9999995169785083e-01   9.9999999952404250e-01   9.9999997649305583e-01   9.9999999990757382e-01   9.9999999386416083e-01   9.9999999999222200e-01   9.9999999928146166e-01   9.9999999999970568e-01   9.9999999996538425e-01   9.9999999999999256e-01   9.9999999999922218e-01   9.9999999999999967e-01   9.9999999999998668e-01   9.9999999999999989e-01   9.9999999999999956e-01   9.9999999999999989e-01   9.9999999999999989e-01   9.9999999999998967e-01   9.9999999999999922e-01   9.9999999996353373e-01   9.9999999999977773e-01   9.9999947037272796e-01   9.9999999932798367e-01   9.9512627731505698e-01   9.9999505068591943e-01   4.3214522506737579e-01   9.7841954037454371e-01   1.3879596984600247e-03   2.3111167353075718e-01   2.3440439664845773e-06   7.2878134370871206e-04   6.1012366917948900e-09   1.5681528560037201e-06   1.9229997224220100e-11   4.5064676434947160e-09   6.0396132539608516e-14   1.3881099973171256e-11   1.6653345369377346e-16   3.8700524266725246e-14   0.0000000000000000e+00   8.3266726846886753e-17   0.0000000000000000e+00   0.0000000000000000e+00   0.0000000000000000e+00   0.0000000000000000e+00   0.0000000000000000e+00   0.0000000000000000e+00   0.0000000000000000e+00   0.0000000000000000e+00   0.0000000000000000e+00   0.0000000000000000e+00   0.0000000000000000e+00   0.0000000000000000e+00   0.0000000000000000e+00   0.0000000000000000e+00   0.0000000000000000e+00   0.0000000000000000e+00   0.0000000000000000e+00   0.0000000000000000e+00   0.0000000000000000e+00   0.0000000000000000e+00   0.0000000000000000e+00   0.0000000000000000e+00   0.0000000000000000e+00   0.0000000000000000e+00   0.0000000000000000e+00   0.0000000000000000e+00   0.0000000000000000e+00   0.0000000000000000e+00   0.0000000000000000e+00   0.0000000000000000e+00   0.0000000000000000e+00   0.0000000000000000e+00   0.0000000000000000e+00   0.0000000000000000e+00   0.0000000000000000e+00   9.8254433191140311e-01   9.8427811581809699e-01   6.2424590877772335e-01   9.8462411723110388e-01   6.3321794612613558e-01   9.8322670734592332e-01   6.3046525480358007e-01   9.7929328793444037e-01   6.1340215466466408e-01   9.7244950567590083e-01   5.8429478227038201e-01   9.6563569689686435e-01   5.5568281139538078e-01   9.6606610549540095e-01   5.4841636515097825e-01   9.7633559300180772e-01   5.8256512635766089e-01   9.8950770440812763e-01   6.7574181550321089e-01   9.9757551271702471e-01   8.3629478767027177e-01   9.9976858498881127e-01   9.6919835274435584e-01   9.9999232108502367e-01   9.9837901245417604e-01   9.9999991727373505e-01   9.9997360223175513e-01   9.9999999967388842e-01   9.9999986110974692e-01   9.9999999999917843e-01   9.9999999971349518e-01   9.9999999999999478e-01   9.9999999999953504e-01   9.9999999999999967e-01   9.9999999999999722e-01   9.9999999999999922e-01   9.9999999999999978e-01   9.9999999999990585e-01   9.9999999999999778e-01   9.9999999990724908e-01   9.9999999999976685e-01   9.9999980233471797e-01   9.9999999980517640e-01   9.9967288371621177e-01   9.9999971752680217e-01   8.4159545727123330e-01   9.9969836083236618e-01   2.8799681129136789e-01   8.7858027962787810e-01   3.8340006186646882e-03   3.9045936415494986e-01   9.9875493382028929e-06   7.4578708490309524e-03   2.0091313474024372e-08   1.7511337572652844e-05   2.7162568490742465e-11   2.7582187718995972e-08   2.8551235449943605e-14   2.8159872581904710e-11   2.7755575615628910e-17   2.2556031116967760e-14   0.0000000000000000e+00   1.8503717077085938e-17   0.0000000000000000e+00   0.0000000000000000e+00   0.0000000000000000e+00   0.0000000000000000e+00   0.0000000000000000e+00   0.0000000000000000e+00   0.0000000000000000e+00   0.0000000000000000e+00   0.0000000000000000e+00   0.0000000000000000e+00   0.0000000000000000e+00   0.0000000000000000e+00   0.0000000000000000e+00   0.0000000000000000e+00   0.0000000000000000e+00   0.0000000000000000e+00   0.0000000000000000e+00   0.0000000000000000e+00   0.0000000000000000e+00   0.0000000000000000e+00   0.0000000000000000e+00   0.0000000000000000e+00   0.0000000000000000e+00   0.0000000000000000e+00   0.0000000000000000e+00   0.0000000000000000e+00   0.0000000000000000e+00   0.0000000000000000e+00   0.0000000000000000e+00   0.0000000000000000e+00   0.0000000000000000e+00   0.0000000000000000e+00   0.0000000000000000e+00   9.7607784826449662e-04   1.1059438748128960e-03   8.7329121459811532e-06   1.1524516750406240e-03   1.0452632287614540e-05   1.0921364153060977e-03   1.1753077220908830e-05   9.7273388501927438e-04   1.2569917513777229e-05   9.1546728065284666e-04   1.3802216839784814e-05   1.0950968869691546e-03   1.8183094949405138e-05   1.9591120636546309e-03   3.4331702086211787e-05   5.8130790785852864e-03   1.0459501204541458e-04   3.2000767619273174e-02   5.6923502000913451e-04   2.4745139560776139e-01   6.6009705897112723e-03   7.1160895258579293e-01   1.3638724721395265e-01   9.9654265653624186e-01   7.1704806986950942e-01   9.9999567720321314e-01   9.9848296360155353e-01   9.9999999764161596e-01   9.9999925322823291e-01   9.9999999999874434e-01   9.9999999985225918e-01   9.9999999999999711e-01   9.9999999999995459e-01   9.9999999999999978e-01   9.9999999999999978e-01   9.9999999999999944e-01   9.9999999999999989e-01   9.9999999999998890e-01   9.9999999999999956e-01   9.9999999999823452e-01   9.9999999999998890e-01   9.9999999947784157e-01   9.9999999999843758e-01   9.9999983445510510e-01   9.9999999965295072e-01   9.9995133347653775e-01   9.9999992030974805e-01   9.8621484588087482e-01   9.9998182426938043e-01   5.6146751238161430e-01   9.9534289967329503e-01   1.6478554946203866e-01   7.1690368631911516e-01   3.9418166907431712e-04   2.5174519877328644e-01   1.9279787133452686e-07   7.2617851574524606e-04   4.7484840134022946e-11   2.3958367104115469e-07   9.5294142946992598e-15   4.0239987268246097e-11   0.0000000000000000e+00   6.0692192012841872e-15   0.0000000000000000e+00   0.0000000000000000e+00   0.0000000000000000e+00   0.0000000000000000e+00   0.0000000000000000e+00   0.0000000000000000e+00   0.0000000000000000e+00   0.0000000000000000e+00   0.0000000000000000e+00   0.0000000000000000e+00   0.0000000000000000e+00   0.0000000000000000e+00   0.0000000000000000e+00   0.0000000000000000e+00   0.0000000000000000e+00   0.0000000000000000e+00   0.0000000000000000e+00   0.0000000000000000e+00   0.0000000000000000e+00   0.0000000000000000e+00   0.0000000000000000e+00   0.0000000000000000e+00   0.0000000000000000e+00   0.0000000000000000e+00   0.0000000000000000e+00   0.0000000000000000e+00   0.0000000000000000e+00   0.0000000000000000e+00   0.0000000000000000e+00   0.0000000000000000e+00   0.0000000000000000e+00   0.0000000000000000e+00   0.0000000000000000e+00   2.7339704574321408e-12   4.6214051104461386e-12   8.8383004618700995e-14   8.2053623155312981e-12   1.7619239400801234e-13   1.6248160224681858e-11   3.8871683649688288e-13   3.9701852916351754e-11   1.0279554985004324e-12   1.3626092846645102e-10   3.6526059954411494e-12   7.4867766615878872e-10   1.9827038159429357e-11   7.4840023067679323e-09   1.8624295624232917e-10   1.5881011700136225e-07   3.4877436124366069e-09   8.5897710050501283e-06   1.5955620526660513e-07   1.4082629443639598e-03   2.3467835492442988e-05   3.1969356239731783e-01   1.4343242314422253e-02   9.9633805973573031e-01   8.3268792330695252e-01   9.9999917126790594e-01   9.9996054634022202e-01   9.9999999991522726e-01   9.9999999797263572e-01   9.9999999999998335e-01   9.9999999999986389e-01   9.9999999999999956e-01   9.9999999999999956e-01   9.9999999999999967e-01   9.9999999999999967e-01   9.9999999999999967e-01   9.9999999999999967e-01   9.9999999999999956e-01   9.9999999999999967e-01   9.9999999999999234e-01   9.9999999999999944e-01   9.9999999999957156e-01   9.9999999999999312e-01   9.9999999996967270e-01   9.9999999999968792e-01   9.9999999724661137e-01   9.9999999998189160e-01   9.9999962491274219e-01   9.9999999857942146e-01   9.9990657691362861e-01   9.9999982029296264e-01   9.5266463504450838e-01   9.9995477358231144e-01   3.9117819729304265e-01   9.7220058651570429e-01   2.5292337302944739e-03   4.5817225848189902e-01   2.1917833855263538e-07   2.5489081115269980e-03   1.0747541745459442e-11   1.5924790019994362e-07   6.1987452208237904e-16   6.0171034821365781e-12   0.0000000000000000e+00   2.7755575615628914e-16   0.0000000000000000e+00   0.0000000000000000e+00   0.0000000000000000e+00   0.0000000000000000e+00   0.0000000000000000e+00   0.0000000000000000e+00   0.0000000000000000e+00   0.0000000000000000e+00   0.0000000000000000e+00   0.0000000000000000e+00   0.0000000000000000e+00   0.0000000000000000e+00   0.0000000000000000e+00   0.0000000000000000e+00   0.0000000000000000e+00   0.0000000000000000e+00   0.0000000000000000e+00   0.0000000000000000e+00   0.0000000000000000e+00   0.0000000000000000e+00   0.0000000000000000e+00   0.0000000000000000e+00   0.0000000000000000e+00   0.0000000000000000e+00   0.0000000000000000e+00   0.0000000000000000e+00   0.0000000000000000e+00   0.0000000000000000e+00   0.0000000000000000e+00   0.0000000000000000e+00   0.0000000000000000e+00   0.0000000000000000e+00   0.0000000000000000e+00   1.8503717077085938e-17   0.0000000000000000e+00   1.2952601953960160e-16   0.0000000000000000e+00   1.3137639124731022e-15   4.6259292692714846e-17   2.1640097121652009e-14   7.7715611723760958e-16   7.1290195968742874e-13   2.4757973449140991e-14   5.4874965682571997e-11   1.9812947578875155e-12   1.1774150885749771e-08   5.1008418785099729e-10   8.4710768295341091e-06   5.0421194844330042e-07   2.3494560147045724e-02   2.0529898828149651e-03   9.2671708272745057e-01   6.0493780201646430e-01   9.9999387516633209e-01   9.9994240876585383e-01   9.9999999980289545e-01   9.9999999866172273e-01   9.9999999999998623e-01   9.9999999999994083e-01   1.0000000000000000e+00   1.0000000000000000e+00   9.9999999999999989e-01   9.9999999999999989e-01   9.9999999999999989e-01   9.9999999999999989e-01   9.9999999999999989e-01   9.9999999999999989e-01   1.0000000000000000e+00   1.0000000000000000e+00   9.9999999999999944e-01   9.9999999999999989e-01   9.9999999999999623e-01   9.9999999999999978e-01   9.9999999999992051e-01   9.9999999999999567e-01   9.9999999999752442e-01   9.9999999999993172e-01   9.9999999986622734e-01   9.9999999999813705e-01   9.9999998394299550e-01   9.9999999990320099e-01   9.9999425407088927e-01   9.9999998772280907e-01   9.9098958120054315e-01   9.9999491734497359e-01   4.5048411669995281e-01   9.9023236106969781e-01   7.5853842730236299e-04   3.8869148853679958e-01   1.6395503371624542e-08   4.1635250683784891e-04   2.5166905596544587e-13   7.0687861027559267e-09   9.2518585385429707e-18   9.4008134610135130e-14   0.0000000000000000e+00   0.0000000000000000e+00   0.0000000000000000e+00   0.0000000000000000e+00   0.0000000000000000e+00   0.0000000000000000e+00   0.0000000000000000e+00   0.0000000000000000e+00   0.0000000000000000e+00   0.0000000000000000e+00   0.0000000000000000e+00   0.0000000000000000e+00   0.0000000000000000e+00   0.0000000000000000e+00   0.0000000000000000e+00   0.0000000000000000e+00   0.0000000000000000e+00   0.0000000000000000e+00   0.0000000000000000e+00   0.0000000000000000e+00   0.0000000000000000e+00   0.0000000000000000e+00   0.0000000000000000e+00   0.0000000000000000e+00   0.0000000000000000e+00   0.0000000000000000e+00   0.0000000000000000e+00   0.0000000000000000e+00   0.0000000000000000e+00   0.0000000000000000e+00   0.0000000000000000e+00   0.0000000000000000e+00   0.0000000000000000e+00   0.0000000000000000e+00   0.0000000000000000e+00   0.0000000000000000e+00   1.8503717077085938e-17   0.0000000000000000e+00   3.5249581031848724e-15   2.6830389761774615e-16   1.1458426799985468e-12   1.1744309228826444e-13   1.2305240067641181e-09   1.7319778019183238e-10   5.2626617970212078e-06   9.5658980989177224e-07   8.0812021299148010e-02   2.0639108622451947e-02   9.6071988602558611e-01   8.6555175474239532e-01   9.9999903646431820e-01   9.9999612599135024e-01   9.9999999997883060e-01   9.9999999992691080e-01   9.9999999999999745e-01   9.9999999999999267e-01   1.0000000000000000e+00   1.0000000000000000e+00   9.9999999999999989e-01   9.9999999999999989e-01   9.9999999999999989e-01   9.9999999999999989e-01   9.9999999999999989e-01   9.9999999999999989e-01   1.0000000000000000e+00   1.0000000000000000e+00   9.9999999999999989e-01   9.9999999999999989e-01   9.9999999999999978e-01   9.9999999999999978e-01   9.9999999999999900e-01   9.9999999999999944e-01   9.9999999999999567e-01   9.9999999999999867e-01   9.9999999999996070e-01   9.9999999999999512e-01   9.9999999999918754e-01   9.9999999999995992e-01   9.9999999995483368e-01   9.9999999999919742e-01   9.9999999118647720e-01   9.9999999995263988e-01   9.9999260957395464e-01   9.9999998951396896e-01   9.6855404035796555e-01   9.9998951146708870e-01   2.4557706334628129e-01   9.4807526441400281e-01   1.5466461862401190e-05   1.5963525880807070e-01   9.8661532647407528e-11   4.8455786220332380e-06   7.4940054162198066e-16   2.6585150747493458e-11   0.0000000000000000e+00   1.9428902930940237e-16   0.0000000000000000e+00   0.0000000000000000e+00   0.0000000000000000e+00   0.0000000000000000e+00   0.0000000000000000e+00   0.0000000000000000e+00   0.0000000000000000e+00   0.0000000000000000e+00   0.0000000000000000e+00   0.0000000000000000e+00   0.0000000000000000e+00   0.0000000000000000e+00   0.0000000000000000e+00   0.0000000000000000e+00   0.0000000000000000e+00   0.0000000000000000e+00   0.0000000000000000e+00   0.0000000000000000e+00   0.0000000000000000e+00   0.0000000000000000e+00   0.0000000000000000e+00   0.0000000000000000e+00   0.0000000000000000e+00   0.0000000000000000e+00   0.0000000000000000e+00   0.0000000000000000e+00   0.0000000000000000e+00   0.0000000000000000e+00   0.0000000000000000e+00   0.0000000000000000e+00   0.0000000000000000e+00   0.0000000000000000e+00   0.0000000000000000e+00   8.2341540993032437e-16   1.4802973661668753e-16   1.3645473639911643e-12   3.3313167039731678e-13   8.7887262652704603e-09   2.5257657076949158e-09   2.5292237824949443e-04   8.0871441492491578e-05   5.3394200416904614e-01   3.4835930836461665e-01   9.9938835469265419e-01   9.9833274888268064e-01   9.9999999124892403e-01   9.9999997817625008e-01   9.9999999999949296e-01   9.9999999999880085e-01   9.9999999999999944e-01   9.9999999999999856e-01   1.0000000000000000e+00   1.0000000000000000e+00   9.9999999999999989e-01   9.9999999999999956e-01   9.9999999999999956e-01   9.9999999999999900e-01   9.9999999999999833e-01   9.9999999999999389e-01   9.9999999999999623e-01   9.9999999999997646e-01   9.99999999