<?xml version="1.0"?>
<VTKFile type="UnstructuredGrid"  version="0.1"  >
<UnstructuredGrid>
<Piece  NumberOfPoints="2431" NumberOfCells="4624">
<Points>
<DataArray  type="Float64"  NumberOfComponents="3"  format="ascii">1.933043478260869 0.2166666666666667 0  1.941304347826087 0.2166666666666667 0  1.941304347826087 0.225 0  1.933043478260869 0.225 0  1.949565217391304 0.225 0  1.941304347826087 0.2333333333333333 0  1.933043478260869 0.2333333333333333 0  1.949565217391304 0.2333333333333333 0  1.957826086956522 0.225 0  1.957826086956522 0.2333333333333333 0  1.966086956521739 0.225 0  1.966086956521739 0.2333333333333333 0  1.974347826086956 0.225 0  1.974347826086956 0.2333333333333333 0  1.982608695652174 0.225 0  1.982608695652174 0.2333333333333333 0  1.990869565217391 0.225 0  1.990869565217391 0.2333333333333333 0  1.999130434782608 0.2333333333333333 0  1.941304347826087 0.2416666666666667 0  1.949565217391304 0.2416666666666667 0  1.957826086956522 0.2416666666666667 0  1.966086956521739 0.2416666666666667 0  1.974347826086956 0.2416666666666667 0  1.982608695652174 0.2416666666666667 0  1.990869565217391 0.2416666666666667 0  1.999130434782608 0.2416666666666667 0  2.007391304347826 0.2416666666666667 0  1.949565217391304 0.25 0  1.941304347826087 0.25 0  1.957826086956522 0.25 0  1.966086956521739 0.25 0  1.974347826086956 0.25 0  1.982608695652174 0.25 0  1.990869565217391 0.25 0  1.999130434782608 0.25 0  2.007391304347826 0.25 0  2.015652173913043 0.2416666666666667 0  2.015652173913043 0.25 0  2.023913043478261 0.2416666666666667 0  2.023913043478261 0.25 0  2.032173913043478 0.25 0  1.933043478260869 0.25 0  1.941304347826087 0.2583333333333334 0  1.933043478260869 0.2583333333333334 0  1.949565217391304 0.2583333333333334 0  1.957826086956522 0.2583333333333334 0  1.966086956521739 0.2583333333333334 0  1.974347826086956 0.2583333333333334 0  1.982608695652174 0.2583333333333334 0  1.990869565217391 0.2583333333333334 0  1.999130434782608 0.2583333333333334 0  2.007391304347826 0.2583333333333334 0  2.015652173913043 0.2583333333333334 0  2.023913043478261 0.2583333333333334 0  2.032173913043478 0.2583333333333334 0  2.040434782608695 0.25 0  2.040434782608695 0.2583333333333334 0  2.048695652173913 0.25 0  2.048695652173913 0.2583333333333334 0  2.05695652173913 0.25 0  2.05695652173913 0.2583333333333334 0  2.065217391304348 0.25 0  2.065217391304348 0.2583333333333334 0  2.073478260869565 0.25 0  2.073478260869565 0.2583333333333334 0  2.081739130434782 0.25 0  2.081739130434782 0.2583333333333334 0  2.09 0.25 0  2.09 0.2583333333333334 0  2.098260869565217 0.25 0  2.098260869565217 0.2583333333333334 0  2.106521739130435 0.2583333333333334 0  1.941304347826087 0.2666666666666667 0  1.933043478260869 0.2666666666666667 0  1.949565217391304 0.2666666666666667 0  1.957826086956522 0.2666666666666667 0  1.966086956521739 0.2666666666666667 0  1.974347826086956 0.2666666666666667 0  1.982608695652174 0.2666666666666667 0  1.990869565217391 0.2666666666666667 0  1.999130434782608 0.2666666666666667 0  2.007391304347826 0.2666666666666667 0  2.015652173913043 0.2666666666666667 0  2.023913043478261 0.2666666666666667 0  2.032173913043478 0.2666666666666667 0  2.040434782608695 0.2666666666666667 0  2.048695652173913 0.2666666666666667 0  2.05695652173913 0.2666666666666667 0  2.065217391304348 0.2666666666666667 0  2.073478260869565 0.2666666666666667 0  2.081739130434782 0.2666666666666667 0  2.09 0.2666666666666667 0  2.098260869565217 0.2666666666666667 0  2.106521739130435 0.2666666666666667 0  2.114782608695652 0.2666666666666667 0  1.941304347826087 0.275 0  1.933043478260869 0.275 0  1.949565217391304 0.275 0  1.957826086956522 0.275 0  1.966086956521739 0.275 0  1.974347826086956 0.275 0  1.982608695652174 0.275 0  1.990869565217391 0.275 0  1.999130434782608 0.275 0  2.007391304347826 0.275 0  2.015652173913043 0.275 0  2.023913043478261 0.275 0  2.032173913043478 0.275 0  2.040434782608695 0.275 0  2.048695652173913 0.275 0  2.05695652173913 0.275 0  2.065217391304348 0.275 0  2.073478260869565 0.275 0  2.081739130434782 0.275 0  2.09 0.275 0  2.098260869565217 0.275 0  2.106521739130435 0.275 0  2.114782608695652 0.275 0  2.12304347826087 0.275 0  1.941304347826087 0.2833333333333333 0  1.933043478260869 0.2833333333333333 0  1.949565217391304 0.2833333333333333 0  1.957826086956522 0.2833333333333333 0  1.966086956521739 0.2833333333333333 0  1.974347826086956 0.2833333333333333 0  1.982608695652174 0.2833333333333333 0  1.990869565217391 0.2833333333333333 0  1.999130434782608 0.2833333333333333 0  2.007391304347826 0.2833333333333333 0  2.015652173913043 0.2833333333333333 0  2.023913043478261 0.2833333333333333 0  2.032173913043478 0.2833333333333333 0  2.040434782608695 0.2833333333333333 0  2.048695652173913 0.2833333333333333 0  2.05695652173913 0.2833333333333333 0  2.065217391304348 0.2833333333333333 0  2.073478260869565 0.2833333333333333 0  2.081739130434782 0.2833333333333333 0  2.09 0.2833333333333333 0  2.098260869565217 0.2833333333333333 0  2.106521739130435 0.2833333333333333 0  2.114782608695652 0.2833333333333333 0  2.12304347826087 0.2833333333333333 0  2.131304347826087 0.2833333333333333 0  1.941304347826087 0.2916666666666667 0  1.933043478260869 0.2916666666666667 0  1.949565217391304 0.2916666666666667 0  1.957826086956522 0.2916666666666667 0  1.966086956521739 0.2916666666666667 0  1.974347826086956 0.2916666666666667 0  1.982608695652174 0.2916666666666667 0  1.990869565217391 0.2916666666666667 0  1.999130434782608 0.2916666666666667 0  2.007391304347826 0.2916666666666667 0  2.015652173913043 0.2916666666666667 0  2.023913043478261 0.2916666666666667 0  2.032173913043478 0.2916666666666667 0  2.040434782608695 0.2916666666666667 0  2.048695652173913 0.2916666666666667 0  2.05695652173913 0.2916666666666667 0  2.065217391304348 0.2916666666666667 0  2.073478260869565 0.2916666666666667 0  2.081739130434782 0.2916666666666667 0  2.09 0.2916666666666667 0  2.098260869565217 0.2916666666666667 0  2.106521739130435 0.2916666666666667 0  2.114782608695652 0.2916666666666667 0  2.12304347826087 0.2916666666666667 0  2.131304347826087 0.2916666666666667 0  2.139565217391304 0.2916666666666667 0  1.941304347826087 0.3 0  1.933043478260869 0.3 0  1.949565217391304 0.3 0  1.957826086956522 0.3 0  1.966086956521739 0.3 0  1.974347826086956 0.3 0  1.982608695652174 0.3 0  1.990869565217391 0.3 0  1.999130434782608 0.3 0  2.007391304347826 0.3 0  2.015652173913043 0.3 0  2.023913043478261 0.3 0  2.032173913043478 0.3 0  2.040434782608695 0.3 0  2.048695652173913 0.3 0  2.05695652173913 0.3 0  2.065217391304348 0.3 0  2.073478260869565 0.3 0  2.081739130434782 0.3 0  2.09 0.3 0  2.098260869565217 0.3 0  2.106521739130435 0.3 0  2.114782608695652 0.3 0  2.12304347826087 0.3 0  2.131304347826087 0.3 0  2.139565217391304 0.3 0  2.147826086956522 0.2916666666666667 0  2.147826086956522 0.3 0  2.156086956521739 0.2916666666666667 0  2.156086956521739 0.3 0  2.164347826086956 0.2916666666666667 0  2.164347826086956 0.3 0  2.172608695652174 0.2916666666666667 0  2.172608695652174 0.3 0  2.180869565217391 0.2916666666666667 0  2.180869565217391 0.3 0  2.189130434782609 0.2916666666666667 0  2.189130434782609 0.3 0  2.197391304347826 0.2916666666666667 0  2.197391304347826 0.3 0  2.205652173913043 0.2916666666666667 0  2.205652173913043 0.3 0  2.213913043478261 0.2916666666666667 0  2.213913043478261 0.3 0  2.222173913043478 0.2916666666666667 0  2.222173913043478 0.3 0  2.230434782608695 0.2916666666666667 0  2.230434782608695 0.3 0  2.238695652173913 0.2916666666666667 0  2.238695652173913 0.3 0  2.24695652173913 0.3 0  1.941304347826087 0.3083333333333333 0  1.933043478260869 0.3083333333333333 0  1.949565217391304 0.3083333333333333 0  1.957826086956522 0.3083333333333333 0  1.966086956521739 0.3083333333333333 0  1.974347826086956 0.3083333333333333 0  1.982608695652174 0.3083333333333333 0  1.990869565217391 0.3083333333333333 0  1.999130434782608 0.3083333333333333 0  2.007391304347826 0.3083333333333333 0  2.015652173913043 0.3083333333333333 0  2.023913043478261 0.3083333333333333 0  2.032173913043478 0.3083333333333333 0  2.040434782608695 0.3083333333333333 0  2.048695652173913 0.3083333333333333 0  2.05695652173913 0.3083333333333333 0  2.065217391304348 0.3083333333333333 0  2.073478260869565 0.3083333333333333 0  2.081739130434782 0.3083333333333333 0  2.09 0.3083333333333333 0  2.098260869565217 0.3083333333333333 0  2.106521739130435 0.3083333333333333 0  2.114782608695652 0.3083333333333333 0  2.12304347826087 0.3083333333333333 0  2.131304347826087 0.3083333333333333 0  2.139565217391304 0.3083333333333333 0  2.147826086956522 0.3083333333333333 0  2.156086956521739 0.3083333333333333 0  2.164347826086956 0.3083333333333333 0  2.172608695652174 0.3083333333333333 0  2.180869565217391 0.3083333333333333 0  2.189130434782609 0.3083333333333333 0  2.197391304347826 0.3083333333333333 0  2.205652173913043 0.3083333333333333 0  2.213913043478261 0.3083333333333333 0  2.222173913043478 0.3083333333333333 0  2.230434782608695 0.3083333333333333 0  2.238695652173913 0.3083333333333333 0  2.24695652173913 0.3083333333333333 0  2.255217391304348 0.3083333333333333 0  1.941304347826087 0.3166666666666667 0  1.933043478260869 0.3166666666666667 0  1.949565217391304 0.3166666666666667 0  1.957826086956522 0.3166666666666667 0  1.966086956521739 0.3166666666666667 0  1.974347826086956 0.3166666666666667 0  1.982608695652174 0.3166666666666667 0  1.990869565217391 0.3166666666666667 0  1.999130434782608 0.3166666666666667 0  2.007391304347826 0.3166666666666667 0  2.015652173913043 0.3166666666666667 0  2.023913043478261 0.3166666666666667 0  2.032173913043478 0.3166666666666667 0  2.040434782608695 0.3166666666666667 0  2.048695652173913 0.3166666666666667 0  2.05695652173913 0.3166666666666667 0  2.065217391304348 0.3166666666666667 0  2.073478260869565 0.316666666666666
[...]
<CellData  Scalars="rho_bar"> 
<DataArray  type="Float64"  Name="rho_bar"  format="ascii">3.9040952684588086e-07   3.6620848476998096e-06   1.9501619436905024e-07   1.4156394751598435e-05   1.7796403009838021e-04   6.4095620643430317e-07   6.4189167614988260e-06   4.2043344009960292e-08   3.1252604561678637e-07   3.8882904211205256e-09   2.2054408799210285e-08   4.8739601243852369e-10   2.1867180473774312e-09   7.9839079791810276e-11   2.9257329892118383e-10   1.6545117128193484e-11   5.0911367714216288e-11   1.1153633572291713e-11   7.6503005339614871e-04   2.5207228032934448e-05   3.2438534609846586e-04   1.0475702444945340e-06   1.1101458857049055e-05   6.3526782889677960e-08   4.9802968905369559e-07   5.5090019213110972e-09   3.2669460729254744e-08   6.5559229341557089e-10   3.0527348796975210e-09   1.0302615242411646e-10   3.8953080575924553e-10   2.0665663624797058e-11   6.5300117165397393e-11   1.3900954461594972e-11   1.3700884018702419e-03   1.4686627751445492e-02   4.3968844818100455e-05   5.7133168341182638e-04   1.6965149268373858e-06   1.8847445417432183e-05   9.5787907642789617e-08   7.8797111344175484e-07   7.8340694672126217e-09   4.8401322598016604e-08   8.8974259441580292e-10   4.2877485358546385e-09   1.3483716920781322e-10   5.2471978613984547e-10   2.6315921664021870e-11   8.5223152609022674e-11   6.4093637804537236e-12   1.7727837716326657e-11   1.8943272876252122e-12   4.5761080110414338e-12   1.4255356154772402e-12   3.8338138060021804e-01   7.1700158347414955e-01   5.0832984267602008e-02   2.4903765322797539e-01   2.3600225690121237e-03   2.3732346443519188e-02   7.5065213488230905e-05   9.7367520910316828e-04   2.7269538408110838e-06   3.1486936129143668e-05   1.4447695287356240e-07   1.2422271848389072e-06   1.1215129982108019e-08   7.1971101282356923e-08   1.2236517910046989e-09   6.0852136292884536e-09   1.8006323284266073e-10   7.1949648091281457e-10   3.4421678470527217e-11   1.1407582286201058e-10   8.2661377742709922e-12   2.3347546118657205e-11   2.4207672903268462e-12   5.9632576654422589e-12   8.4255750524657011e-13   1.8455699931270914e-12   3.4095874272092428e-13   6.7493233224524849e-13   1.5750363976015557e-13   2.8562337680189874e-13   8.1851192490489716e-14   1.3747336602421008e-13   4.7267745273416059e-14   7.4246164771807382e-14   3.0068540250264673e-14   4.4519943287468784e-14   2.0946207731261292e-14   2.9420910152566661e-14   1.5913196686293918e-14   2.1344037648418647e-14   1.6903145549918018e-14   8.4257143817688229e-01   9.3640547204780267e-01   4.6792762799334303e-01   7.7479558293363093e-01   7.6972111512732297e-02   3.2296578561611794e-01   3.9329412124928910e-03   3.6846201134112494e-02   1.2618680592077494e-04   1.6186836324563845e-03   4.3711104951715843e-06   5.2134005110051270e-05   2.1888679048916645e-07   1.9603653665008686e-06   1.6260382669959966e-08   1.0795854872106922e-07   1.7205018058389744e-09   8.7992588493346380e-09   2.4809591418299242e-10   1.0159923550615941e-09   4.6813562285900450e-11   1.5873379462701592e-10   1.1149146420900521e-11   3.2193192556206915e-11   3.2484015477507471e-12   8.1755065680274242e-12   1.1277182891215416e-12   2.5216032965384272e-12   4.5645894471609480e-13   9.2114279167295418e-13   2.1167327150332473e-13   3.9053945262897608e-13   1.1092053201859174e-13   1.8915424782051115e-13   6.5031313667418570e-14   1.0340802288529482e-13   4.2364260247988282e-14   6.3291964262172495e-14   3.0494125743037648e-14   4.3095157072533181e-14   2.4230617512444054e-14   3.2566542055671275e-14   2.7302234547240319e-14   9.5872754429902396e-01   9.7446016136496294e-01   8.7486674472336690e-01   9.4769390095044193e-01   5.4860356695726598e-01   8.2099058478023623e-01   1.1171603340933875e-01   4.0144735470412918e-01   6.3950526404022642e-03   5.5306207304261341e-02   2.0982839517642396e-04   2.6415486526979739e-03   7.0059061923200011e-06   8.5659418358659741e-05   3.3539396210313665e-07   3.1061603174564749e-06   2.4179887878987106e-08   1.6512838741748292e-07   2.5143358321303814e-09   1.3189400460689178e-08   3.5899212306548632e-10   1.5072434226640996e-09   6.7324072243006139e-11   2.3414301978756207e-10   1.5963600811611900e-11   4.7291559557294275e-11   4.6361525729565780e-12   1.1966196552156331e-11   1.6070663318619917e-12   3.6804448377836276e-12   6.5147887085004226e-13   1.3436104081184421e-12   3.0408083458629197e-13   5.7167233909657053e-13   1.6156520565857598e-13   2.7969293547869266e-13   9.6922470049776229e-14   1.5587531265737205e-13   6.5373632433344664e-14   9.8365759981788933e-14   4.9432680171435114e-14   7.0064324712385963e-14   4.1901667321061137e-14   5.6297559207033996e-14   5.1098014708372855e-14   9.7820266977681836e-01   9.7766559713506296e-01   9.6504420688861370e-01   9.7713200211220297e-01   8.9985381744381199e-01   9.5654007908151173e-01   6.2246367962326310e-01   8.5714851753809806e-01   1.5581708653180509e-01   4.8051978758617275e-01   1.0151479810310277e-02   8.0206961503786256e-02   3.4430466896536376e-04   4.2143183780871682e-03   1.1302301857067196e-05   1.3960519428392792e-04   5.2972293806963243e-07   5.0169006069097007e-06   3.7827834263130348e-08   2.6470528950254640e-07   3.9204193872747587e-09   2.1129657236847652e-08   5.5854143532485544e-10   2.4161177503145849e-09   1.0440379116793969e-10   3.7476389584216006e-10   2.4642306713692135e-11   7.5367924864030098e-11   7.1235147410438555e-12   1.8957289441938019e-11   2.4632610765943744e-12   5.8003879477297492e-12   1.0011251087386583e-12   2.1145400245596124e-12   4.7225186724138766e-13   9.0492428365488848e-13   2.5640600753718000e-13   4.5009366604157732e-13   1.5945578191178818e-13   2.5859869801081469e-13   1.1334451895569001e-13   1.7113162738742945e-13   9.2111503609733855e-14   1.3039569424222469e-13   8.5792484227909022e-14   1.1462127543400893e-13   1.1668443988810400e-13   9.7482432155264476e-01   9.5743342843122847e-01   9.7992787981289609e-01   9.7836030379184979e-01   9.7003010264885225e-01   9.7935333917176304e-01   9.1883951594118551e-01   9.6326721738690368e-01   6.8708061355144123e-01   8.8474719861852102e-01   2.0858915883217860e-01   5.5589860072771580e-01   1.5731216284614713e-02   1.1239547191967411e-01   5.6510824707198281e-04   6.6425624665445177e-03   1.8968095208377063e-05   2.3311706692286113e-04   8.9882126407444205e-07   8.6697061313275244e-06   6.4759737850028682e-08   4.6674177169488616e-07   6.7395784786317161e-09   3.7671633877171372e-08   9.5816027334549899e-10   4.3158518148178632e-09   1.7776372966219860e-10   6.6522517124430678e-10   4.1527744206367372e-11   1.3221967964938136e-10   1.1891830113223521e-11   3.2821948862486293e-11   4.0939844107394216e-12   9.9435552384600620e-12   1.6720976455294107e-12   3.6186609264632364e-12   8.0344064734561046e-13   1.5660620948191694e-12   4.5212907492005674e-13   8.0142374218420816e-13   2.9750276316538792e-13   4.8390920899995170e-13   2.2912227670701683e-13   3.4486302702418940e-13   2.0716761639505429e-13   2.9085067687617554e-13   2.2104540420286877e-13   2.9167409228610579e-13   3.5012733453262039e-13   9.3795770133152279e-01   8.4141669035312361e-01   9.7497533520211577e-01   9.5593084849247512e-01   9.8123870254594547e-01   9.7877878042682487e-01   9.7371349118746364e-01   9.8090543646937989e-01   9.3294530479177296e-01   9.6814125317568067e-01   7.4180030081422565e-01   9.0561440579373953e-01   2.7011937468829739e-01   6.2642059421132967e-01   2.4503598302537045e-02   1.5536226944818249e-01   9.8251484595666527e-04   1.0906341152793314e-02   3.5429792376371727e-05   4.3035268625650974e-04   1.7376165064216435e-06   1.7243727293290534e-05   1.2687354354149849e-07   9.5758079085572788e-07   1.3179149401428471e-08   7.7727810428770082e-08   1.8486207749764589e-09   8.8061763992008984e-09   3.3609877843806179e-10   1.3276367690403157e-09   7.6867281058786372e-11   2.5696495857078610e-10   2.1661163603544284e-11   6.2279995975226653e-11   7.4217484010337882e-12   1.8600741317579653e-11   3.0682493582882383e-12   6.7825004871717031e-12   1.5251966356544250e-12   3.0063544246653862e-12   9.1122479931963624e-13   1.6184646215814772e-12   6.5558669604115534e-13   1.0599576771852530e-12   5.7025680474017345e-13   8.4758126443299915e-13   6.0332294715692589e-13   8.3217691996632490e-13   7.8276274351196712e-13   1.0110431010919764e-12   1.2589003913395426e-12   1.5356697395200559e-12   2.5449734912067864e-12   2.9551083802203960e-12   6.5813835862608552e-12   7.3266022878234139e-12   2.2252681179206024e-11   2.3900529703505913e-11   1.0106786703841433e-10   1.0528286575883788e-10   6.3750254149693362e-10   6.4658578491361161e-10   5.8185451179415562e-09   5.7577361304665240e-09   8.0697733837823816e-08   7.7880999677093525e-08   1.7703543008137006e-06   1.6604092945478790e-06   5.8015662677416812e-05   5.2580800728896398e-05   2.1722443921805288e-03   1.9084523626935474e-03   5.5785716052890053e-02   4.8834044980110389e-02   3.8084092687120202e-01   7.3349351105774840e-01   4.0031888663185211e-01   9.3402701978337077e-01   8.2843661758333353e-01   9.7445267780562772e-01   9.5308931254878038e-01   9.8185130952622135e-01   9.7834756933892286e-01   9.7619753481585858e-01   9.8164169415318192e-01   9.4351681108207175e-01   9.7155351670679757e-01   7.8942022294248315e-01   9.2207972368115065e-01   3.4607186067194301e-01   6.9554844813552086e-01   4.0677470224773131e-02   2.1930130450213531e-01   1.9616463012616849e-03   1.9992492011763601e-02   7.9427631550240351e-05   9.4871865757669370e-04   4.0506513305689981e-06   4.2105320254790905e-05   2.9500789708314389e-07   2.3913500387754793e-06   2.9894014578572374e-08   1.9038989593211941e-07   4.0403436614896078e-09   2.0728773160912570e-08   7.0544218614780182e-10   2.9776359248649239e-09   1.5582352075327329e-10   5.5021777874605036e-10   4.3019763677302590e-11   1.2885919183543620e-10   1.4759943267605997e-11   3.7982135954924485e-11   6.2847134903639341e-12   1.4066294425537277e-11   3.3258025962841978e-12   6.5549325226991600e-12   2.1948276529570884e-12   3.8570258098502588e-12   1.8155662158865965e-12   2.8800202963215814e-12   1.8956317996791479e-12   2.7470988446983349e-12   2.5214737705188867e-12   3.3766138033778751e-12   4.3245129699442957e-12   5.4099225099690800e-12   9.7114261077280210e-12   1.1465374945747921e-11   2.9110889624798629e-11   3.2742928738708597e-11   1.1927312841090540e-10   1.2891021583527623e-10   6.8749788269724895e-10   7.1933625722664395e-10   5.7717656024950787e-09   5.8811921166412906e-09   7.3427743709405189e-08   7.3149030425471563e-08   1.4548112986697192e-06   1.4183912854515152e-06   4.2342757270478592e-05   4.0269040426865757e-05   1.4434225234567508e-03   1.3329255364412380e-03   3.7661363689372777e-02   3.4090560765598535e-02   3.3597092619639124e-01   3.1250648750957133e-01   7.8243923572009022e-01   7.6817574136933486e-01   9.4087071489291230e-01   2.1449601393421711e-01   4.0213463962020066e-02   7.0609902215063947e-01   3.6475882156510614e-01   9.2619025698481339e-01   8.0470856465465535e-01   9.7241927114529236e-01   9.4662457347255247e-01   9.8157224832754419e-01   9.7652819859169349e-01   9.7772428255626131e-01   9.8152847691817846e-01   9.5204068268570474e-01   9.7400069750977136e-01   8.3401271700660984e-01   9.3626518595317620e-01   4.4629754569762681e-01   7.6618068441264853e-01   7.4936573338981072e-02   3.2021945381179806e-01   4.7358713208320502e-03   4.2160948588831321e-02   2.2376666009639917e-04   2.5800445209304143e-03   1.1785144355310386e-05   1.2981216367147225e-04   8.2611865272660077e-07   7.4017934411178395e-06   7.8520229633098181e-08   5.5392219986775525e-07   9.8858859987061043e-09   5.5567761401513057e-08   1.6189529254232826e-09   7.3597581455124129e-09   3.4184372924942862e-10   1.2738902988029825e-09   9.2896255502831604e-11   2.8754581123576405e-10   3.2563525949787709e-11   8.4898800952378448e-11   1.4787587820919163e-11   3.2963048957057608e-11   8.7461241952505994e-12   1.6931576511206958e-11   6.7802060262541423e-12   1.1580060984191701e-11   6.9440286853961230e-12   1.0625056390267676e-11   9.4923513493938620e-12   1.3204465298954921e-11   1.7552320707991959e-11   2.2508994668157818e-11   4.4658462113507858e-11   5.3496734819802347e-11   1.5969987369561061e-10   1.8093584038444046e-10   8.2363813917278170e-10   8.9280756861616848e-10   6.3165807862031212e-09   6.6189625169688096e-09   7.4495722553654316e-08   7.6120750878520395e-08   1.3749852204221950e-06   1.3788693761137196e-06   3.6929055686881408e-05   3.6444875007100412e-05   1.1521588854478870e-03   1.1159792568824311e-03   2.8673993256222541e-02   2.7209847883970500e-02   2.8109962970733793e-01   2.6710016253388669e-01   7.3599430863566428e-01   7.2306190311424068e-01   9.3294293362005687e-01   9.2980176593420250e-01   9.6982560569946286e-01   9.6916855147402658e-01   9.6849000987652734e-01   9.6892990222934294e-01   9.2385718662043348e-01   9.2793268453664035e-01   6.8741156870058506e-01   7.1125396658502271e-01   2.0929779268480472e-01   2.3995359527368526e-01   1.4485709988234051e-02   1.7909275032378696e-02   4.0035514901504165e-04   4.9959801412431237e-04   9.2863602860112307e-06   1.1353895316664388e-05   2.8008535069012923e-07   3.3373480927874821e-07   1.3431728803266676e-08   1.5679195821312802e-08   1.0202859575721612e-09   1.1717750011038443e-09   1.1522645800473209e-10   1.3053524927642010e-10   1.8213403008005009e-11   2.0384684680981507e-11   3.8287058708637776e-12   4.2379248258820723e-12   1.0253372225340253e-12   1.1232866488815796e-12   3.3734126603235397e-13   3.6600352378476002e-13   1.3225531780847185e-13   1.4215480644471281e-13   6.0192591651760591e-14   6.4133883389179897e-14   3.1123252123658572e-14   3.2871853387443187e-14   1.7957857423311917e-14   1.8809028408857869e-14   1.1398289719484946e-14   1.1823875212257922e-14   7.8455760406844432e-15   8.0768725041480170e-15   5.8286708792820742e-15   5.9396931817445899e-15   4.6166774107329445e-15   4.6629367034256590e-15   3.9042843032651359e-15   3.8950324447265927e-15   3.4972025275692447e-15   3.4231876592609008e-15   3.3121653567983851e-15   3.2103949128744127e-15   3.3306690738754712e-15   3.1641356201816973e-15   3.5342099617234164e-15   3.2936616397212998e-15   3.9597954544963930e-15   3.6082248300317603e-15   4.7184478546569185e-15   4.1910919179599675e-15   5.9581968988216755e-15   5.1440333474298938e-15   8.0861243626865610e-15   6.7446048745978299e-15   1.1796119636642291e-14   9.4553994263909202e-15   1.8698006106395353e-14   1.4294121442048897e-14   3.2557290197132728e-14   2.3564483697668957e-14   6.3208697535325608e-14   4.2891616184685237e-14   1.3921271542945615e-13   8.7494826199000920e-14   3.5523436044589606e-13   2.0392946590656429e-13   1.0764814965350908e-12   5.5534280877604211e-13   3.9893551425270378e-12   1.8141784371058147e-12   1.8723171161620192e-11   7.3368070877914273e-12   3.8137474659786617e-11   1.3128415510644727e-02   1.2278101283465705e-03   1.8039305442776291e-01   3.1320618147223624e-02   6.5546801733549298e-01   3.0555876769312557e-01   9.1024670787698292e-01   7.5920606107804167e-01   9.6797183660695374e-01   9.3376282897140483e-01   9.8027444675794451e-01   9.7274044405267790e-01   9.7859382044888832e-01   9.8057783590203529e-01   9.5961292186385827e-01   9.7591597509120676e-01   8.7656058222742472e-01   9.4916792766943103e-01   5.7366066299494312e-01   8.3448940553569340e-01   1.4929742997103809e-01   4.6761417022883639e-01   1.3605426044630652e-02   9.7573138969368978e-02   7.7976359471296263e-04   8.3107895863877967e-03   4.2264467800090542e-05   4.8664612199262729e-04   2.7291050711345903e-06   2.7498632733722706e-05   2.3140747085204094e-07   1.8462629936914323e-06   2.6143620139122244e-08   1.6258868843858456e-07   3.9429772132522832e-09   1.9251392128586775e-08   7.9839465594311372e-10   3.0983786739972422e-09   2.1884813405925751e-10   6.8581584855564901e-10   8.1896461834318795e-11   2.1115230860087791e-10   4.2159220559057102e-11   9.1269899045916756e-11   3.0075876974085736e-11   5.5811281522248191e-11   2.9985884146081318e-11   4.8659187790178768e-11   4.2245438628777788e-11   6.1092344146492447e-11   8.5350680227117972e-11   1.1197771413821543e-10   2.5205195338292213e-10   3.0514900791385945e-10   1.1140308120438653e-09   1.2649080856815457e-09   7.5789109987844971e-09   8.1947529965524094e-09   8.1771338996302288e-08   8.5373927945683017e-08   1.4142718921713231e-06   1.4427449761267314e-06   3.6030593982883121e-05   3.6217807784076183e-05   1.0640115665866983e-03   1.0575863381877182e-03   2.5134588756236840e-02   2.4682363235869514e-02   2.5051245461785498e-01   2.4432738484388336e-01   6.9973731791682170e-01   6.9128976751134275e-01   9.2203550610716900e-01   9.1933714978032510e-01   9.6726860659815517e-01   9.6649394408901401e-01   9.6934245978086597e-01   9.6929245167115807e-01   9.3509246043597460e-01   9.3687315911058244e-01   7.5129967973973788e-01   7.6436926678509165e-01   2.9153555102806661e-01   3.1878069482957844e-01   2.8149788405109184e-02   3.3523177426284023e-02   9.0262998425782136e-04   1.1147100757780142e-03   2.0851313474336743e-05   2.5692296527953437e-05   5.7112591421900271e-07   6.8924998736230634e-07   2.4500219732622372e-08   2.8969508856594820e-08   1.7027669182064413e-09   1.9797540181295176e-09   1.7960991952984775e-10   2.0591326791811573e-10   2.6885604853532651e-11   3.0452557142623972e-11   5.4017993781722404e-12   6.0532597453052046e-12   1.3915442872066334e-12   1.5442924716779781e-12   4.4244237903020210e-13   4.8664775912736045e-13   1.6818953637217276e-13   1.8346435481930722e-13   7.4431201942578249e-14   8.0528176719478063e-14   3.7488530798176134e-14   4.0254836501200491e-14   2.1075733750800899e-14   2.2463512531582345e-14   1.3045120539345594e-14   1.3794521080967579e-14   8.7522581774616549e-15   9.2055992458502600e-15   6.3190193818248522e-15   6.5965751379811413e-15   4.8757294498121487e-15   5.0515147620444646e-15   3.9875510301120219e-15   4.0800696154974511e-15   3.4416913763379865e-15   3.4786988104921586e-15   3.1363800445660684e-15   3.1363800445660684e-15   2.9883503079493806e-15   2.9513428737952089e-15   2.9976021664879242e-15   2.9143354396410379e-15   3.1548837616431549e-15   3.0161058835650099e-15   3.4972025275692451e-15   3.2936616397212994e-15   4.0893214740359943e-15   3.7562545666484481e-15   5.0422629035059214e-15   4.5149069668089728e-15   6.6058269965196854e-15   5.7361522938966450e-15   9.2241029629273480e-15   7.7253018796833851e-15   1.3840780373660292e-14   1.1120733963328657e-14   2.2537527399890690e-14   1.7282471749998279e-14   4.0365858803663006e-14   2.9254376698872887e-14   8.0666954597556220e-14   5.4669232104250450e-14   1.8330707322415201e-13   1.1483406818039540e-13   4.8402023130241442e-13   2.7626049596089324e-13   1.5245119981225729e-12   7.7936731142832179e-13   5.9092268115771674e-12   2.6520174944977283e-12   2.9267246034099997e-11   1.1257023091459934e-11   6.2075465138515109e-11   3.3708529187417862e-04   2.7437691462212098e-05   9.1704180365349934e-03   8.3173385274110145e-04   1.3227580818833359e-01   2.0313644910754589e-02   5.7067440349557441e-01   2.2499386202099064e-01   8.8048148433816953e-01   6.8188859365441901e-01   9.5982197635879496e-01   9.1028748193826625e-01   9.7777701935443162e-01   9.6606846684438286e-01   9.7902187113081263e-01   9.7872847310974398e-01   9.6655623888188735e-01   9.7750850809852174e-01   9.1393842008146553e-01   9.6055039630606176e-01   7.1107849346744645e-01   8.9163703187297005e-01   2.9030931090352480e-01   6.4002756022273022e-01   4.2024275363121207e-02   2.1786498760537254e-01   3.0406803965728119e-03   2.7956112354423485e-02   1.7097964474395905e-04   1.9593062616107739e-03   9.8902599640349249e-06   1.1002226254119847e-04   7.1471641390393402e-07   6.4561634829651852e-06   7.0520735427163485e-08   4.8122933478852091e-07   9.8197307970190013e-09   5.0350353201592929e-08   1.9688655705785156e-09   7.7061986791804349e-09   5.76665030