<?xml version="1.0"?>
<VTKFile type="UnstructuredGrid"  version="0.1"  >
<UnstructuredGrid>
<Piece  NumberOfPoints="2404" NumberOfCells="4573">
<Points>
<DataArray  type="Float64"  NumberOfComponents="3"  format="ascii">0 0 0  0.008260869565217391 0 0  0.008260869565217391 0.008333333333333333 0  0 0.008333333333333333 0  0.01652173913043478 0 0  0.01652173913043478 0.008333333333333333 0  0.02478260869565217 0 0  0.02478260869565217 0.008333333333333333 0  0.03304347826086956 0 0  0.03304347826086956 0.008333333333333333 0  0.04130434782608695 0 0  0.04130434782608695 0.008333333333333333 0  0.04956521739130434 0 0  0.04956521739130434 0.008333333333333333 0  0.05782608695652174 0 0  0.05782608695652174 0.008333333333333333 0  0.06608695652173913 0 0  0.06608695652173913 0.008333333333333333 0  0.07434782608695652 0 0  0.07434782608695652 0.008333333333333333 0  0.08260869565217391 0 0  0.08260869565217391 0.008333333333333333 0  0.0908695652173913 0 0  0.0908695652173913 0.008333333333333333 0  0.09913043478260869 0 0  0.09913043478260869 0.008333333333333333 0  0.1073913043478261 0 0  0.1073913043478261 0.008333333333333333 0  0.1156521739130435 0 0  0.1156521739130435 0.008333333333333333 0  0.1239130434782609 0 0  0.1239130434782609 0.008333333333333333 0  0.1321739130434783 0 0  0.1321739130434783 0.008333333333333333 0  0.1404347826086956 0 0  0.1404347826086956 0.008333333333333333 0  0.148695652173913 0 0  0.148695652173913 0.008333333333333333 0  0.1569565217391304 0 0  0.1569565217391304 0.008333333333333333 0  0.1652173913043478 0 0  0.1652173913043478 0.008333333333333333 0  0.1734782608695652 0 0  0.1734782608695652 0.008333333333333333 0  0.1817391304347826 0 0  0.1817391304347826 0.008333333333333333 0  0.19 0 0  0.19 0.008333333333333333 0  0.1982608695652174 0 0  0.1982608695652174 0.008333333333333333 0  0.2065217391304348 0 0  0.2065217391304348 0.008333333333333333 0  0.2147826086956522 0 0  0.2147826086956522 0.008333333333333333 0  0.2230434782608696 0 0  0.2230434782608696 0.008333333333333333 0  0.2313043478260869 0 0  0.2313043478260869 0.008333333333333333 0  0.2395652173913043 0 0  0.2395652173913043 0.008333333333333333 0  0.2478260869565218 0 0  0.2478260869565218 0.008333333333333333 0  0.2560869565217391 0 0  0.2560869565217391 0.008333333333333333 0  0.2643478260869565 0 0  0.2643478260869565 0.008333333333333333 0  0.2726086956521739 0 0  0.2726086956521739 0.008333333333333333 0  0.2808695652173913 0 0  0.2808695652173913 0.008333333333333333 0  0.2891304347826087 0 0  0.2891304347826087 0.008333333333333333 0  0.2973913043478261 0 0  0.2973913043478261 0.008333333333333333 0  0.3056521739130434 0 0  0.3056521739130434 0.008333333333333333 0  0.008260869565217391 0.01666666666666667 0  0 0.01666666666666667 0  0.01652173913043478 0.01666666666666667 0  0.02478260869565217 0.01666666666666667 0  0.03304347826086956 0.01666666666666667 0  0.04130434782608695 0.01666666666666667 0  0.04956521739130434 0.01666666666666667 0  0.05782608695652174 0.01666666666666667 0  0.06608695652173913 0.01666666666666667 0  0.07434782608695652 0.01666666666666667 0  0.08260869565217391 0.01666666666666667 0  0.0908695652173913 0.01666666666666667 0  0.09913043478260869 0.01666666666666667 0  0.1073913043478261 0.01666666666666667 0  0.1156521739130435 0.01666666666666667 0  0.1239130434782609 0.01666666666666667 0  0.1321739130434783 0.01666666666666667 0  0.1404347826086956 0.01666666666666667 0  0.148695652173913 0.01666666666666667 0  0.1569565217391304 0.01666666666666667 0  0.1652173913043478 0.01666666666666667 0  0.1734782608695652 0.01666666666666667 0  0.1817391304347826 0.01666666666666667 0  0.19 0.01666666666666667 0  0.1982608695652174 0.01666666666666667 0  0.2065217391304348 0.01666666666666667 0  0.2147826086956522 0.01666666666666667 0  0.2230434782608696 0.01666666666666667 0  0.2313043478260869 0.01666666666666667 0  0.2395652173913043 0.01666666666666667 0  0.2478260869565218 0.01666666666666667 0  0.2560869565217391 0.01666666666666667 0  0.2643478260869565 0.01666666666666667 0  0.2726086956521739 0.01666666666666667 0  0.2808695652173913 0.01666666666666667 0  0.2891304347826087 0.01666666666666667 0  0.2973913043478261 0.01666666666666667 0  0.3056521739130434 0.01666666666666667 0  0.3139130434782609 0.01666666666666667 0  0.008260869565217391 0.025 0  0 0.025 0  0.01652173913043478 0.025 0  0.02478260869565217 0.025 0  0.03304347826086956 0.025 0  0.04130434782608695 0.025 0  0.04956521739130434 0.025 0  0.05782608695652174 0.025 0  0.06608695652173913 0.025 0  0.07434782608695652 0.025 0  0.08260869565217391 0.025 0  0.0908695652173913 0.025 0  0.09913043478260869 0.025 0  0.1073913043478261 0.025 0  0.1156521739130435 0.025 0  0.1239130434782609 0.025 0  0.1321739130434783 0.025 0  0.1404347826086956 0.025 0  0.148695652173913 0.025 0  0.1569565217391304 0.025 0  0.1652173913043478 0.025 0  0.1734782608695652 0.025 0  0.1817391304347826 0.025 0  0.19 0.025 0  0.1982608695652174 0.025 0  0.2065217391304348 0.025 0  0.2147826086956522 0.025 0  0.2230434782608696 0.025 0  0.2313043478260869 0.025 0  0.2395652173913043 0.025 0  0.2478260869565218 0.025 0  0.2560869565217391 0.025 0  0.2643478260869565 0.025 0  0.2726086956521739 0.025 0  0.2808695652173913 0.025 0  0.2891304347826087 0.025 0  0.2973913043478261 0.025 0  0.3056521739130434 0.025 0  0.3139130434782609 0.025 0  0.3221739130434783 0.01666666666666667 0  0.3221739130434783 0.025 0  0.3304347826086956 0.025 0  0.008260869565217391 0.03333333333333333 0  0 0.03333333333333333 0  0.01652173913043478 0.03333333333333333 0  0.02478260869565217 0.03333333333333333 0  0.03304347826086956 0.03333333333333333 0  0.04130434782608695 0.03333333333333333 0  0.04956521739130434 0.03333333333333333 0  0.05782608695652174 0.03333333333333333 0  0.06608695652173913 0.03333333333333333 0  0.07434782608695652 0.03333333333333333 0  0.08260869565217391 0.03333333333333333 0  0.0908695652173913 0.03333333333333333 0  0.09913043478260869 0.03333333333333333 0  0.1073913043478261 0.03333333333333333 0  0.1156521739130435 0.03333333333333333 0  0.1239130434782609 0.03333333333333333 0  0.1321739130434783 0.03333333333333333 0  0.1404347826086956 0.03333333333333333 0  0.148695652173913 0.03333333333333333 0  0.1569565217391304 0.03333333333333333 0  0.1652173913043478 0.03333333333333333 0  0.1734782608695652 0.03333333333333333 0  0.1817391304347826 0.03333333333333333 0  0.19 0.03333333333333333 0  0.1982608695652174 0.03333333333333333 0  0.2065217391304348 0.03333333333333333 0  0.2147826086956522 0.03333333333333333 0  0.2230434782608696 0.03333333333333333 0  0.2313043478260869 0.03333333333333333 0  0.2395652173913043 0.03333333333333333 0  0.2478260869565218 0.03333333333333333 0  0.2560869565217391 0.03333333333333333 0  0.2643478260869565 0.03333333333333333 0  0.2726086956521739 0.03333333333333333 0  0.2808695652173913 0.03333333333333333 0  0.2891304347826087 0.03333333333333333 0  0.2973913043478261 0.03333333333333333 0  0.3056521739130434 0.03333333333333333 0  0.3139130434782609 0.03333333333333333 0  0.3221739130434783 0.03333333333333333 0  0.3304347826086956 0.03333333333333333 0  0.338695652173913 0.025 0  0.338695652173913 0.03333333333333333 0  0.3469565217391304 0.03333333333333333 0  0.008260869565217391 0.04166666666666666 0  0 0.04166666666666666 0  0.01652173913043478 0.04166666666666666 0  0.02478260869565217 0.04166666666666666 0  0.03304347826086956 0.04166666666666666 0  0.04130434782608695 0.04166666666666666 0  0.04956521739130434 0.04166666666666666 0  0.05782608695652174 0.04166666666666666 0  0.06608695652173913 0.04166666666666666 0  0.07434782608695652 0.04166666666666666 0  0.08260869565217391 0.04166666666666666 0  0.0908695652173913 0.04166666666666666 0  0.09913043478260869 0.04166666666666666 0  0.1073913043478261 0.04166666666666666 0  0.1156521739130435 0.04166666666666666 0  0.1239130434782609 0.04166666666666666 0  0.1321739130434783 0.04166666666666666 0  0.1404347826086956 0.04166666666666666 0  0.148695652173913 0.04166666666666666 0  0.1569565217391304 0.04166666666666666 0  0.1652173913043478 0.04166666666666666 0  0.1734782608695652 0.04166666666666666 0  0.1817391304347826 0.04166666666666666 0  0.19 0.04166666666666666 0  0.1982608695652174 0.04166666666666666 0  0.2065217391304348 0.04166666666666666 0  0.2147826086956522 0.04166666666666666 0  0.2230434782608696 0.04166666666666666 0  0.2313043478260869 0.04166666666666666 0  0.2395652173913043 0.04166666666666666 0  0.2478260869565218 0.04166666666666666 0  0.2560869565217391 0.04166666666666666 0  0.2643478260869565 0.04166666666666666 0  0.2726086956521739 0.04166666666666666 0  0.2808695652173913 0.04166666666666666 0  0.2891304347826087 0.04166666666666666 0  0.2973913043478261 0.04166666666666666 0  0.3056521739130434 0.04166666666666666 0  0.3139130434782609 0.04166666666666666 0  0.3221739130434783 0.04166666666666666 0  0.3304347826086956 0.04166666666666666 0  0.338695652173913 0.04166666666666666 0  0.3469565217391304 0.04166666666666666 0  0.3552173913043478 0.03333333333333333 0  0.3552173913043478 0.04166666666666666 0  0.3634782608695652 0.04166666666666666 0  0.008260869565217391 0.05 0  0 0.05 0  0.01652173913043478 0.05 0  0.02478260869565217 0.05 0  0.03304347826086956 0.05 0  0.04130434782608695 0.05 0  0.04956521739130434 0.05 0  0.05782608695652174 0.05 0  0.06608695652173913 0.05 0  0.07434782608695652 0.05 0  0.08260869565217391 0.05 0  0.0908695652173913 0.05 0  0.09913043478260869 0.05 0  0.1073913043478261 0.05 0  0.1156521739130435 0.05 0  0.1239130434782609 0.05 0  0.1321739130434783 0.05 0  0.1404347826086956 0.05 0  0.148695652173913 0.05 0  0.1569565217391304 0.05 0  0.1652173913043478 0.05 0  0.1734782608695652 0.05 0  0.1817391304347826 0.05 0  0.19 0.05 0  0.1982608695652174 0.05 0  0.2065217391304348 0.05 0  0.2147826086956522 0.05 0  0.2230434782608696 0.05 0  0.2313043478260869 0.05 0  
[...]
<CellData  Scalars="rho_bar"> 
<DataArray  type="Float64"  Name="rho_bar"  format="ascii">9.9999999999999989e-01   9.9999999999999989e-01   9.9999999999999989e-01   9.9999999999999989e-01   9.9999999999999989e-01   9.9999999999999989e-01   9.9999999999999989e-01   9.9999999999999989e-01   9.9999999999999989e-01   9.9999999999999989e-01   9.9999999999999989e-01   9.9999999999999989e-01   9.9999999999999989e-01   9.9999999999999989e-01   9.9999999999999989e-01   9.9999999999999989e-01   9.9999999999999989e-01   9.9999999999999989e-01   9.9999999999999989e-01   9.9999999999999989e-01   9.9999999999999989e-01   9.9999999999999989e-01   9.9999999999999989e-01   9.9999999999999989e-01   9.9999999999999989e-01   9.9999999999999989e-01   9.9999999999999989e-01   9.9999999999999989e-01   9.9999999999999989e-01   9.9999999999999989e-01   1.0000000000000000e+00   1.0000000000000000e+00   1.0000000000000000e+00   1.0000000000000000e+00   9.9999999999999989e-01   9.9999999999999989e-01   9.9999999999999989e-01   9.9999999999999989e-01   1.0000000000000000e+00   1.0000000000000000e+00   9.9999999999999989e-01   9.9999999999999989e-01   1.0000000000000000e+00   1.0000000000000000e+00   1.0000000000000000e+00   1.0000000000000000e+00   9.9999999999999989e-01   9.9999999999999989e-01   9.9999999999999989e-01   9.9999999999999989e-01   1.0000000000000000e+00   1.0000000000000000e+00   9.9999999999999989e-01   9.9999999999999989e-01   1.0000000000000000e+00   1.0000000000000000e+00   1.0000000000000000e+00   1.0000000000000000e+00   1.0000000000000000e+00   1.0000000000000000e+00   1.0000000000000000e+00   1.0000000000000000e+00   1.0000000000000000e+00   1.0000000000000000e+00   1.0000000000000000e+00   1.0000000000000000e+00   1.0000000000000000e+00   1.0000000000000000e+00   1.0000000000000000e+00   1.0000000000000000e+00   1.0000000000000000e+00   1.0000000000000000e+00   1.0000000000000000e+00   1.0000000000000000e+00   9.9999999999999989e-01   9.9999999999999989e-01   9.9999999999999989e-01   9.9999999999999989e-01   9.9999999999999989e-01   9.9999999999999989e-01   9.9999999999999989e-01   9.9999999999999989e-01   9.9999999999999989e-01   9.9999999999999989e-01   9.9999999999999989e-01   9.9999999999999989e-01   9.9999999999999989e-01   9.9999999999999989e-01   9.9999999999999989e-01   9.9999999999999989e-01   9.9999999999999989e-01   9.9999999999999989e-01   9.9999999999999989e-01   9.9999999999999989e-01   9.9999999999999989e-01   9.9999999999999989e-01   9.9999999999999989e-01   9.9999999999999989e-01   9.9999999999999989e-01   9.9999999999999989e-01   9.9999999999999989e-01   9.9999999999999989e-01   9.9999999999999989e-01   9.9999999999999989e-01   1.0000000000000000e+00   1.0000000000000000e+00   1.0000000000000000e+00   1.0000000000000000e+00   9.9999999999999989e-01   9.9999999999999989e-01   9.9999999999999989e-01   9.9999999999999989e-01   1.0000000000000000e+00   1.0000000000000000e+00   9.9999999999999989e-01   9.9999999999999989e-01   1.0000000000000000e+00   1.0000000000000000e+00   1.0000000000000000e+00   1.0000000000000000e+00   9.9999999999999989e-01   9.9999999999999989e-01   9.9999999999999989e-01   9.9999999999999989e-01   1.0000000000000000e+00   1.0000000000000000e+00   9.9999999999999989e-01   9.9999999999999989e-01   1.0000000000000000e+00   1.0000000000000000e+00   1.0000000000000000e+00   1.0000000000000000e+00   1.0000000000000000e+00   1.0000000000000000e+00   1.0000000000000000e+00   1.0000000000000000e+00   1.0000000000000000e+00   1.0000000000000000e+00   1.0000000000000000e+00   1.0000000000000000e+00   1.0000000000000000e+00   1.0000000000000000e+00   1.0000000000000000e+00   1.0000000000000000e+00   1.0000000000000000e+00   1.0000000000000000e+00   1.0000000000000000e+00   1.0000000000000000e+00   1.0000000000000000e+00   9.9999999999999989e-01   9.9999999999999989e-01   9.9999999999999989e-01   9.9999999999999989e-01   9.9999999999999989e-01   9.9999999999999989e-01   9.9999999999999989e-01   9.9999999999999989e-01   9.9999999999999989e-01   9.9999999999999989e-01   9.9999999999999989e-01   9.9999999999999989e-01   9.9999999999999989e-01   9.9999999999999989e-01   9.9999999999999989e-01   9.9999999999999989e-01   9.9999999999999989e-01   9.9999999999999989e-01   9.9999999999999989e-01   9.9999999999999989e-01   9.9999999999999989e-01   9.9999999999999989e-01   9.9999999999999989e-01   9.9999999999999989e-01   9.9999999999999989e-01   9.9999999999999989e-01   9.9999999999999989e-01   9.9999999999999989e-01   1.0000000000000000e+00   1.0000000000000000e+00   1.0000000000000000e+00   1.0000000000000000e+00   1.0000000000000000e+00   1.0000000000000000e+00   1.0000000000000000e+00   1.0000000000000000e+00   1.0000000000000000e+00   1.0000000000000000e+00   1.0000000000000000e+00   1.0000000000000000e+00   1.0000000000000000e+00   1.0000000000000000e+00   1.0000000000000000e+00   1.0000000000000000e+00   1.0000000000000000e+00   1.0000000000000000e+00   1.0000000000000000e+00   1.0000000000000000e+00   1.0000000000000000e+00   1.0000000000000000e+00   1.0000000000000000e+00   1.0000000000000000e+00   9.9999999999999989e-01   9.9999999999999933e-01   1.0000000000000000e+00   9.9999999999999767e-01   1.0000000000000000e+00   9.9999999999999811e-01   9.9999999999999989e-01   9.9999999999999922e-01   1.0000000000000000e+00   1.0000000000000000e+00   1.0000000000000000e+00   1.0000000000000000e+00   1.0000000000000000e+00   1.0000000000000000e+00   1.0000000000000000e+00   1.0000000000000000e+00   9.9999999999999989e-01   9.9999999999999989e-01   1.0000000000000000e+00   1.0000000000000000e+00   1.0000000000000000e+00   1.0000000000000000e+00   9.9999999999999989e-01   9.9999999999999989e-01   1.0000000000000000e+00   1.0000000000000000e+00   1.0000000000000000e+00   1.0000000000000000e+00   1.0000000000000000e+00   1.0000000000000000e+00   1.0000000000000000e+00   1.0000000000000000e+00   1.0000000000000000e+00   1.0000000000000000e+00   1.0000000000000000e+00   1.0000000000000000e+00   1.0000000000000000e+00   1.0000000000000000e+00   1.0000000000000000e+00   1.0000000000000000e+00   1.0000000000000000e+00   1.0000000000000000e+00   1.0000000000000000e+00   1.0000000000000000e+00   1.0000000000000000e+00   1.0000000000000000e+00   1.0000000000000000e+00   1.0000000000000000e+00   1.0000000000000000e+00   1.0000000000000000e+00   1.0000000000000000e+00   1.0000000000000000e+00   1.0000000000000000e+00   1.0000000000000000e+00   1.0000000000000000e+00   1.0000000000000000e+00   1.0000000000000000e+00   1.0000000000000000e+00   1.0000000000000000e+00   1.0000000000000000e+00   1.0000000000000000e+00   1.0000000000000000e+00   1.0000000000000000e+00   1.0000000000000000e+00   1.0000000000000000e+00   1.0000000000000000e+00   1.0000000000000000e+00   1.0000000000000000e+00   1.0000000000000000e+00   1.0000000000000000e+00   1.0000000000000000e+00   9.9999999999999978e-01   9.9999999999999911e-01   9.9999999999994948e-01   9.9999999999938161e-01   9.9999999999080513e-01   9.9999999981656673e-01   9.9999999951060436e-01   9.9999998336626794e-01   9.9999999473165913e-01   9.9999967533952416e-01   9.9999998994123118e-01   9.9999881557545156e-01   9.9999999627690683e-01   9.9999916207925654e-01   9.9999999964502717e-01   9.9999986543260033e-01   9.9999999998702516e-01   9.9999999346629387e-01   9.9999999999974554e-01   9.9999999986064547e-01   9.9999999999999556e-01   9.9999999999802036e-01   1.0000000000000000e+00   9.9999999999997147e-01   9.9999999999999989e-01   9.9999999999999944e-01   1.0000000000000000e+00   1.0000000000000000e+00   1.0000000000000000e+00   1.0000000000000000e+00   9.9999999999999989e-01   9.9999999999999989e-01   1.0000000000000000e+00   1.0000000000000000e+00   1.0000000000000000e+00   1.0000000000000000e+00   1.0000000000000000e+00   1.0000000000000000e+00   9.9999999999999989e-01   1.0000000000000000e+00   1.0000000000000000e+00   1.0000000000000000e+00   1.0000000000000000e+00   1.0000000000000000e+00   1.0000000000000000e+00   1.0000000000000000e+00   1.0000000000000000e+00   1.0000000000000000e+00   1.0000000000000000e+00   1.0000000000000000e+00   1.0000000000000000e+00   1.0000000000000000e+00   1.0000000000000000e+00   1.0000000000000000e+00   1.0000000000000000e+00   1.0000000000000000e+00   1.0000000000000000e+00   1.0000000000000000e+00   1.0000000000000000e+00   1.0000000000000000e+00   1.0000000000000000e+00   1.0000000000000000e+00   1.0000000000000000e+00   1.0000000000000000e+00   1.0000000000000000e+00   1.0000000000000000e+00   1.0000000000000000e+00   1.0000000000000000e+00   1.0000000000000000e+00   1.0000000000000000e+00   1.0000000000000000e+00   1.0000000000000000e+00   1.0000000000000000e+00   1.0000000000000000e+00   1.0000000000000000e+00   1.0000000000000000e+00   1.0000000000000000e+00   1.0000000000000000e+00   1.0000000000000000e+00   9.9999999999999167e-01   9.9999999999992106e-01   9.9999999997887146e-01   9.9999999972521658e-01   9.9999995389423768e-01   9.9999917361977064e-01   9.9994993116994335e-01   9.9872249601830121e-01   9.8486052098930643e-01   8.0931459426662711e-01   7.3983845056431541e-01   3.9823797861762544e-01   6.7254286985961587e-01   3.3255687284725416e-01   6.6729318688973616e-01   3.1393970444634989e-01   6.7220395311416625e-01   3.1033646766008022e-01   7.3170323294580641e-01   3.3059090501142213e-01   9.6609187333825342e-01   3.9028776286734584e-01   9.9958163542216494e-01   7.4934041566330678e-01   9.9999684103235675e-01   9.9297069829303741e-01   9.9999997754835923e-01   9.9995499669635235e-01   9.9999999981481180e-01   9.9999972368438161e-01   9.9999999999836675e-01   9.9999999802840522e-01   9.9999999999998446e-01   9.9999999998485722e-01   9.9999999999999989e-01   9.9999999999986933e-01   1.0000000000000000e+00   9.9999999999999867e-01   1.0000000000000000e+00   1.0000000000000000e+00   1.0000000000000000e+00   1.0000000000000000e+00   9.9999999999999989e-01   9.9999999999999989e-01   1.0000000000000000e+00   1.0000000000000000e+00   1.0000000000000000e+00   1.0000000000000000e+00   1.0000000000000000e+00   1.0000000000000000e+00   1.0000000000000000e+00   1.0000000000000000e+00   1.0000000000000000e+00   1.0000000000000000e+00   1.0000000000000000e+00   1.0000000000000000e+00   1.0000000000000000e+00   1.0000000000000000e+00   1.0000000000000000e+00   1.0000000000000000e+00   1.0000000000000000e+00   1.0000000000000000e+00   1.0000000000000000e+00   1.0000000000000000e+00   1.0000000000000000e+00   1.0000000000000000e+00   1.0000000000000000e+00   1.0000000000000000e+00   1.0000000000000000e+00   1.0000000000000000e+00   1.0000000000000000e+00   1.0000000000000000e+00   1.0000000000000000e+00   1.0000000000000000e+00   1.0000000000000000e+00   9.9999999999999989e-01   9.9999999999999989e-01   9.9999999999999967e-01   9.9999999999999967e-01   9.9999999999999967e-01   9.9999999999999967e-01   9.9999999999999944e-01   9.9999999999999678e-01   9.9999999999940870e-01   9.9999999999186995e-01   9.9999999767918990e-01   9.9999996165494998e-01   9.9998742045248024e-01   9.9975936328317294e-01   9.5023082151754878e-01   7.7468044619681831e-01   6.5981167406265484e-01   3.4167714608385313e-01   3.0375950302712090e-01   7.3293392052787926e-02   3.6805581138906196e-03   1.3360382115487621e-04   2.5387775655906959e-05   7.8915071690296068e-07   9.1563827653295938e-07   2.0323182914339096e-08   2.1546396912023683e-07   2.8682087445848952e-09   2.9289627855496231e-07   1.9870632084195705e-09   2.0679425246361567e-06   6.0250347858984786e-09   5.5794952416375158e-05   7.3750092523712952e-08   4.1116339618774136e-03   2.6209824146028456e-06   2.0248091263289375e-01   2.2050896756001243e-04   6.1565394432674792e-01   2.7682826286588608e-02   7.1835838204129709e-01   3.1219707218270704e-01   9.8730125842892735e-01   4.2286444194008743e-01   9.9991338487152792e-01   8.5960831754258871e-01   9.9999939924257375e-01   9.9820681122314536e-01   9.9999999579468923e-01   9.9998817077989366e-01   9.9999999997655198e-01   9.9999993101767515e-01   9.9999999999991407e-01   9.9999999971840592e-01   9.9999999999999967e-01   9.9999999999931966e-01   9.9999999999999967e-01   9.9999999999999889e-01   9.9999999999999967e-01   9.9999999999999967e-01   9.9999999999999978e-01   1.0000000000000000e+00   1.0000000000000000e+00   1.0000000000000000e+00   1.0000000000000000e+00   1.0000000000000000e+00   1.0000000000000000e+00   1.0000000000000000e+00   1.0000000000000000e+00   1.0000000000000000e+00   1.0000000000000000e+00   1.0000000000000000e+00   1.0000000000000000e+00   1.0000000000000000e+00   1.0000000000000000e+00   1.0000000000000000e+00   1.0000000000000000e+00   1.0000000000000000e+00   1.0000000000000000e+00   1.0000000000000000e+00   1.0000000000000000e+00   1.0000000000000000e+00   1.0000000000000000e+00   1.0000000000000000e+00   1.0000000000000000e+00   1.0000000000000000e+00   1.0000000000000000e+00   1.0000000000000000e+00   1.0000000000000000e+00   9.9999999999999989e-01   9.9999999999999634e-01   9.9999999999982803e-01   9.9999999999643652e-01   9.9999999973394349e-01   9.9999999372115178e-01   9.9999924857601408e-01   9.9998086344386916e-01   9.9677335717470583e-01   9.3982305171306157e-01   6.7489481859761968e-01   4.1387187197025049e-01   4.3301814904974961e-01   2.2754567743984436e-01   3.3031804415607300e-03   1.7459393665579986e-04   1.1133184042074380e-06   6.6784518276685745e-08   1.1244483492471129e-09   7.0394366262031368e-11   4.6105896878145813e-12   2.7043182508161101e-13   7.8446508548305844e-14   3.9690473130349346e-15   5.3290705182007506e-15   2.0354088784794536e-16   1.4802973661668755e-15   3.7007434154171883e-17   1.5543122344752192e-15   1.8503717077085941e-17   5.6713892841268416e-15   4.6259292692714858e-17   5.8980598183211454e-14   2.7755575615628918e-16   1.4356664005769442e-12   3.8950324447265911e-15   6.8262044165360664e-11   1.1024514634527804e-13   5.9947002547152311e-09   5.5291882183894351e-12   6.9434680130542326e-07   4.7328276483090314e-10   8.8667761930995751e-05   4.7247428164309817e-08   1.1925335365726984e-02   5.2575258267702676e-06   3.2291965515681115e-01   6.6369271018336851e-04   6.4753425896575167e-01   7.0554932030676906e-02   8.0144520817760434e-01   3.2882214877992394e-01   9.9862743196269987e-01   5.5514091111335595e-01   9.9999839602386686e-01   9.8615292467418891e-01   9.9999999929284111e-01   9.9998927114917968e-01   9.9999999999990774e-01   9.9999999750803836e-01   9.9999999999999989e-01   9.9999999999983857e-01   1.0000000000000000e+00   1.0000000000000000e+00   1.0000000000000000e+00   1.0000000000000000e+00   1.0000000000000000e+00   1.0000000000000000e+00   1.0000000000000000e+00   1.0000000000000000e+00   1.0000000000000000e+00   1.0000000000000000e+00   1.0000000000000000e+00   1.0000000000000000e+00   1.0000000000000000e+00   1.0000000000000000e+00   1.0000000000000000e+00   1.0000000000000000e+00   1.0000000000000000e+00   1.0000000000000000e+00   1.0000000000000000e+00   1.0000000000000000e+00   1.0000000000000000e+00   1.0000000000000000e+00   9.9999999999999800e-01   9.9999999999998834e-01   9.9999999999960143e-01   9.9999999999669298e-01   9.9999999987312760e-01   9.9999999825663399e-01   9.9999992945917804e-01   9.9999827220791526e-01   9.9992817323694094e-01   9.9744310573974582e-01   9.2892986330650529e-01   6.9181185234291853e-01   4.3206299861910219e-01   5.4431563203680600e-01   3.0762318554500540e-01   3.3328291648500485e-02   1.5534277574755044e-03   9.4887635602169951e-06   4.8722386221851843e-07   2.9064231854558642e-09   1.9941685340067275e-10   1.6594688586242983e-12   1.3533618670180658e-13   2.5812685322534890e-15   2.3129646346357430e-16   9.2518585385429722e-18   0.0000000000000000e+00   0.0000000000000000e+00   0.0000000000000000e+00   0.0000000000000000e+00   0.0000000000000000e+00   0.0000000000000000e+00   0.0000000000000000e+00   0.0000000000000000e+00   0.0000000000000000e+00   0.0000000000000000e+00   0.0000000000000000e+00   0.0000000000000000e+00   0.0000000000000000e+00   0.0000000000000000e+00   0.0000000000000000e+00   0.0000000000000000e+00   0.0000000000000000e+00   0.0000000000000000e+00   0.0000000000000000e+00   9.2518585385429707e-18   0.0000000000000000e+00   6.1062266354383610e-16   0.0000000000000000e+00   3.2029934260435766e-14   6.4763009769800802e-17   2.0568176791376422e-12   3.4231876592608988e-15   1.6202663285132718e-10   2.1427304375265521e-13   1.7125081158697604e-08   1.7137319341387069e-11   2.9290404835365562e-06   1.9860838899414071e-09   9.9601579011081775e-04   4.0809413429099273e-07   2.3459590883564166e-01   1.8168129390855323e-04   6.9867658769941676e-01   1.2528620649417888e-01   9.9964210330835490e-01   6.1464464007794450e-01   9.9999999270366713e-01   9.9955141596356878e-01   9.9999999999996336e-01   9.9999999546450702e-01   9.9999999999999989e-01   9.9999999999998568e-01   1.0000000000000000e+00   1.0000000000000000e+00   1.0000000000000000e+00   1.0000000000000000e+00   1.0000000000000000e+00   1.0000000000000000e+00   9.9999999999999978e-01   1.0000000000000000e+00   9.9999999999999944e-01   1.0000000000000000e+00   9.9999999999999445e-01   9.9999999999999889e-01   9.9999999999991473e-01   9.9999999999996991e-01   9.9999999999779543e-01   9.9999999999894551e-01   9.9999999991923050e-01   9.9999999993597277e-01   9.9999999515545446e-01   9.9999999278039708e-01   9.9999945465533657e-01   9.9999858065430414e-01   9.9989290432471722e-01   9.9958872749848293e-01   9.7315383912818243e-01   8.9749459576925805e-01   5.6491502833452456e-01   6.6704775431326224e-01   3.3744734971652901e-01   4.7178183002499807e-01   1.9439965742625379e-01   1.6861561869404740e-02   4.8690682975055521e-04   1.1954598063940171e-05   4.2608709693858771e-07   7.5263841825545796e-09   3.7310967278732688e-10   5.2406690098649741e-12   3.5288438837710601e-13   5.1070259132757201e-15   4.3483735131151968e-16   9.2518585385429722e-18   0.0000000000000000e+00   0.0000000000000000e+00   0.0000000000000000e+00   0.0000000000000000e+00   0.0000000000000000e+00   0.0000000000000000e+00   0.0000000000000000e+00   0.0000000000000000e+00   0.0000000000000000e+00   0.0000000000000000e+00   0.0000000000000000e+00   0.0000000000000000e+00   0.0000000000000000e+00   0.0000000000000000e+00   0.0000000000000000e+00   0.0000000000000000e+00   0.0000000000000000e+00   0.0000000000000000e+00   0.0000000000000000e+00   0.0000000000000000e+00   0.0000000000000000e+00   0.0000000000000000e+00   0.0000000000000000e+00   0.0000000000000000e+00   0.0000000000000000e+00   0.0000000000000000e+00   0.0000000000000000e+00   0.0000000000000000e+00   0.0000000000000000e+00   0.0000000000000000e+00   0.0000000000000000e+00   0.0000000000000000e+00   0.0000000000000000e+00   0.0000000000000000e+00   0.0000000000000000e+00   7.4014868308343765e-17   0.0000000000000000e+00   9.0575695092335698e-15   1.8503717077085941e-17   2.0037860259947134e-12   2.3129646346357431e-15   1.0697913758554263e-09   6.7223078955199367e-13   1.7385081709971508e-06   5.1203586740970297e-10   1.1335836184169605e-02   1.3192475684931091e-06   6.4450375848356178e-01   1.5308795556757822e-02   9.9998554295000419e-01   7.4267455586476172e-01   9.9999999999107680e-01   9.9999760357460543e-01   1.0000000000000000e+00   9.9999999999896994e-01   1.0000000000000000e+00   1.0000000000000000e+00   9.9999999999999989e-01   9.9999998897143194e-01   9.9999480656741158e-01   9.9999998020114866e-01   9.9999334057328770e-01   9.9999993456364500e-01   9.9998201519135399e-01   9.9999961304117169e-01   9.9990899274902401e-01   9.9999572244251544e-01   9.9914540895428683e-01   9.9991257327439376e-01   9.8574089638571627e-01   9.9727592003947108e-01   8.2216581889960338e-01   9.1741441911086719e-01   5.0616251503072585e-01   6.8305815354326826e-01   3.4362502087619479e-01   6.5822958598537484e-01   3.2569523181808918e-01   4.2400397491345920e-01   7.9776256080960908e-02   2.8968195873728453e-02   5.2864829801613222e-04   1.07731608