<?xml version="1.0"?>
<VTKFile type="UnstructuredGrid"  version="0.1"  >
<UnstructuredGrid>
<Piece  NumberOfPoints="2444" NumberOfCells="4684">
<Points>
<DataArray  type="Float64"  NumberOfComponents="3"  format="ascii">2.940869565217391 0 0  2.949130434782608 0 0  2.949130434782608 0.008333333333333333 0  2.940869565217391 0.008333333333333333 0  2.957391304347826 0 0  2.957391304347826 0.008333333333333333 0  2.965652173913043 0 0  2.965652173913043 0.008333333333333333 0  2.973913043478261 0 0  2.973913043478261 0.008333333333333333 0  2.982173913043478 0 0  2.982173913043478 0.008333333333333333 0  2.990434782608696 0 0  2.990434782608696 0.008333333333333333 0  2.998695652173913 0 0  2.998695652173913 0.008333333333333333 0  3.006956521739131 0 0  3.006956521739131 0.008333333333333333 0  3.015217391304348 0 0  3.015217391304348 0.008333333333333333 0  3.023478260869565 0 0  3.023478260869565 0.008333333333333333 0  3.031739130434782 0 0  3.031739130434782 0.008333333333333333 0  3.04 0 0  3.04 0.008333333333333333 0  3.048260869565218 0 0  3.048260869565218 0.008333333333333333 0  3.056521739130435 0 0  3.056521739130435 0.008333333333333333 0  3.064782608695652 0 0  3.064782608695652 0.008333333333333333 0  3.073043478260869 0 0  3.073043478260869 0.008333333333333333 0  3.081304347826087 0 0  3.081304347826087 0.008333333333333333 0  3.089565217391304 0 0  3.089565217391304 0.008333333333333333 0  3.097826086956522 0 0  3.097826086956522 0.008333333333333333 0  3.106086956521739 0 0  3.106086956521739 0.008333333333333333 0  3.114347826086956 0 0  3.114347826086956 0.008333333333333333 0  3.122608695652174 0 0  3.122608695652174 0.008333333333333333 0  3.130869565217391 0 0  3.130869565217391 0.008333333333333333 0  3.139130434782609 0 0  3.139130434782609 0.008333333333333333 0  3.147391304347826 0 0  3.147391304347826 0.008333333333333333 0  3.155652173913043 0 0  3.155652173913043 0.008333333333333333 0  3.163913043478261 0 0  3.163913043478261 0.008333333333333333 0  3.172173913043478 0 0  3.172173913043478 0.008333333333333333 0  3.180434782608696 0 0  3.180434782608696 0.008333333333333333 0  3.188695652173913 0 0  3.188695652173913 0.008333333333333333 0  3.19695652173913 0 0  3.19695652173913 0.008333333333333333 0  3.205217391304347 0 0  3.205217391304347 0.008333333333333333 0  3.213478260869565 0 0  3.213478260869565 0.008333333333333333 0  3.221739130434782 0 0  3.221739130434782 0.008333333333333333 0  3.23 0 0  3.23 0.008333333333333333 0  3.238260869565217 0 0  3.238260869565217 0.008333333333333333 0  3.246521739130435 0 0  3.246521739130435 0.008333333333333333 0  3.254782608695652 0 0  3.254782608695652 0.008333333333333333 0  3.26304347826087 0 0  3.26304347826087 0.008333333333333333 0  3.271304347826087 0 0  3.271304347826087 0.008333333333333333 0  3.279565217391304 0 0  3.279565217391304 0.008333333333333333 0  3.287826086956521 0 0  3.287826086956521 0.008333333333333333 0  3.296086956521739 0 0  3.296086956521739 0.008333333333333333 0  3.304347826086957 0 0  3.304347826086957 0.008333333333333333 0  3.312608695652174 0 0  3.312608695652174 0.008333333333333333 0  3.320869565217391 0 0  3.320869565217391 0.008333333333333333 0  3.329130434782608 0 0  3.329130434782608 0.008333333333333333 0  3.337391304347826 0.008333333333333333 0  2.949130434782608 0.01666666666666667 0  2.957391304347826 0.01666666666666667 0  2.965652173913043 0.01666666666666667 0  2.973913043478261 0.01666666666666667 0  2.982173913043478 0.01666666666666667 0  2.990434782608696 0.01666666666666667 0  2.998695652173913 0.01666666666666667 0  3.006956521739131 0.01666666666666667 0  3.015217391304348 0.01666666666666667 0  3.023478260869565 0.01666666666666667 0  3.031739130434782 0.01666666666666667 0  3.04 0.01666666666666667 0  3.048260869565218 0.01666666666666667 0  3.056521739130435 0.01666666666666667 0  3.064782608695652 0.01666666666666667 0  3.073043478260869 0.01666666666666667 0  3.081304347826087 0.01666666666666667 0  3.089565217391304 0.01666666666666667 0  3.097826086956522 0.01666666666666667 0  3.106086956521739 0.01666666666666667 0  3.114347826086956 0.01666666666666667 0  3.122608695652174 0.01666666666666667 0  3.130869565217391 0.01666666666666667 0  3.139130434782609 0.01666666666666667 0  3.147391304347826 0.01666666666666667 0  3.155652173913043 0.01666666666666667 0  3.163913043478261 0.01666666666666667 0  3.172173913043478 0.01666666666666667 0  3.180434782608696 0.01666666666666667 0  3.188695652173913 0.01666666666666667 0  3.19695652173913 0.01666666666666667 0  3.205217391304347 0.01666666666666667 0  3.213478260869565 0.01666666666666667 0  3.221739130434782 0.01666666666666667 0  3.23 0.01666666666666667 0  3.238260869565217 0.01666666666666667 0  3.246521739130435 0.01666666666666667 0  3.254782608695652 0.01666666666666667 0  3.26304347826087 0.01666666666666667 0  3.271304347826087 0.01666666666666667 0  3.279565217391304 0.01666666666666667 0  3.287826086956521 0.01666666666666667 0  3.296086956521739 0.01666666666666667 0  3.304347826086957 0.01666666666666667 0  3.312608695652174 0.01666666666666667 0  3.320869565217391 0.01666666666666667 0  3.329130434782608 0.01666666666666667 0  3.337391304347826 0.01666666666666667 0  3.345652173913043 0.01666666666666667 0  2.957391304347826 0.025 0  2.965652173913043 0.025 0  2.973913043478261 0.025 0  2.982173913043478 0.025 0  2.990434782608696 0.025 0  2.998695652173913 0.025 0  3.006956521739131 0.025 0  3.015217391304348 0.025 0  3.023478260869565 0.025 0  3.031739130434782 0.025 0  3.04 0.025 0  3.048260869565218 0.025 0  3.056521739130435 0.025 0  3.064782608695652 0.025 0  3.073043478260869 0.025 0  3.081304347826087 0.025 0  3.089565217391304 0.025 0  3.097826086956522 0.025 0  3.106086956521739 0.025 0  3.114347826086956 0.025 0  3.122608695652174 0.025 0  3.130869565217391 0.025 0  3.139130434782609 0.025 0  3.147391304347826 0.025 0  3.155652173913043 0.025 0  3.163913043478261 0.025 0  3.172173913043478 0.025 0  3.180434782608696 0.025 0  3.188695652173913 0.025 0  3.19695652173913 0.025 0  3.205217391304347 0.025 0  3.213478260869565 0.025 0  3.221739130434782 0.025 0  3.23 0.025 0  3.238260869565217 0.025 0  3.246521739130435 0.025 0  3.254782608695652 0.025 0  3.26304347826087 0.025 0  3.271304347826087 0.025 0  3.279565217391304 0.025 0  3.287826086956521 0.025 0  3.296086956521739 0.025 0  3.304347826086957 0.025 0  3.312608695652174 0.025 0  3.320869565217391 0.025 0  3.329130434782608 0.025 0  3.337391304347826 0.025 0  3.345652173913043 0.025 0  3.353913043478261 0.025 0  2.965652173913043 0.03333333333333333 0  2.973913043478261 0.03333333333333333 0  2.982173913043478 0.03333333333333333 0  2.990434782608696 0.03333333333333333 0  2.998695652173913 0.03333333333333333 0  3.006956521739131 0.03333333333333333 0  3.015217391304348 0.03333333333333333 0  3.023478260869565 0.03333333333333333 0  3.031739130434782 0.03333333333333333 0  3.04 0.03333333333333333 0  3.048260869565218 0.03333333333333333 0  3.056521739130435 0.03333333333333333 0  3.064782608695652 0.03333333333333333 0  3.073043478260869 0.03333333333333333 0  3.081304347826087 0.03333333333333333 0  3.089565217391304 0.03333333333333333 0  3.097826086956522 0.03333333333333333 0  3.106086956521739 0.03333333333333333 0  3.114347826086956 0.03333333333333333 0  3.122608695652174 0.03333333333333333 0  3.130869565217391 0.03333333333333333 0  3.139130434782609 0.03333333333333333 0  3.147391304347826 0.03333333333333333 0  3.155652173913043 0.03333333333333333 0  3.163913043478261 0.03333333333333333 0  3.172173913043478 0.03333333333333333 0  3.180434782608696 0.03333333333333333 0  3.188695652173913 0.03333333333333333 0  3.19695652173913 0.03333333333333333 0  3.205217391304347 0.03333333333333333 0  3.213478260869565 0.03333333333333333 0  3.221739130434782 0.03333333333333333 0  3.23 0.03333333333333333 0  3.238260869565217 0.03333333333333333 0  3.246521739130435 0.03333333333333333 0  3.254782608695652 0.03333333333333333 0  3.26304347826087 0.03333333333333333 0  3.271304347826087 0.03333333333333333 0  3.279565217391304 0.03333333333333333 0  3.287826086956521 0.03333333333333333 0  3.296086956521739 0.03333333333333333 0  3.304347826086957 0.03333333333333333 0  3.312608695652174 0.03333333333333333 0  3.320869565217391 0.03333333333333333 0  3.329130434782608 0.03333333333333333 0  3.337391304347826 0.03333333333333333 0  3.345652173913043 0.03333333333333333 0  3.353913043478261 0.03333333333333333 0  3.362173913043478 0.03333333333333333 0  2.973913043478261 0.04166666666666666 0  2.982173913043478 0.04166666666666666 0  2.990434782608696 0.04166666666666666 0  2.998695652173913 0.04166666666666666 0  3.006956521739131 0.04166666666666666 0  3.015217391304348 0.04166666666666666 0  3.023478260869565 0.04166666666666666 0  3.031739130434782 0.04166666666666666 0  3.04 0.04166666666666666 0  3.048260869565218 0.04166666666666666 0  3.056521739130435 0.04166666666666666 0  3.064782608695652 0.04166666666666666 0  3.073043478260869 0.04166666666666666 0  3.081304347826087 0.04166666666666666 0  3.089565217391304 0.04166666666666666 0  3.097826086956522 0.04166666666666666 0  3.106086956521739 0.04166666666666666 0  3.114347826086956 0.04166666666666666 0  3.122608695652174 0.04166666666666666 0  3.130869565217391 0.04166666666666666 0  3.139130434782609 0.04166666666666666 0  3.147391304347826 0.04166666666666666 0  3.155652173913043 0.04166666666666666 0  3.163913043478261 0.04166666666666666 0  3.172173913043478 0.04166666666666666 0  3.180434782608696 0.04166666666666666 0  3.188695652173913 0.04166666666666666 0  3.19695652173913 0.04166666666666666 0  3.205217391304347 0.04166666666666666 0  3.213478260869565 0.04166666666666666 0  3.221739130434782 0.04166666666666666 0  3.23 0.04166666666666666 0  3.238260869565217 0.04166666666666666 0  3.246521739130435 0.04166666666666666 0  3.254782608695652 0.04166666666666666 0  3.2630434
[...]
<CellData  Scalars="sigma_m"> 
<DataArray  type="Float64"  Name="sigma_m"  format="ascii">2.7463588925374527e+06   7.4670666091082180e+06   2.7893014960173750e+06   7.3222772145309504e+06   2.8976265789346164e+06   7.2505400378022250e+06   3.0891342064937665e+06   7.2562722587285331e+06   3.3833625752161690e+06   7.3516942993909633e+06   3.7934141787573127e+06   7.5563216937182462e+06   4.3041779066528827e+06   7.8867886902786968e+06   4.8401790435179416e+06   8.3263884902781202e+06   5.2598475595571827e+06   8.7791247309968360e+06   5.4238902528624851e+06   9.0570739602994118e+06   5.2988605111679872e+06   8.9674414824675266e+06   4.9973081444022832e+06   8.4593965325462669e+06   4.6948266155850831e+06   7.6919127803655751e+06   4.4096406225478360e+06   6.8664052017467842e+06   3.9092062056576479e+06   6.0636596570501169e+06   2.8301715854555555e+06   5.4050732042314019e+06   1.4616573954477080e+06   4.7393253080823468e+06   5.6471209892261541e+05   3.8947097760724784e+06   7.9425958777355950e+05   3.0458670739399134e+06   6.9696334034919098e+05   1.7482870718058371e+06   4.3511529695073073e+05   5.4374008256420796e+05   2.2644895507603543e+05   2.0873242699123016e+06   1.6969299186848932e+00   6.2223528312012874e+01   3.9492405873770269e-05   9.9490276908951233e-04   7.7314342765127965e-09   8.9597438112288305e-08   0.0000000000000000e+00   0.0000000000000000e+00   0.0000000000000000e+00   0.0000000000000000e+00   0.0000000000000000e+00   0.0000000000000000e+00   0.0000000000000000e+00   0.0000000000000000e+00   0.0000000000000000e+00   0.0000000000000000e+00   0.0000000000000000e+00   0.0000000000000000e+00   0.0000000000000000e+00   0.0000000000000000e+00   0.0000000000000000e+00   0.0000000000000000e+00   0.0000000000000000e+00   0.0000000000000000e+00   0.0000000000000000e+00   0.0000000000000000e+00   0.0000000000000000e+00   0.0000000000000000e+00   0.0000000000000000e+00   0.0000000000000000e+00   0.0000000000000000e+00   0.0000000000000000e+00   0.0000000000000000e+00   0.0000000000000000e+00   0.0000000000000000e+00   0.0000000000000000e+00   0.0000000000000000e+00   0.0000000000000000e+00   0.0000000000000000e+00   0.0000000000000000e+00   0.0000000000000000e+00   0.0000000000000000e+00   0.0000000000000000e+00   0.0000000000000000e+00   0.0000000000000000e+00   0.0000000000000000e+00   0.0000000000000000e+00   0.0000000000000000e+00   0.0000000000000000e+00   0.0000000000000000e+00   0.0000000000000000e+00   7.9072336775528230e+06   7.7881400987850949e+06   1.3547806160393627e+07   7.7378665632852828e+06   1.3694169977132259e+07   7.7588313811232727e+06   1.3983078539901180e+07   7.8606523543038750e+06   1.4441640233507056e+07   8.0607489764031339e+06   1.5130302189129533e+07   8.3761336535245841e+06   1.6148675485672748e+07   8.7959625160384029e+06   1.7573469544694863e+07   9.2417795045333728e+06   1.9244685839134589e+07   9.5525257476750519e+06   2.0536471921344761e+07   9.5332969432405587e+06   2.0633133706288651e+07   9.0842054370254967e+06   1.9265584262641162e+07   8.3444284865744645e+06   1.7174376984709289e+07   7.4830795400719354e+06   1.5528720727035962e+07   6.3877880253338637e+06   1.3910353398650313e+07   4.9656270801021988e+06   1.1621458932451064e+07   3.6900114863845762e+06   7.7534002057909286e+06   3.3424643760279915e+06   5.8654849947312046e+06   3.2945764884370654e+06   5.1074681061348906e+06   2.9654359041501340e+06   4.6424675893662581e+06   3.3394187402815213e+06   3.8469088285124316e+06   4.2250021649953246e+05   3.4272427227982599e+06   2.0998455713348065e+01   2.0989318638185418e+03   5.7605278610240091e-04   7.9479489227575056e-02   8.9129226987430196e-08   9.8541768150864311e-06   0.0000000000000000e+00   6.2736589491066144e-09   0.0000000000000000e+00   0.0000000000000000e+00   0.0000000000000000e+00   0.0000000000000000e+00   0.0000000000000000e+00   0.0000000000000000e+00   0.0000000000000000e+00   0.0000000000000000e+00   0.0000000000000000e+00   0.0000000000000000e+00   0.0000000000000000e+00   0.0000000000000000e+00   0.0000000000000000e+00   0.0000000000000000e+00   0.0000000000000000e+00   0.0000000000000000e+00   0.0000000000000000e+00   0.0000000000000000e+00   0.0000000000000000e+00   0.0000000000000000e+00   0.0000000000000000e+00   0.0000000000000000e+00   0.0000000000000000e+00   0.0000000000000000e+00   0.0000000000000000e+00   0.0000000000000000e+00   0.0000000000000000e+00   0.0000000000000000e+00   0.0000000000000000e+00   0.0000000000000000e+00   0.0000000000000000e+00   0.0000000000000000e+00   0.0000000000000000e+00   0.0000000000000000e+00   0.0000000000000000e+00   0.0000000000000000e+00   0.0000000000000000e+00   0.0000000000000000e+00   0.0000000000000000e+00   0.0000000000000000e+00   0.0000000000000000e+00   0.0000000000000000e+00   0.0000000000000000e+00   0.0000000000000000e+00   0.0000000000000000e+00   4.7243782769700168e+06   5.0787878828787748e+06   4.7569125539563980e+05   5.3219881976764007e+06   5.3062632422308985e+05   5.4101233832194330e+06   5.5750788749030454e+05   5.2991868627535086e+06   5.4334097306661552e+05   4.9784039013998974e+06   4.8564172919933836e+05   4.5350472104005357e+06   4.0203305161086691e+05   4.1673251411222997e+06   3.2259773790999298e+05   4.0594587377669225e+06   2.6851520028680237e+05   4.3323069834806155e+06   2.5326724918659686e+05   5.2322249890171271e+06   2.9898510919914383e+05   7.2449344777321797e+06   4.9429348149521201e+05   1.0326083013826186e+07   1.3233311093456184e+06   1.2520864698080648e+07   6.4111978301045997e+06   1.2702698914613642e+07   1.4954791960827045e+07   9.0837514573127069e+06   1.0981792189118644e+07   6.4250046392939324e+06   6.3186448103105854e+06   6.0527647792537576e+06   5.0587825842859047e+06   5.5416789269484608e+06   7.1836436947592534e+06   6.8277431862349045e+06   8.5726959567570109e+06   6.5575556992211742e+06   1.5068174933861924e+07   5.1066558129636969e+03   6.2533102395162557e+05   5.8565109012646732e-01   2.7776085389507023e+02   1.7498347694855864e-04   8.0183945439761678e-02   1.4722913734995168e-07   5.0910533862474307e-05   0.0000000000000000e+00   6.5175993436497083e-08   0.0000000000000000e+00   0.0000000000000000e+00   0.0000000000000000e+00   0.0000000000000000e+00   0.0000000000000000e+00   0.0000000000000000e+00   0.0000000000000000e+00   0.0000000000000000e+00   0.0000000000000000e+00   0.0000000000000000e+00   0.0000000000000000e+00   0.0000000000000000e+00   0.0000000000000000e+00   0.0000000000000000e+00   0.0000000000000000e+00   0.0000000000000000e+00   0.0000000000000000e+00   0.0000000000000000e+00   0.0000000000000000e+00   0.0000000000000000e+00   0.0000000000000000e+00   0.0000000000000000e+00   0.0000000000000000e+00   0.0000000000000000e+00   0.0000000000000000e+00   0.0000000000000000e+00   0.0000000000000000e+00   0.0000000000000000e+00   0.0000000000000000e+00   0.0000000000000000e+00   0.0000000000000000e+00   0.0000000000000000e+00   0.0000000000000000e+00   0.0000000000000000e+00   0.0000000000000000e+00   0.0000000000000000e+00   0.0000000000000000e+00   0.0000000000000000e+00   0.0000000000000000e+00   0.0000000000000000e+00   0.0000000000000000e+00   0.0000000000000000e+00   0.0000000000000000e+00   0.0000000000000000e+00   0.0000000000000000e+00   5.3742717850500391e+01   5.7886323676723265e+01   5.6869865193667113e-01   5.6946351611524001e+01   5.9432570146485031e-01   4.9560233740678001e+01   5.6025028958742751e-01   3.7024004239139003e+01   4.6146584766248816e-01   2.4029617185060150e+01   3.2914284663571769e-01   1.5013238861888588e+01   2.1742566338060787e-01   1.0755039776363626e+01   1.5684012061865032e-01   1.0147826281794051e+01   1.4690586334368239e-01   1.3686823126118890e+01   1.9538957317998898e-01   3.0604049363412106e+01   4.0797282859382872e-01   1.4467170531075851e+02   1.6317889258769493e+00   1.8238303221484341e+03   1.5756754128091316e+01   5.7503922471014237e+04   4.2553924554069317e+02   1.6835590443298470e+06   3.4125885717339996e+04   5.7996194591553630e+06   1.0857208093892739e+06   6.1571551143704681e+06   2.0761670537850671e+06   5.9463972012231462e+06   6.7125317133702645e+06   6.2315169526744364e+06   8.6834601246684343e+06   1.1862011777718091e+07   1.3193665891592229e+07   5.6404670201874422e+06   1.9321871169634789e+07   2.7202841464749057e+04   3.9070606766803041e+06   3.2366786636811852e+01   8.6645875385962590e+03   5.6410457672484482e-02   3.1444975364403561e+01   1.3299039002762756e-04   7.5551126717703976e-02   3.6185787109869219e-07   2.1864119162878033e-04   0.0000000000000000e+00   6.1717990406460473e-07   0.0000000000000000e+00   0.0000000000000000e+00   0.0000000000000000e+00   0.0000000000000000e+00   0.0000000000000000e+00   0.0000000000000000e+00   0.0000000000000000e+00   0.0000000000000000e+00   0.0000000000000000e+00   0.0000000000000000e+00   0.0000000000000000e+00   0.0000000000000000e+00   0.0000000000000000e+00   0.0000000000000000e+00   0.0000000000000000e+00   0.0000000000000000e+00   0.0000000000000000e+00   0.0000000000000000e+00   0.0000000000000000e+00   0.0000000000000000e+00   0.0000000000000000e+00   0.0000000000000000e+00   0.0000000000000000e+00   0.0000000000000000e+00   0.0000000000000000e+00   0.0000000000000000e+00   0.0000000000000000e+00   0.0000000000000000e+00   0.0000000000000000e+00   0.0000000000000000e+00   0.0000000000000000e+00   0.0000000000000000e+00   0.0000000000000000e+00   0.0000000000000000e+00   0.0000000000000000e+00   0.0000000000000000e+00   0.0000000000000000e+00   0.0000000000000000e+00   0.0000000000000000e+00   0.0000000000000000e+00   0.0000000000000000e+00   0.0000000000000000e+00   0.0000000000000000e+00   1.8034271558688429e-07   1.9356233408778529e-07   0.0000000000000000e+00   2.1067207558692123e-07   0.0000000000000000e+00   1.8953517459525026e-07   0.0000000000000000e+00   1.6263518922818901e-07   0.0000000000000000e+00   1.4488732140139316e-07   0.0000000000000000e+00   1.5722939800882833e-07   0.0000000000000000e+00   2.6948515900373190e-07   8.6457295770229359e-09   7.1875235789060154e-07   1.5895647619809350e-08   3.6951661404797055e-06   6.7985806614562725e-08   4.5706783508498396e-05   7.0798426243644327e-07   1.6719698156255377e-03   1.9330799927495641e-05   2.1241640464739886e-01   1.6939948546515020e-03   1.3106389362510268e+02   5.9824584270887249e-01   1.2550440710390506e+05   1.2663360658291219e+03   1.0722480188488649e+07   3.4715946874029846e+06   5.5242802279336629e+06   1.0505874302300701e+07   3.9296446959182429e+06   5.6032165873092758e+06   6.7036541406119876e+06   6.7882890544225154e+06   1.1727684417972842e+07   1.1044775541419949e+07   1.4275070590245901e+07   1.4766675172138939e+07   3.6980560179910609e+06   1.5203790085349672e+07   6.0856811371769778e+04   3.8431776910730903e+06   4.3335272331311836e+02   8.0489723639303265e+04   2.6005455104178177e+00   1.0876238260431237e+03   1.1150476231827272e-02   7.0611640743195050e+00   2.8216367724118661e-05   2.9906616787767570e-02   3.1225872662436294e-08   6.3353661455545828e-05   0.0000000000000000e+00   5.1358173552280425e-08   0.0000000000000000e+00   0.0000000000000000e+00   0.0000000000000000e+00   0.0000000000000000e+00   0.0000000000000000e+00   0.0000000000000000e+00   0.0000000000000000e+00   0.0000000000000000e+00   0.0000000000000000e+00   0.0000000000000000e+00   0.0000000000000000e+00   0.0000000000000000e+00   0.0000000000000000e+00   0.0000000000000000e+00   0.0000000000000000e+00   0.0000000000000000e+00   0.0000000000000000e+00   0.0000000000000000e+00   0.0000000000000000e+00   0.0000000000000000e+00   0.0000000000000000e+00   0.0000000000000000e+00   0.0000000000000000e+00   0.0000000000000000e+00   0.0000000000000000e+00   0.0000000000000000e+00   0.0000000000000000e+00   0.0000000000000000e+00   0.0000000000000000e+00   0.0000000000000000e+00   0.0000000000000000e+00   0.0000000000000000e+00   0.0000000000000000e+00   0.0000000000000000e+00   0.0000000000000000e+00   0.0000000000000000e+00   0.0000000000000000e+00   0.0000000000000000e+00   0.0000000000000000e+00   0.0000000000000000e+00   0.0000000000000000e+00   0.0000000000000000e+00   0.0000000000000000e+00   0.0000000000000000e+00   0.0000000000000000e+00   0.0000000000000000e+00   0.0000000000000000e+00   0.0000000000000000e+00   0.0000000000000000e+00   0.0000000000000000e+00   0.0000000000000000e+00   0.0000000000000000e+00   0.0000000000000000e+00   0.0000000000000000e+00   0.0000000000000000e+00   0.0000000000000000e+00   0.0000000000000000e+00   0.0000000000000000e+00   1.0095432285331614e-07   0.0000000000000000e+00   4.5593719823700546e-05   1.0184964193728354e-06   9.3929234993755661e-02   2.4309664317260105e-03   7.1103959584901042e+02   2.7856620354461128e+01   3.9479214461335195e+06   5.8220768038870592e+05   7.2863100932556400e+06   1.3527749525678890e+07   3.9216033841979392e+06   5.0336288320709309e+06   3.4174108274616357e+06   1.9673803298128108e+06   5.8168107167803841e+06   4.5701078564978093e+06   9.5175702832546718e+06   7.6750276094029360e+06   1.3089954114702910e+07   1.1062579128653808e+07   1.5473776031918792e+07   1.4680550929526877e+07   1.2825739032593099e+07   1.8190274357678376e+07   1.0280789849940132e+06   1.1610795395623175e+07   1.6202156711623438e+04   1.2630043954482214e+06   1.4144503425096570e+02   2.8728705662994758e+04   5.0504625866576736e-01   2.7741397255924750e+02   6.1412890533709655e-04   8.5718026058069130e-01   1.7606370708505709e-07   8.4252159507395685e-04   0.0000000000000000e+00   1.7108347141331323e-07   0.0000000000000000e+00   0.0000000000000000e+00   0.0000000000000000e+00   0.0000000000000000e+00   0.0000000000000000e+00   0.0000000000000000e+00   0.0000000000000000e+00   0.0000000000000000e+00   0.0000000000000000e+00   0.0000000000000000e+00   0.0000000000000000e+00   0.0000000000000000e+00   0.0000000000000000e+00   0.0000000000000000e+00   0.0000000000000000e+00   0.0000000000000000e+00   0.0000000000000000e+00   0.0000000000000000e+00   0.0000000000000000e+00   0.0000000000000000e+00   0.0000000000000000e+00   0.0000000000000000e+00   0.0000000000000000e+00   0.0000000000000000e+00   0.0000000000000000e+00   0.0000000000000000e+00   0.0000000000000000e+00   0.0000000000000000e+00   0.0000000000000000e+00   0.0000000000000000e+00   0.0000000000000000e+00   0.0000000000000000e+00   0.0000000000000000e+00   0.0000000000000000e+00   0.0000000000000000e+00   0.0000000000000000e+00   0.0000000000000000e+00   0.0000000000000000e+00   0.0000000000000000e+00   0.0000000000000000e+00   0.0000000000000000e+00   0.0000000000000000e+00   0.0000000000000000e+00   0.0000000000000000e+00   0.0000000000000000e+00   0.0000000000000000e+00   0.0000000000000000e+00   0.0000000000000000e+00   0.0000000000000000e+00   0.0000000000000000e+00   0.0000000000000000e+00   0.0000000000000000e+00   0.0000000000000000e+00   0.0000000000000000e+00   0.0000000000000000e+00   1.2807756658607564e-06   1.4240146608678856e-07   1.2074182951394008e-02   1.7114173460242388e-03   3.0796265852747172e+02   5.3640329783519128e+01   2.8851178655766132e+06   9.6642076886639348e+05   5.3963859898151737e+06   7.4645691204217449e+06   4.6389979141992712e+06   4.5839344143162593e+06   3.8028893549025189e+06   1.9189600983558479e+06   3.1966815523174275e+06   6.7391595408387401e+05   4.6096091018421287e+06   2.1355709330090573e+06   7.1772332406054484e+06   4.3922270424274821e+06   1.0173161123297602e+07   7.0986170199266104e+06   1.4029151128568392e+07   1.0683919151669411e+07   1.6374070596174624e+07   1.4690116509613164e+07   1.8945610315588981e+07   2.0210727160488855e+07   4.8242571583082480e+06   1.9609167549221445e+07   1.2948206616395703e+05   5.0983008139570439e+06   8.7063950012305111e+02   1.3569971008039062e+05   1.5608836975090898e+00   1.0630430495353939e+03   6.2417561590879622e-04   1.4241062641459747e+00   4.9005034736891465e-08   4.9343100217090941e-04   0.0000000000000000e+00   2.9776150275594511e-08   0.0000000000000000e+00   0.0000000000000000e+00   0.0000000000000000e+00   0.0000000000000000e+00   0.0000000000000000e+00   0.0000000000000000e+00   0.0000000000000000e+00   0.0000000000000000e+00   0.0000000000000000e+00   0.0000000000000000e+00   0.0000000000000000e+00   0.0000000000000000e+00   0.0000000000000000e+00   0.0000000000000000e+00   0.0000000000000000e+00   0.0000000000000000e+00   0.0000000000000000e+00   0.0000000000000000e+00   0.0000000000000000e+00   0.0000000000000000e+00   0.0000000000000000e+00   0.0000000000000000e+00   0.0000000000000000e+00   0.0000000000000000e+00   0.0000000000000000e+00   0.0000000000000000e+00   0.0000000000000000e+00   0.0000000000000000e+00   0.0000000000000000e+00   0.0000000000000000e+00   0.0000000000000000e+00   0.0000000000000000e+00   0.0000000000000000e+00   0.0000000000000000e+00   0.0000000000000000e+00   0.0000000000000000e+00   0.0000000000000000e+00   0.0000000000000000e+00   0.0000000000000000e+00   0.0000000000000000e+00   0.0000000000000000e+00   0.0000000000000000e+00   0.0000000000000000e+00   0.0000000000000000e+00   0.0000000000000000e+00   0.0000000000000000e+00   0.0000000000000000e+00   0.0000000000000000e+00   0.0000000000000000e+00   0.0000000000000000e+00   5.1803059891229373e-06   1.5520716523109627e-06   1.8944016508762432e-01   6.6549679639372000e-02   4.8926427916486582e+03   2.0175649957356893e+03   3.3437160967447395e+06   3.8089354966478287e+06   3.0288762072865753e+06   4.1590613461907408e+06   3.6057851071282458e+06   3.2249407326811552e+06   4.1526361378131774e+06   3.3406060252253581e+06   3.7373407225854439e+06   3.9405517315164721e+06   3.1126607664550385e+06   4.5339393438549936e+06   3.0038541875014412e+06   4.9779436987020103e+06   4.1104972511446495e+06   5.2083575960626509e+06   5.9411287117418628e+06   5.5362599209748879e+06   8.8745984245140720e+06   6.5316393167549185e+06   1.2787090774642644e+07   9.8564667817877643e+06   1.6870111744449832e+07   1.5123461619866285e+07   1.8555117134992998e+07   2.0345281554155461e+07   6.2498942291639047e+06   2.2314800674452242e+07   1.6647115378501659e+05   6.8551005440368969e+06   5.6320721754131853e+02   1.2597553237391355e+05   4.2194863463174859e-01   4.8357732976486636e+02   5.2298026013074588e-05   2.6597973239524242e-01   0.0000000000000000e+00   2.3582052598771376e-05   0.0000000000000000e+00   0.0000000000000000e+00   0.0000000000000000e+00   0.0000000000000000e+00   0.0000000000000000e+00   0.0000000000000000e+00   0.0000000000000000e+00   0.0000000000000000e+00   0.0000000000000000e+00   0.0000000000000000e+00   0.0000000000000000e+00   0.0000000000000000e+00   0.0000000000000000e+00   0.0000000000000000e+00   0.0000000000000000e+00   0.0000000000000000e+00   0.0000000000000000e+00   0.0000000000000000e+00   0.0000000000000000e+00   0.0000000000000000e+00   0.0000000000000000e+00   0.0000000000000000e+00   0.0000000000000000e+00   0.0000000000000000e+00   0.0000000000000000e+00   0.0000000000000000e+00   0.0000000000000000e+00   0.0000000000000000e+00   0.0000000000000000e+00   0.0000000000000000e+00   0.0000000000000000e+00   0.0000000000000000e+00   0.0000000000000000e+00   0.0000000000000000e+00   0.0000000000000000e+00   0.0000000000000000e+00   0.0000000000000000e+00   0.0000000000000000e+00   0.0000000000000000e+00   0.0000000000000000e+00   0.0000000000000000e+00   0.0000000000000000e+00   0.0000000000000000e+00   0.0000000000000000e+00   0.0000000000000000e+00   2.0268079555410490e-08   8.6510847960829124e-09   1.2117840567651781e-03   6.0271184968775985e-04   6.1346498335349295e+01   3.2387450398803779e+01   3.3486944213581563e+05   1.9639694453133069e+05   3.7933313440836347e+06   5.1686450962493243e+06   1.2833212420339247e+06   3.6826591357367882e+06   1.8452060256196263e+06   2.6961071364081148e+06   3.6727134928680067e+06   4.5465822590896497e+06   4.8451175995918512e+06   7.2890293818021305e+06   5.5614711455291575e+06   9.8996908218130805e+06   5.9424897975983890e+06   1.2171657203505920e+07   6.11988275