<?xml version="1.0"?>
<VTKFile type="UnstructuredGrid"  version="0.1"  >
<UnstructuredGrid>
<Piece  NumberOfPoints="2380" NumberOfCells="4561">
<Points>
<DataArray  type="Float64"  NumberOfComponents="3"  format="ascii">2.288260869565217 0 0  2.296521739130434 0 0  2.296521739130434 0.008333333333333333 0  2.304782608695652 0 0  2.304782608695652 0.008333333333333333 0  2.31304347826087 0 0  2.31304347826087 0.008333333333333333 0  2.321304347826087 0 0  2.321304347826087 0.008333333333333333 0  2.329565217391304 0 0  2.329565217391304 0.008333333333333333 0  2.337826086956521 0 0  2.337826086956521 0.008333333333333333 0  2.346086956521739 0 0  2.346086956521739 0.008333333333333333 0  2.354347826086956 0 0  2.354347826086956 0.008333333333333333 0  2.362608695652174 0 0  2.362608695652174 0.008333333333333333 0  2.370869565217391 0 0  2.370869565217391 0.008333333333333333 0  2.379130434782609 0 0  2.379130434782609 0.008333333333333333 0  2.387391304347826 0 0  2.387391304347826 0.008333333333333333 0  2.395652173913044 0 0  2.395652173913044 0.008333333333333333 0  2.403913043478261 0 0  2.403913043478261 0.008333333333333333 0  2.412173913043478 0 0  2.412173913043478 0.008333333333333333 0  2.420434782608695 0 0  2.420434782608695 0.008333333333333333 0  2.428695652173913 0 0  2.428695652173913 0.008333333333333333 0  2.43695652173913 0 0  2.43695652173913 0.008333333333333333 0  2.445217391304348 0 0  2.445217391304348 0.008333333333333333 0  2.453478260869565 0 0  2.453478260869565 0.008333333333333333 0  2.461739130434782 0 0  2.461739130434782 0.008333333333333333 0  2.47 0 0  2.47 0.008333333333333333 0  2.478260869565217 0 0  2.478260869565217 0.008333333333333333 0  2.486521739130435 0 0  2.486521739130435 0.008333333333333333 0  2.494782608695652 0 0  2.494782608695652 0.008333333333333333 0  2.503043478260869 0 0  2.503043478260869 0.008333333333333333 0  2.511304347826087 0 0  2.511304347826087 0.008333333333333333 0  2.519565217391305 0 0  2.519565217391305 0.008333333333333333 0  2.527826086956522 0 0  2.527826086956522 0.008333333333333333 0  2.536086956521739 0 0  2.536086956521739 0.008333333333333333 0  2.544347826086956 0 0  2.544347826086956 0.008333333333333333 0  2.552608695652174 0 0  2.552608695652174 0.008333333333333333 0  2.560869565217391 0 0  2.560869565217391 0.008333333333333333 0  2.569130434782608 0 0  2.569130434782608 0.008333333333333333 0  2.577391304347826 0 0  2.577391304347826 0.008333333333333333 0  2.585652173913043 0 0  2.585652173913043 0.008333333333333333 0  2.593913043478261 0 0  2.593913043478261 0.008333333333333333 0  2.602173913043478 0 0  2.602173913043478 0.008333333333333333 0  2.610434782608696 0.008333333333333333 0  2.304782608695652 0.01666666666666667 0  2.31304347826087 0.01666666666666667 0  2.321304347826087 0.01666666666666667 0  2.329565217391304 0.01666666666666667 0  2.337826086956521 0.01666666666666667 0  2.346086956521739 0.01666666666666667 0  2.354347826086956 0.01666666666666667 0  2.362608695652174 0.01666666666666667 0  2.370869565217391 0.01666666666666667 0  2.379130434782609 0.01666666666666667 0  2.387391304347826 0.01666666666666667 0  2.395652173913044 0.01666666666666667 0  2.403913043478261 0.01666666666666667 0  2.412173913043478 0.01666666666666667 0  2.420434782608695 0.01666666666666667 0  2.428695652173913 0.01666666666666667 0  2.43695652173913 0.01666666666666667 0  2.445217391304348 0.01666666666666667 0  2.453478260869565 0.01666666666666667 0  2.461739130434782 0.01666666666666667 0  2.47 0.01666666666666667 0  2.478260869565217 0.01666666666666667 0  2.486521739130435 0.01666666666666667 0  2.494782608695652 0.01666666666666667 0  2.503043478260869 0.01666666666666667 0  2.511304347826087 0.01666666666666667 0  2.519565217391305 0.01666666666666667 0  2.527826086956522 0.01666666666666667 0  2.536086956521739 0.01666666666666667 0  2.544347826086956 0.01666666666666667 0  2.552608695652174 0.01666666666666667 0  2.560869565217391 0.01666666666666667 0  2.569130434782608 0.01666666666666667 0  2.577391304347826 0.01666666666666667 0  2.585652173913043 0.01666666666666667 0  2.593913043478261 0.01666666666666667 0  2.602173913043478 0.01666666666666667 0  2.610434782608696 0.01666666666666667 0  2.618695652173913 0.01666666666666667 0  2.31304347826087 0.025 0  2.321304347826087 0.025 0  2.329565217391304 0.025 0  2.337826086956521 0.025 0  2.346086956521739 0.025 0  2.354347826086956 0.025 0  2.362608695652174 0.025 0  2.370869565217391 0.025 0  2.379130434782609 0.025 0  2.387391304347826 0.025 0  2.395652173913044 0.025 0  2.403913043478261 0.025 0  2.412173913043478 0.025 0  2.420434782608695 0.025 0  2.428695652173913 0.025 0  2.43695652173913 0.025 0  2.445217391304348 0.025 0  2.453478260869565 0.025 0  2.461739130434782 0.025 0  2.47 0.025 0  2.478260869565217 0.025 0  2.486521739130435 0.025 0  2.494782608695652 0.025 0  2.503043478260869 0.025 0  2.511304347826087 0.025 0  2.519565217391305 0.025 0  2.527826086956522 0.025 0  2.536086956521739 0.025 0  2.544347826086956 0.025 0  2.552608695652174 0.025 0  2.560869565217391 0.025 0  2.569130434782608 0.025 0  2.577391304347826 0.025 0  2.585652173913043 0.025 0  2.593913043478261 0.025 0  2.602173913043478 0.025 0  2.610434782608696 0.025 0  2.618695652173913 0.025 0  2.62695652173913 0.025 0  2.321304347826087 0.03333333333333333 0  2.329565217391304 0.03333333333333333 0  2.337826086956521 0.03333333333333333 0  2.346086956521739 0.03333333333333333 0  2.354347826086956 0.03333333333333333 0  2.362608695652174 0.03333333333333333 0  2.370869565217391 0.03333333333333333 0  2.379130434782609 0.03333333333333333 0  2.387391304347826 0.03333333333333333 0  2.395652173913044 0.03333333333333333 0  2.403913043478261 0.03333333333333333 0  2.412173913043478 0.03333333333333333 0  2.420434782608695 0.03333333333333333 0  2.428695652173913 0.03333333333333333 0  2.43695652173913 0.03333333333333333 0  2.445217391304348 0.03333333333333333 0  2.453478260869565 0.03333333333333333 0  2.461739130434782 0.03333333333333333 0  2.47 0.03333333333333333 0  2.478260869565217 0.03333333333333333 0  2.486521739130435 0.03333333333333333 0  2.494782608695652 0.03333333333333333 0  2.503043478260869 0.03333333333333333 0  2.511304347826087 0.03333333333333333 0  2.519565217391305 0.03333333333333333 0  2.527826086956522 0.03333333333333333 0  2.536086956521739 0.03333333333333333 0  2.544347826086956 0.03333333333333333 0  2.552608695652174 0.03333333333333333 0  2.560869565217391 0.03333333333333333 0  2.569130434782608 0.03333333333333333 0  2.577391304347826 0.03333333333333333 0  2.585652173913043 0.03333333333333333 0  2.593913043478261 0.03333333333333333 0  2.602173913043478 0.03333333333333333 0  2.610434782608696 0.03333333333333333 0  2.618695652173913 0.03333333333333333 0  2.62695652173913 0.03333333333333333 0  2.635217391304348 0.03333333333333333 0  2.329565217391304 0.04166666666666666 0  2.337826086956521 0.04166666666666666 0  2.346086956521739 0.04166666666666666 0  2.354347826086956 0.04166666666666666 0  2.362608695652174 0.04166666666666666 0  2.370869565217391 0.04166666666666666 0  2.379130434782609 0.04166666666666666 0  2.387391304347826 0.04166666666666666 0  2.395652173913044 0.04166666666666666 0  2.403913043478261 0.04166666666666666 0  2.412173913043478 0.04166666666666666 0  2.420434782608695 0.04166666666666666 0  2.428695652173913 0.04166666666666666 0  2.43695652173913 0.04166666666666666 0  2.445217391304348 0.04166666666666666 0  2.453478260869565 0.04166666666666666 0  2.461739130434782 0.04166666666666666 0  2.47 0.04166666666666666 0  2.478260869565217 0.04166666666666666 0  2.486521739130435 0.04166666666666666 0  2.494782608695652 0.04166666666666666 0  2.503043478260869 0.04166666666666666 0  2.511304347826087 0.04166666666666666 0  2.519565217391305 0.04166666666666666 0  2.527826086956522 0.04166666666666666 0  2.536086956521739 0.04166666666666666 0  2.544347826086956 0.04166666666666666 0  2.552608695652174 0.04166666666666666 0  2.560869565217391 0.04166666666666666 0  2.569130434782608 0.04166666666666666 0  2.577391304347826 0.04166666666666666 0  2.585652173913043 0.04166666666666666 0  2.593913043478261 0.04166666666666666 0  2.602173913043478 0.04166666666666666 0  2.610434782608696 0.04166666666666666 0  2.618695652173913 0.04166666666666666 0  2.62695652173913 0.04166666666666666 0  2.635217391304348 0.04166666666666666 0  2.643478260869565 0.04166666666666666 0  2.337826086956521 0.05 0  2.346086956521739 0.05 0  2.354347826086956 0.05 0  2.362608695652174 0.05 0  2.370869565217391 0.05 0  2.379130434782609 0.05 0  2.387391304347826 0.05 0  2.395652173913044 0.05 0  2.403913043478261 0.05 0  2.412173913043478 0.05 0  2.420434782608695 0.05 0  2.428695652173913 0.05 0  2.43695652173913 0.05 0  2.445217391304348 0.05 0  2.453478260869565 0.05 0  2.461739130434782 0.05 0  2.47 0.05 0  2.478260869565217 0.05 0  2.486521739130435 0.05 0  2.494782608695652 0.05 0  2.503043478260869 0.05 0  2.511304347826087 0.05 0  2.519565217391305 0.05 0  2.527826086956522 0.05 0  2.536086956521739 0.05 0  2.544347826086956 0.05 0  2.552608695652174 0.05 0  2.560869565217391 0.05 0  2.569130434782608 0.05 0  2.577391304347826 0.05 0  2.585652173913043 0.05 0  2.593913043478261 0.05 0  2.602173913043478 0.05 0  2.610434782608696 0.05 0  2.618695652173913 0.05 0  2.62695652173913 0.05 0  2.635217391304348 0.05 0  2.643478260869565 0.05 0  2.651739130434783 0.05 0  2.346086956521739 0.05833333333333333 0  2.354347826086956 0.05833333333333333 0  2.362608695652174 0.05833333333333333 0  2.370869565217391 0.05833333333333333 0  2.379130434782609 0.05833333333333333 0  2.387391304347826 0.05833333333333333 0  2.395652173913044 0.05833333333333333 0  2.403913043478261 0.05833333333333333 0  2.412173913043478 0.05833333333333333 0  2.420434782608695 0.05833333333333333 0  2.428695652173913 0.05833333333333333 0  2.43695652173913 0.05833333333333333
[...]
<CellData  Scalars="rho_bar"> 
<DataArray  type="Float64"  Name="rho_bar"  format="ascii">9.9999999998806255e-01   9.9999999998905975e-01   9.9999999997495481e-01   9.9999999998873335e-01   9.9999999997537681e-01   9.9999999998675160e-01   9.9999999997237499e-01   9.9999999998227507e-01   9.9999999996445843e-01   9.9999999997383382e-01   9.9999999994858624e-01   9.9999999996024247e-01   9.9999999992082500e-01   9.9999999994497246e-01   9.9999999988292410e-01   9.9999999994150801e-01   9.9999999985759946e-01   9.9999999996057209e-01   9.9999999988145249e-01   9.9999999998624223e-01   9.9999999994444944e-01   9.9999999999792633e-01   9.9999999998796685e-01   9.9999999999987488e-01   9.9999999999896771e-01   9.9999999999999678e-01   9.9999999999996614e-01   1.0000000000000000e+00   9.9999999999999956e-01   9.9999999999999978e-01   9.9999999999999978e-01   1.0000000000000000e+00   1.0000000000000000e+00   1.0000000000000000e+00   1.0000000000000000e+00   9.9999999999999978e-01   9.9999999999999978e-01   1.0000000000000000e+00   1.0000000000000000e+00   9.9999999999999978e-01   9.9999999999999978e-01   9.9999999999999978e-01   9.9999999999999978e-01   9.9999999999999978e-01   9.9999999999999978e-01   1.0000000000000000e+00   1.0000000000000000e+00   9.9999999999999978e-01   9.9999999999999978e-01   1.0000000000000000e+00   1.0000000000000000e+00   1.0000000000000000e+00   1.0000000000000000e+00   9.9999999999999989e-01   9.9999999999999989e-01   9.9999999999997247e-01   9.9999999999998623e-01   9.9999999999606837e-01   9.9999999999754818e-01   9.9999999978300091e-01   9.9999999981837440e-01   9.9999999623706770e-01   9.9999999558891417e-01   9.9999997870278523e-01   9.9999996530175095e-01   9.9999995066629122e-01   9.9999989536648903e-01   9.9999994020206551e-01   9.9999984744733883e-01   9.9999995254491014e-01   9.9999986533703589e-01   9.9999997017801434e-01   9.9999991191209470e-01   9.9999998259274336e-01   9.9999994923727020e-01   9.9999997032166144e-01   9.9999999738431833e-01   9.9999999731763090e-01   9.9999997934136020e-01   9.9999999675389240e-01   9.9999997660657802e-01   9.9999999534406436e-01   9.9999996826036397e-01   9.9999999224595792e-01   9.9999994882857868e-01   9.9999998584044969e-01   9.9999990584261811e-01   9.9999997536690255e-01   9.9999982260093989e-01   9.9999996717007833e-01   9.9999971828071843e-01   9.9999997296693821e-01   9.9999969694793944e-01   9.9999998947496371e-01   9.9999982477729588e-01   9.9999999861195288e-01   9.9999995905172456e-01   9.9999999994706423e-01   9.9999999702057651e-01   9.9999999999932621e-01   9.9999999993729172e-01   9.9999999999999634e-01   9.9999999999954259e-01   9.9999999999999978e-01   9.9999999999999811e-01   1.0000000000000000e+00   1.0000000000000000e+00   1.0000000000000000e+00   1.0000000000000000e+00   9.9999999999999978e-01   9.9999999999999978e-01   1.0000000000000000e+00   1.0000000000000000e+00   9.9999999999999978e-01   9.9999999999999978e-01   9.9999999999999978e-01   9.9999999999999978e-01   9.9999999999999978e-01   9.9999999999999978e-01   1.0000000000000000e+00   1.0000000000000000e+00   9.9999999999999978e-01   9.9999999999999978e-01   1.0000000000000000e+00   1.0000000000000000e+00   1.0000000000000000e+00   1.0000000000000000e+00   9.9999999999997280e-01   9.9999999999996880e-01   9.9999999998499700e-01   9.9999999997757349e-01   9.9999999574618703e-01   9.9999999101886150e-01   9.9999963949721293e-01   9.9999882843211374e-01   9.9999338918687886e-01   9.9996566241824492e-01   9.9997072561008049e-01   9.9976797913966786e-01   9.9995063927040662e-01   9.9948917877223675e-01   9.9995657059324250e-01   9.9946942595872224e-01   9.9997411654115997e-01   9.9965971352275840e-01   9.9998721127901447e-01   9.9983185414162279e-01   9.9999376661287487e-01   9.9992309825891956e-01   9.9999655415032307e-01   9.9996179967046006e-01   9.9997704055806713e-01   9.9981467779255873e-01   9.9977012038820612e-01   9.9491083194548102e-01   9.9963637032496022e-01   9.9261118114114211e-01   9.9926428847524063e-01   9.8608080474539861e-01   9.9809785555064690e-01   9.6636725705137205e-01   9.9470984537362306e-01   9.1139332798423500e-01   9.8891139102043379e-01   8.1888973386070696e-01   9.8549330572187233e-01   7.4657108628056590e-01   9.9175756100683199e-01   7.6099791157480701e-01   9.9884272387923090e-01   8.9572647720966725e-01   9.9997212769717014e-01   9.9156488925946518e-01   9.9999987069453355e-01   9.9990902802865500e-01   9.9999999982041077e-01   9.9999980243547126e-01   9.9999999999985167e-01   9.9999999985045673e-01   9.9999999999999967e-01   9.9999999999991718e-01   9.9999999999999989e-01   9.9999999999999989e-01   1.0000000000000000e+00   1.0000000000000000e+00   9.9999999999999989e-01   9.9999999999999989e-01   1.0000000000000000e+00   1.0000000000000000e+00   9.9999999999999989e-01   9.9999999999999989e-01   1.0000000000000000e+00   1.0000000000000000e+00   9.9999999999999989e-01   9.9999999999999989e-01   1.0000000000000000e+00   1.0000000000000000e+00   9.9999999999999956e-01   9.9999999999999956e-01   9.9999999999949585e-01   9.9999999999913958e-01   9.9999999840114451e-01   9.9999999610290502e-01   9.9999683958476959e-01   9.9998806350589620e-01   9.9768713111163398e-01   9.8669586758534145e-01   8.2536417128747697e-01   5.8353995715952522e-01   6.7117707249765401e-01   3.3628770669164570e-01   6.3803630413095069e-01   2.5619761290617582e-01   6.2056459147492216e-01   1.8631721923508021e-01   6.3274871584825443e-01   1.8979153095620169e-01   6.5832991911274585e-01   2.3804749493975974e-01   6.9325588872128596e-01   2.9129551987725000e-01   7.4842267852179134e-01   3.3162707757658799e-01   8.0922878396177034e-01   3.6851565057175262e-01   8.4927846152491959e-01   4.0459212564333435e-01   4.2762808967243149e-01   2.9322547996775145e-01   2.4218218654887633e-01   7.4208562136949437e-03   1.6478796848565327e-01   4.0365996378300597e-03   8.2503655366426565e-02   1.6750597012272124e-03   3.0309120909874032e-02   5.4907835157515705e-04   1.1333593487103869e-02   1.7864702572968161e-04   6.4151161388932105e-03   8.6624875377009733e-05   7.8328028118126065e-03   7.8175224670064714e-05   3.6345992086594267e-02   2.0511053039690139e-04   3.3808478442762691e-01   2.7691124562737404e-03   6.9768905205701792e-01   1.4509516181718657e-01   9.9853766361321261e-01   6.0094789441643803e-01   9.9999975251959450e-01   9.9836607240076736e-01   9.9999999997184164e-01   9.9999983462486719e-01   9.9999999999999301e-01   9.9999999998554590e-01   1.0000000000000000e+00   9.9999999999999667e-01   9.9999999999999989e-01   9.9999999999999989e-01   1.0000000000000000e+00   1.0000000000000000e+00   9.9999999999999989e-01   9.9999999999999989e-01   1.0000000000000000e+00   1.0000000000000000e+00   9.9999999999999989e-01   9.9999999999999989e-01   9.9999999999999667e-01   9.9999999999999423e-01   9.9999999997820688e-01   9.9999999995579025e-01   9.9999969678864664e-01   9.9999921666256653e-01   9.9657665164297227e-01   9.8816138967467904e-01   6.6482151159386271e-01   4.5723943758313840e-01   2.3462260335534904e-01   8.6879187360095408e-02   1.8267873132434089e-03   1.6948971109815669e-04   2.4011109333578931e-05   1.3236432181614368e-06   2.3829592094108203e-06   6.6827986403931533e-08   1.3621147600488088e-06   1.9201917454229427e-08   2.4564678432111476e-06   2.0668724879750276e-08   7.4078312727506512e-06   4.9488313789517825e-08   2.6248306764092847e-05   1.5715664681651789e-07   8.9600442159313648e-05   5.4251797347119423e-07   2.3716451496008645e-04   1.6358744335624269e-06   4.3600381361609075e-04   3.4966892970185919e-06   5.6324775696792162e-04   5.1027976920858809e-06   5.3072986139120664e-06   2.5365070229395785e-09   1.2214455743138803e-09   1.3635611158709555e-11   4.7852890168916440e-10   6.5407864309937233e-12   1.7678619679273311e-10   2.9067119082052764e-12   8.0424472637119480e-11   1.4616456193531726e-12   6.3869715072328859e-11   1.1353233168402237e-12   1.2012621453116876e-10   1.8156124751792882e-12   8.5770148391025204e-10   7.6795144317761307e-12   3.6491481299657132e-08   1.3868292625396348e-10   1.0451451897162492e-05   1.3623530840482326e-08   1.6722093697120539e-02   7.6697461100135468e-06   6.2397708501770921e-01   2.0464051074383899e-02   9.9983377141654384e-01   7.1265740151914969e-01   9.9999999421499564e-01   9.9993502514731636e-01   9.9999999999949629e-01   9.9999999778801529e-01   9.9999999999999944e-01   9.9999999999974187e-01   1.0000000000000000e+00   9.9999999999999967e-01   9.9999999999999989e-01   9.9999999999999989e-01   9.9999999999999978e-01   9.9999999999999967e-01   9.9999999999993050e-01   9.9999999999985412e-01   9.9999999941616491e-01   9.9999999889477709e-01   9.9998387004264622e-01   9.9996754379341413e-01   8.2302147004394188e-01   7.6943031097018610e-01   3.1444662745170499e-01   2.4760138072466598e-01   3.2050934753692178e-04   1.0470881174071135e-04   1.3009412155873257e-07   3.5211143639690690e-08   2.5436322492744523e-10   5.0716865892160464e-11   2.8141193079515375e-12   3.7270186936666495e-13   1.5718907656984507e-13   1.2527016461187179e-14   3.7007434154171883e-14   1.6468308198606487e-15   2.9245124840334328e-14   6.8463753185217980e-16   5.0172828854518522e-14   7.4940054162198066e-16   1.1956176789359077e-13   1.2582527612418439e-15   3.1040910582665521e-13   2.6182759664076607e-15   7.0227157422664267e-13   5.4308409621247238e-15   1.1697679861792190e-12   9.1223325190033701e-15   1.3688772337872024e-12   1.1176245114559910e-14   1.1614783209286845e-12   1.0038266514319124e-14   6.9203901868301419e-15   0.0000000000000000e+00   0.0000000000000000e+00   0.0000000000000000e+00   0.0000000000000000e+00   0.0000000000000000e+00   0.0000000000000000e+00   0.0000000000000000e+00   0.0000000000000000e+00   0.0000000000000000e+00   3.7007434154171883e-17   0.0000000000000000e+00   5.3660779523549230e-16   0.0000000000000000e+00   3.1104748406581465e-14   2.3129646346357425e-16   7.4051968261083305e-12   2.6284530108000575e-14   7.1757537041990584e-09   1.1343870287561231e-11   2.6926342016037049e-05   1.8301981957735691e-08   1.8425542681667970e-01   1.0428791613572204e-04   9.9038828952193358e-01   4.2670325480758020e-01   9.9999971754798989e-01   9.9822290246518963e-01   9.9999999997597822e-01   9.9999993438542056e-01   9.9999999999994460e-01   9.9999999998695965e-01   9.9999999999998024e-01   9.9999999999977263e-01   9.9999999999871292e-01   9.9999999999662259e-01   9.9999999621978664e-01   9.9999999410176732e-01   9.9992000671483316e-01   9.9989909159013235e-01   7.0002604678833158e-01   6.8623115449509964e-01   6.0151862342416450e-02   5.3230136594558171e-02   4.0505698052084585e-06   3.2359452917611145e-06   7.1616539550530456e-10   4.9120790768242273e-10   4.9059830272331796e-13   2.7323513821878953e-13   1.2582527612418439e-15   5.2735593669694926e-16   9.2518585385429707e-18   0.0000000000000000e+00   0.0000000000000000e+00   0.0000000000000000e+00   0.0000000000000000e+00   0.0000000000000000e+00   0.0000000000000000e+00   0.0000000000000000e+00   0.0000000000000000e+00   0.0000000000000000e+00   0.0000000000000000e+00   0.0000000000000000e+00   0.0000000000000000e+00   0.0000000000000000e+00   0.0000000000000000e+00   0.0000000000000000e+00   0.0000000000000000e+00   0.0000000000000000e+00   0.0000000000000000e+00   0.0000000000000000e+00   0.0000000000000000e+00   0.0000000000000000e+00   0.0000000000000000e+00   0.0000000000000000e+00   0.0000000000000000e+00   0.0000000000000000e+00   0.0000000000000000e+00   0.0000000000000000e+00   0.0000000000000000e+00   0.0000000000000000e+00   0.0000000000000000e+00   0.0000000000000000e+00   0.0000000000000000e+00   0.0000000000000000e+00   0.0000000000000000e+00   0.0000000000000000e+00   0.0000000000000000e+00   0.0000000000000000e+00   2.4980018054066022e-16   0.0000000000000000e+00   1.9831358777366859e-13   1.2027416100105861e-15   4.6844173910246890e-10   1.7501555760190972e-12   3.1665697428813937e-06   7.2096570750505374e-09   4.4332420368679168e-02   7.3621146519884745e-05   9.7992398094528033e-01   4.1967777466093847e-01   9.9999916795317811e-01   9.9928454949982981e-01   9.9999999974378273e-01   9.9999993856842651e-01   9.9999999997378175e-01   9.9999999975580811e-01   9.9999999755513524e-01   9.9999999699839659e-01   9.9998543758292591e-01   9.9999116672476540e-01   8.3827426101309255e-01   8.9588923198040160e-01   5.4253000831622905e-02   9.7451048061849690e-02   2.9405568419312478e-06   6.0338733620009704e-06   3.2114646127586366e-10   5.8181548467928224e-10   9.5988032337383317e-14   1.4515240861120068e-13   8.3266726846886728e-17   1.0177044392397267e-16   0.0000000000000000e+00   0.0000000000000000e+00   0.0000000000000000e+00   0.0000000000000000e+00   0.0000000000000000e+00   0.0000000000000000e+00   0.0000000000000000e+00   0.0000000000000000e+00   0.0000000000000000e+00   0.0000000000000000e+00   0.0000000000000000e+00   0.0000000000000000e+00   0.0000000000000000e+00   0.0000000000000000e+00   0.0000000000000000e+00   0.0000000000000000e+00   0.0000000000000000e+00   0.0000000000000000e+00   0.0000000000000000e+00   0.0000000000000000e+00   0.0000000000000000e+00   0.0000000000000000e+00   0.0000000000000000e+00   0.0000000000000000e+00   0.0000000000000000e+00   0.0000000000000000e+00   0.0000000000000000e+00   0.0000000000000000e+00   0.0000000000000000e+00   0.0000000000000000e+00   0.0000000000000000e+00   0.0000000000000000e+00   0.0000000000000000e+00   0.0000000000000000e+00   0.0000000000000000e+00   0.0000000000000000e+00   0.0000000000000000e+00   0.0000000000000000e+00   0.0000000000000000e+00   0.0000000000000000e+00   0.0000000000000000e+00   0.0000000000000000e+00   3.4231876592608980e-16   9.2518585385429691e-18   7.6567456079127772e-13   2.1982415887578100e-14   4.3302065544370541e-09   1.1166320645905613e-10   5.5003750557031106e-05   1.3509475101832387e-06   3.9693526421641107e-01   3.1236355160699166e-02   9.9922192659422304e-01   9.7430435138738247e-01   9.9999990497297597e-01   9.9999852089736074e-01   9.9999999897219560e-01   9.9999999754230007e-01   9.9999995389155372e-01   9.9999998905726428e-01   9.9964273721245789e-01   9.9996397393683278e-01   3.7673009472355351e-01   7.4479423512073051e-01   2.2549150544919530e-04   2.0347068392831302e-03   1.5273166768340708e-08   1.1114378599870930e-07   2.1390759534038271e-12   1.2230660928480571e-11   7.0314124892926587e-16   3.0623651762577233e-15   0.0000000000000000e+00   0.0000000000000000e+00   0.0000000000000000e+00   0.0000000000000000e+00   0.0000000000000000e+00   0.0000000000000000e+00   0.0000000000000000e+00   0.0000000000000000e+00   0.0000000000000000e+00   0.0000000000000000e+00   0.0000000000000000e+00   0.0000000000000000e+00   0.0000000000000000e+00   0.0000000000000000e+00   0.0000000000000000e+00   0.0000000000000000e+00   0.0000000000000000e+00   0.0000000000000000e+00   0.0000000000000000e+00   0.0000000000000000e+00   0.0000000000000000e+00   0.0000000000000000e+00   0.0000000000000000e+00   0.0000000000000000e+00   0.0000000000000000e+00   0.0000000000000000e+00   0.0000000000000000e+00   0.0000000000000000e+00   0.0000000000000000e+00   0.0000000000000000e+00   0.0000000000000000e+00   0.0000000000000000e+00   0.0000000000000000e+00   0.0000000000000000e+00   0.0000000000000000e+00   0.0000000000000000e+00   0.0000000000000000e+00   0.0000000000000000e+00   0.0000000000000000e+00   0.0000000000000000e+00   0.0000000000000000e+00   0.0000000000000000e+00   0.0000000000000000e+00   0.0000000000000000e+00   4.6259292692714852e-17   0.0000000000000000e+00   1.5538496415482924e-13   2.4138098927058614e-14   1.3992325261410104e-09   2.2003214990758601e-10   3.2582136624918296e-05   5.3195827727318479e-06   3.8922958406849528e-01   1.5674904358044425e-01   9.9750983151735018e-01   9.8839787916497956e-01   9.9999978666944944e-01   9.9999944941038299e-01   9.9999999894063940e-01   9.9999999926522909e-01   9.9999998589318007e-01   9.9999999939989526e-01   9.9991613369890620e-01   9.9999946092672876e-01   5.4283742493375986e-01   9.8168143258691409e-01   2.2049783441629073e-04   2.8001477849298750e-02   1.0984349994395494e-08   7.9458969236741639e-07   1.1619871731483043e-12   4.8558610836006239e-11   2.5905203907920321e-16   6.9944050551384854e-15   0.0000000000000000e+00   0.0000000000000000e+00   0.0000000000000000e+00   0.0000000000000000e+00   0.0000000000000000e+00   0.0000000000000000e+00   0.0000000000000000e+00   0.0000000000000000e+00   0.0000000000000000e+00   0.0000000000000000e+00   0.0000000000000000e+00   0.0000000000000000e+00   0.0000000000000000e+00   0.0000000000000000e+00   0.0000000000000000e+00   0.0000000000000000e+00   0.0000000000000000e+00   0.0000000000000000e+00   0.0000000000000000e+00   0.0000000000000000e+00   0.0000000000000000e+00   0.0000000000000000e+00   0.0000000000000000e+00   0.0000000000000000e+00   0.0000000000000000e+00   0.0000000000000000e+00   0.0000000000000000e+00   0.0000000000000000e+00   0.0000000000000000e+00   0.0000000000000000e+00   0.0000000000000000e+00   0.0000000000000000e+00   0.0000000000000000e+00   0.0000000000000000e+00   0.0000000000000000e+00   0.0000000000000000e+00   0.0000000000000000e+00   0.0000000000000000e+00   0.0000000000000000e+00   0.0000000000000000e+00   0.0000000000000000e+00   0.0000000000000000e+00   0.0000000000000000e+00   0.0000000000000000e+00   5.2735593669694916e-16   2.0354088784794533e-16   4.2564470466762340e-12   1.7252218172577232e-12   9.6350006898819133e-08   3.8958893601911023e-08   5.2922637666074262e-03   2.1607046741342331e-03   6.8565612899477479e-01   5.5333891014239578e-01   9.9994061003111656e-01   9.9987373044172290e-01   9.9999999372777371e-01   9.9999999135159579e-01   9.9999999995930355e-01   9.9999999997841771e-01   9.9999999982577792e-01   9.9999999999003841e-01   9.9999973813121412e-01   9.9999999903938097e-01   9.9055851016857543e-01   9.9999327928864068e-01   5.4848322980572989e-02   7.7055145216931320e-01   1.2138108378782300e-06   1.4749131083346778e-03   5.9302424082474646e-11   3.1712155198112172e-08   6.7816123087519981e-15   1.7579733964841659e-12   0.0000000000000000e+00   2.1279274638648835e-16   0.0000000000000000e+00   0.0000000000000000e+00   0.0000000000000000e+00   0.0000000000000000e+00   0.0000000000000000e+00   0.0000000000000000e+00   0.0000000000000000e+00   0.0000000000000000e+00   0.0000000000000000e+00   0.0000000000000000e+00   0.0000000000000000e+00   0.0000000000000000e+00   0.0000000000000000e+00   0.0000000000000000e+00   0.0000000000000000e+00   0.0000000000000000e+00   0.0000000000000000e+00   0.0000000000000000e+00   0.0000000000000000e+00   0.0000000000000000e+00   0.0000000000000000e+00   0.0000000000000000e+00   0.0000000000000000e+00   0.0000000000000000e+00   0.0000000000000000e+00   0.0000000000000000e+00   0.0000000000000000e+00   0.0000000000000000e+00   0.0000000000000000e+00   0.0000000000000000e+00   0.0000000000000000e+00   0.0000000000000000e+00   0.0000000000000000e+00   0.0000000000000000e+00   0.0000000000000000e+00   0.0000000000000000e+00   0.0000000000000000e+00   0.0000000000000000e+00   0.0000000000000000e+00   0.0000000000000000e+00   3.7007434154171876e-17   2.7755575615628914e-17   4.5719909339917797e-13   3.4574195358535082e-13   1.0198648249989024e-08   8.1680747258487206e-09   4.3673136486768738e-04   3.4684983054067404e-04   4.6207563713139937e-01   4.0608618130849877e-01   9.9728580478158568e-01   9.9595976663770558e-01   9.9999989995221017e-01   9.9999985242695910e-01   9.9999999996059619e-01   9.9999999995418587e-01   9.9999999999922418e-01   9.9999999999954070e-01   9.9999999999828593e-01   9.9999999999976852e-01   9.9999999972461151e-01   9.9999999999525169e-01   9.9999859505705402e-01   9.9999999765254721e-01   9.5148077748414417e-01   9.9998296286621680e-01   2.1590579143468219e-02   6.9155549704116814e-01   4.2110365180980653e-07   1.9051363904142766e-03   1.4793129684183743e-11   4.16670691