<?xml version="1.0"?>
<VTKFile type="UnstructuredGrid"  version="0.1"  >
<UnstructuredGrid>
<Piece  NumberOfPoints="2404" NumberOfCells="4573">
<Points>
<DataArray  type="Float64"  NumberOfComponents="3"  format="ascii">0 0 0  0.008260869565217391 0 0  0.008260869565217391 0.008333333333333333 0  0 0.008333333333333333 0  0.01652173913043478 0 0  0.01652173913043478 0.008333333333333333 0  0.02478260869565217 0 0  0.02478260869565217 0.008333333333333333 0  0.03304347826086956 0 0  0.03304347826086956 0.008333333333333333 0  0.04130434782608695 0 0  0.04130434782608695 0.008333333333333333 0  0.04956521739130434 0 0  0.04956521739130434 0.008333333333333333 0  0.05782608695652174 0 0  0.05782608695652174 0.008333333333333333 0  0.06608695652173913 0 0  0.06608695652173913 0.008333333333333333 0  0.07434782608695652 0 0  0.07434782608695652 0.008333333333333333 0  0.08260869565217391 0 0  0.08260869565217391 0.008333333333333333 0  0.0908695652173913 0 0  0.0908695652173913 0.008333333333333333 0  0.09913043478260869 0 0  0.09913043478260869 0.008333333333333333 0  0.1073913043478261 0 0  0.1073913043478261 0.008333333333333333 0  0.1156521739130435 0 0  0.1156521739130435 0.008333333333333333 0  0.1239130434782609 0 0  0.1239130434782609 0.008333333333333333 0  0.1321739130434783 0 0  0.1321739130434783 0.008333333333333333 0  0.1404347826086956 0 0  0.1404347826086956 0.008333333333333333 0  0.148695652173913 0 0  0.148695652173913 0.008333333333333333 0  0.1569565217391304 0 0  0.1569565217391304 0.008333333333333333 0  0.1652173913043478 0 0  0.1652173913043478 0.008333333333333333 0  0.1734782608695652 0 0  0.1734782608695652 0.008333333333333333 0  0.1817391304347826 0 0  0.1817391304347826 0.008333333333333333 0  0.19 0 0  0.19 0.008333333333333333 0  0.1982608695652174 0 0  0.1982608695652174 0.008333333333333333 0  0.2065217391304348 0 0  0.2065217391304348 0.008333333333333333 0  0.2147826086956522 0 0  0.2147826086956522 0.008333333333333333 0  0.2230434782608696 0 0  0.2230434782608696 0.008333333333333333 0  0.2313043478260869 0 0  0.2313043478260869 0.008333333333333333 0  0.2395652173913043 0 0  0.2395652173913043 0.008333333333333333 0  0.2478260869565218 0 0  0.2478260869565218 0.008333333333333333 0  0.2560869565217391 0 0  0.2560869565217391 0.008333333333333333 0  0.2643478260869565 0 0  0.2643478260869565 0.008333333333333333 0  0.2726086956521739 0 0  0.2726086956521739 0.008333333333333333 0  0.2808695652173913 0 0  0.2808695652173913 0.008333333333333333 0  0.2891304347826087 0 0  0.2891304347826087 0.008333333333333333 0  0.2973913043478261 0 0  0.2973913043478261 0.008333333333333333 0  0.3056521739130434 0 0  0.3056521739130434 0.008333333333333333 0  0.008260869565217391 0.01666666666666667 0  0 0.01666666666666667 0  0.01652173913043478 0.01666666666666667 0  0.02478260869565217 0.01666666666666667 0  0.03304347826086956 0.01666666666666667 0  0.04130434782608695 0.01666666666666667 0  0.04956521739130434 0.01666666666666667 0  0.05782608695652174 0.01666666666666667 0  0.06608695652173913 0.01666666666666667 0  0.07434782608695652 0.01666666666666667 0  0.08260869565217391 0.01666666666666667 0  0.0908695652173913 0.01666666666666667 0  0.09913043478260869 0.01666666666666667 0  0.1073913043478261 0.01666666666666667 0  0.1156521739130435 0.01666666666666667 0  0.1239130434782609 0.01666666666666667 0  0.1321739130434783 0.01666666666666667 0  0.1404347826086956 0.01666666666666667 0  0.148695652173913 0.01666666666666667 0  0.1569565217391304 0.01666666666666667 0  0.1652173913043478 0.01666666666666667 0  0.1734782608695652 0.01666666666666667 0  0.1817391304347826 0.01666666666666667 0  0.19 0.01666666666666667 0  0.1982608695652174 0.01666666666666667 0  0.2065217391304348 0.01666666666666667 0  0.2147826086956522 0.01666666666666667 0  0.2230434782608696 0.01666666666666667 0  0.2313043478260869 0.01666666666666667 0  0.2395652173913043 0.01666666666666667 0  0.2478260869565218 0.01666666666666667 0  0.2560869565217391 0.01666666666666667 0  0.2643478260869565 0.01666666666666667 0  0.2726086956521739 0.01666666666666667 0  0.2808695652173913 0.01666666666666667 0  0.2891304347826087 0.01666666666666667 0  0.2973913043478261 0.01666666666666667 0  0.3056521739130434 0.01666666666666667 0  0.3139130434782609 0.01666666666666667 0  0.008260869565217391 0.025 0  0 0.025 0  0.01652173913043478 0.025 0  0.02478260869565217 0.025 0  0.03304347826086956 0.025 0  0.04130434782608695 0.025 0  0.04956521739130434 0.025 0  0.05782608695652174 0.025 0  0.06608695652173913 0.025 0  0.07434782608695652 0.025 0  0.08260869565217391 0.025 0  0.0908695652173913 0.025 0  0.09913043478260869 0.025 0  0.1073913043478261 0.025 0  0.1156521739130435 0.025 0  0.1239130434782609 0.025 0  0.1321739130434783 0.025 0  0.1404347826086956 0.025 0  0.148695652173913 0.025 0  0.1569565217391304 0.025 0  0.1652173913043478 0.025 0  0.1734782608695652 0.025 0  0.1817391304347826 0.025 0  0.19 0.025 0  0.1982608695652174 0.025 0  0.2065217391304348 0.025 0  0.2147826086956522 0.025 0  0.2230434782608696 0.025 0  0.2313043478260869 0.025 0  0.2395652173913043 0.025 0  0.2478260869565218 0.025 0  0.2560869565217391 0.025 0  0.2643478260869565 0.025 0  0.2726086956521739 0.025 0  0.2808695652173913 0.025 0  0.2891304347826087 0.025 0  0.2973913043478261 0.025 0  0.3056521739130434 0.025 0  0.3139130434782609 0.025 0  0.3221739130434783 0.01666666666666667 0  0.3221739130434783 0.025 0  0.3304347826086956 0.025 0  0.008260869565217391 0.03333333333333333 0  0 0.03333333333333333 0  0.01652173913043478 0.03333333333333333 0  0.02478260869565217 0.03333333333333333 0  0.03304347826086956 0.03333333333333333 0  0.04130434782608695 0.03333333333333333 0  0.04956521739130434 0.03333333333333333 0  0.05782608695652174 0.03333333333333333 0  0.06608695652173913 0.03333333333333333 0  0.07434782608695652 0.03333333333333333 0  0.08260869565217391 0.03333333333333333 0  0.0908695652173913 0.03333333333333333 0  0.09913043478260869 0.03333333333333333 0  0.1073913043478261 0.03333333333333333 0  0.1156521739130435 0.03333333333333333 0  0.1239130434782609 0.03333333333333333 0  0.1321739130434783 0.03333333333333333 0  0.1404347826086956 0.03333333333333333 0  0.148695652173913 0.03333333333333333 0  0.1569565217391304 0.03333333333333333 0  0.1652173913043478 0.03333333333333333 0  0.1734782608695652 0.03333333333333333 0  0.1817391304347826 0.03333333333333333 0  0.19 0.03333333333333333 0  0.1982608695652174 0.03333333333333333 0  0.2065217391304348 0.03333333333333333 0  0.2147826086956522 0.03333333333333333 0  0.2230434782608696 0.03333333333333333 0  0.2313043478260869 0.03333333333333333 0  0.2395652173913043 0.03333333333333333 0  0.2478260869565218 0.03333333333333333 0  0.2560869565217391 0.03333333333333333 0  0.2643478260869565 0.03333333333333333 0  0.2726086956521739 0.03333333333333333 0  0.2808695652173913 0.03333333333333333 0  0.2891304347826087 0.03333333333333333 0  0.2973913043478261 0.03333333333333333 0  0.3056521739130434 0.03333333333333333 0  0.3139130434782609 0.03333333333333333 0  0.3221739130434783 0.03333333333333333 0  0.3304347826086956 0.03333333333333333 0  0.338695652173913 0.025 0  0.338695652173913 0.03333333333333333 0  0.3469565217391304 0.03333333333333333 0  0.008260869565217391 0.04166666666666666 0  0 0.04166666666666666 0  0.01652173913043478 0.04166666666666666 0  0.02478260869565217 0.04166666666666666 0  0.03304347826086956 0.04166666666666666 0  0.04130434782608695 0.04166666666666666 0  0.04956521739130434 0.04166666666666666 0  0.05782608695652174 0.04166666666666666 0  0.06608695652173913 0.04166666666666666 0  0.07434782608695652 0.04166666666666666 0  0.08260869565217391 0.04166666666666666 0  0.0908695652173913 0.04166666666666666 0  0.09913043478260869 0.04166666666666666 0  0.1073913043478261 0.04166666666666666 0  0.1156521739130435 0.04166666666666666 0  0.1239130434782609 0.04166666666666666 0  0.1321739130434783 0.04166666666666666 0  0.1404347826086956 0.04166666666666666 0  0.148695652173913 0.04166666666666666 0  0.1569565217391304 0.04166666666666666 0  0.1652173913043478 0.04166666666666666 0  0.1734782608695652 0.04166666666666666 0  0.1817391304347826 0.04166666666666666 0  0.19 0.04166666666666666 0  0.1982608695652174 0.04166666666666666 0  0.2065217391304348 0.04166666666666666 0  0.2147826086956522 0.04166666666666666 0  0.2230434782608696 0.04166666666666666 0  0.2313043478260869 0.04166666666666666 0  0.2395652173913043 0.04166666666666666 0  0.2478260869565218 0.04166666666666666 0  0.2560869565217391 0.04166666666666666 0  0.2643478260869565 0.04166666666666666 0  0.2726086956521739 0.04166666666666666 0  0.2808695652173913 0.04166666666666666 0  0.2891304347826087 0.04166666666666666 0  0.2973913043478261 0.04166666666666666 0  0.3056521739130434 0.04166666666666666 0  0.3139130434782609 0.04166666666666666 0  0.3221739130434783 0.04166666666666666 0  0.3304347826086956 0.04166666666666666 0  0.338695652173913 0.04166666666666666 0  0.3469565217391304 0.04166666666666666 0  0.3552173913043478 0.03333333333333333 0  0.3552173913043478 0.04166666666666666 0  0.3634782608695652 0.04166666666666666 0  0.008260869565217391 0.05 0  0 0.05 0  0.01652173913043478 0.05 0  0.02478260869565217 0.05 0  0.03304347826086956 0.05 0  0.04130434782608695 0.05 0  0.04956521739130434 0.05 0  0.05782608695652174 0.05 0  0.06608695652173913 0.05 0  0.07434782608695652 0.05 0  0.08260869565217391 0.05 0  0.0908695652173913 0.05 0  0.09913043478260869 0.05 0  0.1073913043478261 0.05 0  0.1156521739130435 0.05 0  0.1239130434782609 0.05 0  0.1321739130434783 0.05 0  0.1404347826086956 0.05 0  0.148695652173913 0.05 0  0.1569565217391304 0.05 0  0.1652173913043478 0.05 0  0.1734782608695652 0.05 0  0.1817391304347826 0.05 0  0.19 0.05 0  0.1982608695652174 0.05 0  0.2065217391304348 0.05 0  0.2147826086956522 0.05 0  0.2230434782608696 0.05 0  0.2313043478260869 0.05 0  
[...]
<CellData  Scalars="rho"> 
<DataArray  type="Float64"  Name="rho"  format="ascii">1.0000000000000000e+00   1.0000000000000000e+00   1.0000000000000000e+00   1.0000000000000000e+00   1.0000000000000000e+00   1.0000000000000000e+00   1.0000000000000000e+00   1.0000000000000000e+00   1.0000000000000000e+00   1.0000000000000000e+00   1.0000000000000000e+00   1.0000000000000000e+00   1.0000000000000000e+00   1.0000000000000000e+00   1.0000000000000000e+00   1.0000000000000000e+00   1.0000000000000000e+00   1.0000000000000000e+00   1.0000000000000000e+00   1.0000000000000000e+00   1.0000000000000000e+00   1.0000000000000000e+00   1.0000000000000000e+00   1.0000000000000000e+00   1.0000000000000000e+00   1.0000000000000000e+00   1.0000000000000000e+00   1.0000000000000000e+00   1.0000000000000000e+00   1.0000000000000000e+00   1.0000000000000000e+00   1.0000000000000000e+00   1.0000000000000000e+00   1.0000000000000000e+00   1.0000000000000000e+00   1.0000000000000000e+00   1.0000000000000000e+00   1.0000000000000000e+00   1.0000000000000000e+00   1.0000000000000000e+00   1.0000000000000000e+00   1.0000000000000000e+00   1.0000000000000000e+00   1.0000000000000000e+00   1.0000000000000000e+00   1.0000000000000000e+00   1.0000000000000000e+00   1.0000000000000000e+00   1.0000000000000000e+00   1.0000000000000000e+00   1.0000000000000000e+00   1.0000000000000000e+00   1.0000000000000000e+00   1.0000000000000000e+00   1.0000000000000000e+00   1.0000000000000000e+00   1.0000000000000000e+00   1.0000000000000000e+00   1.0000000000000000e+00   1.0000000000000000e+00   1.0000000000000000e+00   1.0000000000000000e+00   1.0000000000000000e+00   1.0000000000000000e+00   1.0000000000000000e+00   1.0000000000000000e+00   1.0000000000000000e+00   1.0000000000000000e+00   1.0000000000000000e+00   1.0000000000000000e+00   1.0000000000000000e+00   1.0000000000000000e+00   1.0000000000000000e+00   1.0000000000000000e+00   1.0000000000000000e+00   1.0000000000000000e+00   1.0000000000000000e+00   1.0000000000000000e+00   1.0000000000000000e+00   1.0000000000000000e+00   1.0000000000000000e+00   1.0000000000000000e+00   1.0000000000000000e+00   1.0000000000000000e+00   1.0000000000000000e+00   1.0000000000000000e+00   1.0000000000000000e+00   1.0000000000000000e+00   1.0000000000000000e+00   1.0000000000000000e+00   1.0000000000000000e+00   1.0000000000000000e+00   1.0000000000000000e+00   1.0000000000000000e+00   1.0000000000000000e+00   1.0000000000000000e+00   1.0000000000000000e+00   1.0000000000000000e+00   1.0000000000000000e+00   1.0000000000000000e+00   1.0000000000000000e+00   1.0000000000000000e+00   1.0000000000000000e+00   1.0000000000000000e+00   1.0000000000000000e+00   1.0000000000000000e+00   1.0000000000000000e+00   1.0000000000000000e+00   1.0000000000000000e+00   1.0000000000000000e+00   1.0000000000000000e+00   1.0000000000000000e+00   1.0000000000000000e+00   1.0000000000000000e+00   1.0000000000000000e+00   1.0000000000000000e+00   1.0000000000000000e+00   1.0000000000000000e+00   1.0000000000000000e+00   1.0000000000000000e+00   1.0000000000000000e+00   1.0000000000000000e+00   1.0000000000000000e+00   1.0000000000000000e+00   1.0000000000000000e+00   1.0000000000000000e+00   1.0000000000000000e+00   1.0000000000000000e+00   1.0000000000000000e+00   1.0000000000000000e+00   1.0000000000000000e+00   1.0000000000000000e+00   1.0000000000000000e+00   1.0000000000000000e+00   1.0000000000000000e+00   1.0000000000000000e+00   1.0000000000000000e+00   1.0000000000000000e+00   1.0000000000000000e+00   1.0000000000000000e+00   1.0000000000000000e+00   1.0000000000000000e+00   1.0000000000000000e+00   1.0000000000000000e+00   1.0000000000000000e+00   1.0000000000000000e+00   1.0000000000000000e+00   1.0000000000000000e+00   1.0000000000000000e+00   1.0000000000000000e+00   1.0000000000000000e+00   1.0000000000000000e+00   1.0000000000000000e+00   1.0000000000000000e+00   1.0000000000000000e+00   1.0000000000000000e+00   1.0000000000000000e+00   1.0000000000000000e+00   1.0000000000000000e+00   1.0000000000000000e+00   1.0000000000000000e+00   1.0000000000000000e+00   1.0000000000000000e+00   1.0000000000000000e+00   1.0000000000000000e+00   1.0000000000000000e+00   1.0000000000000000e+00   1.0000000000000000e+00   1.0000000000000000e+00   1.0000000000000000e+00   1.0000000000000000e+00   1.0000000000000000e+00   1.0000000000000000e+00   1.0000000000000000e+00   1.0000000000000000e+00   1.0000000000000000e+00   1.0000000000000000e+00   1.0000000000000000e+00   1.0000000000000000e+00   1.0000000000000000e+00   1.0000000000000000e+00   1.0000000000000000e+00   1.0000000000000000e+00   1.0000000000000000e+00   1.0000000000000000e+00   1.0000000000000000e+00   1.0000000000000000e+00   1.0000000000000000e+00   1.0000000000000000e+00   1.0000000000000000e+00   1.0000000000000000e+00   1.0000000000000000e+00   1.0000000000000000e+00   1.0000000000000000e+00   1.0000000000000000e+00   1.0000000000000000e+00   1.0000000000000000e+00   1.0000000000000000e+00   1.0000000000000000e+00   1.0000000000000000e+00   1.0000000000000000e+00   1.0000000000000000e+00   1.0000000000000000e+00   1.0000000000000000e+00   1.0000000000000000e+00   1.0000000000000000e+00   1.0000000000000000e+00   1.0000000000000000e+00   1.0000000000000000e+00   1.0000000000000000e+00   1.0000000000000000e+00   1.0000000000000000e+00   1.0000000000000000e+00   1.0000000000000000e+00   1.0000000000000000e+00   1.0000000000000000e+00   1.0000000000000000e+00   1.0000000000000000e+00   1.0000000000000000e+00   1.0000000000000000e+00   1.0000000000000000e+00   1.0000000000000000e+00   1.0000000000000000e+00   1.0000000000000000e+00   1.0000000000000000e+00   1.0000000000000000e+00   1.0000000000000000e+00   1.0000000000000000e+00   1.0000000000000000e+00   1.0000000000000000e+00   1.0000000000000000e+00   1.0000000000000000e+00   1.0000000000000000e+00   1.0000000000000000e+00   1.0000000000000000e+00   1.0000000000000000e+00   1.0000000000000000e+00   1.0000000000000000e+00   1.0000000000000000e+00   1.0000000000000000e+00   1.0000000000000000e+00   1.0000000000000000e+00   1.0000000000000000e+00   1.0000000000000000e+00   1.0000000000000000e+00   1.0000000000000000e+00   1.0000000000000000e+00   1.0000000000000000e+00   1.0000000000000000e+00   1.0000000000000000e+00   1.0000000000000000e+00   1.0000000000000000e+00   1.0000000000000000e+00   1.0000000000000000e+00   1.0000000000000000e+00   1.0000000000000000e+00   1.0000000000000000e+00   1.0000000000000000e+00   1.0000000000000000e+00   1.0000000000000000e+00   1.0000000000000000e+00   1.0000000000000000e+00   1.0000000000000000e+00   1.0000000000000000e+00   1.0000000000000000e+00   1.0000000000000000e+00   1.0000000000000000e+00   1.0000000000000000e+00   1.0000000000000000e+00   1.0000000000000000e+00   1.0000000000000000e+00   1.0000000000000000e+00   1.0000000000000000e+00   1.0000000000000000e+00   1.0000000000000000e+00   1.0000000000000000e+00   1.0000000000000000e+00   1.0000000000000000e+00   1.0000000000000000e+00   1.0000000000000000e+00   1.0000000000000000e+00   1.0000000000000000e+00   1.0000000000000000e+00   1.0000000000000000e+00   1.0000000000000000e+00   1.0000000000000000e+00   1.0000000000000000e+00   1.0000000000000000e+00   1.0000000000000000e+00   1.0000000000000000e+00   1.0000000000000000e+00   1.0000000000000000e+00   1.0000000000000000e+00   1.0000000000000000e+00   1.0000000000000000e+00   1.0000000000000000e+00   1.0000000000000000e+00   1.0000000000000000e+00   1.0000000000000000e+00   1.0000000000000000e+00   1.0000000000000000e+00   1.0000000000000000e+00   1.0000000000000000e+00   1.0000000000000000e+00   1.0000000000000000e+00   1.0000000000000000e+00   1.0000000000000000e+00   1.0000000000000000e+00   1.0000000000000000e+00   1.0000000000000000e+00   1.0000000000000000e+00   1.0000000000000000e+00   1.0000000000000000e+00   1.0000000000000000e+00   1.0000000000000000e+00   1.0000000000000000e+00   1.0000000000000000e+00   1.0000000000000000e+00   1.0000000000000000e+00   1.0000000000000000e+00   1.0000000000000000e+00   1.0000000000000000e+00   1.0000000000000000e+00   1.0000000000000000e+00   1.0000000000000000e+00   1.0000000000000000e+00   1.0000000000000000e+00   1.0000000000000000e+00   1.0000000000000000e+00   1.0000000000000000e+00   1.0000000000000000e+00   1.0000000000000000e+00   1.0000000000000000e+00   1.0000000000000000e+00   1.0000000000000000e+00   1.0000000000000000e+00   1.0000000000000000e+00   1.0000000000000000e+00   1.0000000000000000e+00   1.0000000000000000e+00   1.0000000000000000e+00   1.0000000000000000e+00   1.0000000000000000e+00   1.0000000000000000e+00   1.0000000000000000e+00   1.0000000000000000e+00   1.0000000000000000e+00   1.0000000000000000e+00   1.0000000000000000e+00   1.0000000000000000e+00   1.0000000000000000e+00   1.0000000000000000e+00   1.0000000000000000e+00   1.0000000000000000e+00   1.0000000000000000e+00   1.0000000000000000e+00   1.0000000000000000e+00   1.0000000000000000e+00   1.0000000000000000e+00   1.0000000000000000e+00   1.0000000000000000e+00   1.0000000000000000e+00   1.0000000000000000e+00   1.0000000000000000e+00   1.0000000000000000e+00   1.0000000000000000e+00   1.0000000000000000e+00   1.0000000000000000e+00   1.0000000000000000e+00   1.0000000000000000e+00   1.0000000000000000e+00   1.0000000000000000e+00   1.0000000000000000e+00   1.0000000000000000e+00   9.9617509803311555e-01   1.0000000000000000e+00   9.9182910497230614e-01   1.0000000000000000e+00   9.9120573175359061e-01   1.0000000000000000e+00   9.9370843439239809e-01   1.0000000000000000e+00   9.9796610850154477e-01   1.0000000000000000e+00   1.0000000000000000e+00   1.0000000000000000e+00   1.0000000000000000e+00   1.0000000000000000e+00   1.0000000000000000e+00   1.0000000000000000e+00   1.0000000000000000e+00   1.0000000000000000e+00   1.0000000000000000e+00   1.0000000000000000e+00   1.0000000000000000e+00   9.9792188916483227e-01   9.9813833604375357e-01   9.9445188345614799e-01   1.0000000000000000e+00   1.0000000000000000e+00   1.0000000000000000e+00   1.0000000000000000e+00   1.0000000000000000e+00   1.0000000000000000e+00   1.0000000000000000e+00   1.0000000000000000e+00   1.0000000000000000e+00   1.0000000000000000e+00   1.0000000000000000e+00   1.0000000000000000e+00   1.0000000000000000e+00   1.0000000000000000e+00   1.0000000000000000e+00   1.0000000000000000e+00   1.0000000000000000e+00   1.0000000000000000e+00   1.0000000000000000e+00   1.0000000000000000e+00   1.0000000000000000e+00   1.0000000000000000e+00   1.0000000000000000e+00   1.0000000000000000e+00   1.0000000000000000e+00   1.0000000000000000e+00   1.0000000000000000e+00   1.0000000000000000e+00   1.0000000000000000e+00   1.0000000000000000e+00   1.0000000000000000e+00   1.0000000000000000e+00   1.0000000000000000e+00   1.0000000000000000e+00   1.0000000000000000e+00   1.0000000000000000e+00   1.0000000000000000e+00   1.0000000000000000e+00   1.0000000000000000e+00   1.0000000000000000e+00   1.0000000000000000e+00   1.0000000000000000e+00   1.0000000000000000e+00   1.0000000000000000e+00   1.0000000000000000e+00   1.0000000000000000e+00   1.0000000000000000e+00   9.8668568037385285e-01   9.8472090098515741e-01   9.8540286389515375e-01   9.9631250121498527e-01   9.3699946490254848e-01   9.5633020407631342e-01   8.8577081158576831e-01   9.2379689793929698e-01   8.4929931145843418e-01   8.9644596218455397e-01   8.1750183535020049e-01   8.7877662331304773e-01   7.9709972940707818e-01   8.6706783940650622e-01   7.8832488095272535e-01   8.7060825842583844e-01   7.9021128918766459e-01   8.7839058895030220e-01   8.0120002429973658e-01   8.8234378083366050e-01   8.1931428895110270e-01   9.0578410284462141e-01   8.4237001387270916e-01   9.2331847970289094e-01   8.6819388680640874e-01   9.3680462548385612e-01   8.8390122226347922e-01   9.5153844784686392e-01   9.0462736994317516e-01   9.6326527103369597e-01   9.2044475512566004e-01   9.7339930783230000e-01   9.4571957338620027e-01   9.8139884799389576e-01   9.5847999359607439e-01   9.8693251535670823e-01   9.6889431549801142e-01   9.8932063988123131e-01   9.7677449916980297e-01   9.8962282102307753e-01   9.8190788727377099e-01   9.6594659815005857e-01   1.0000000000000000e+00   1.0000000000000000e+00   1.0000000000000000e+00   1.0000000000000000e+00   1.0000000000000000e+00   1.0000000000000000e+00   1.0000000000000000e+00   1.0000000000000000e+00   1.0000000000000000e+00   1.0000000000000000e+00   1.0000000000000000e+00   1.0000000000000000e+00   1.0000000000000000e+00   1.0000000000000000e+00   1.0000000000000000e+00   1.0000000000000000e+00   1.0000000000000000e+00   1.0000000000000000e+00   1.0000000000000000e+00   1.0000000000000000e+00   1.0000000000000000e+00   1.0000000000000000e+00   1.0000000000000000e+00   1.0000000000000000e+00   1.0000000000000000e+00   1.0000000000000000e+00   1.0000000000000000e+00   1.0000000000000000e+00   1.0000000000000000e+00   1.0000000000000000e+00   1.0000000000000000e+00   1.0000000000000000e+00   1.0000000000000000e+00   1.0000000000000000e+00   1.0000000000000000e+00   1.0000000000000000e+00   1.0000000000000000e+00   1.0000000000000000e+00   1.0000000000000000e+00   1.0000000000000000e+00   1.0000000000000000e+00   9.8812734800330970e-01   1.0000000000000000e+00   9.4540915469740661e-01   9.3774411851160033e-01   8.0108081633989681e-01   8.7062299143794752e-01   6.3587915467960565e-01   7.9843986766951880e-01   4.3042548647430645e-01   6.5190712836680031e-01   2.7872265506785937e-01   4.5978887766029158e-01   1.6542308116547447e-01   4.0133439633221690e-01   4.9275841919391168e-02   3.6651462409881436e-01   9.7736998017943968e-03   3.6274651380672063e-01   9.6080547954732684e-03   3.8835182791339223e-01   4.5424685341594793e-02   4.2162903636308041e-01   1.2501151725872917e-01   4.7927939148200982e-01   2.1282484711577868e-01   5.2349220240527494e-01   3.1688967847577604e-01   6.2070706526810526e-01   4.1470359824192138e-01   7.5429559317694017e-01   5.1268809399142656e-01   7.9294770914644164e-01   5.9762131351023062e-01   8.3046246575729898e-01   6.7452604613194234e-01   8.6555270604377188e-01   7.7465933191890091e-01   8.9600982321475364e-01   8.4377390184742207e-01   9.1949571005911990e-01   8.7913585552985385e-01   9.3333991485655210e-01   9.1080512675010594e-01   9.5123101389803122e-01   9.3399186971404657e-01   9.6358323395139522e-01   9.4933115067421081e-01   9.7291063815058165e-01   9.6441082869083494e-01   9.7648972241526066e-01   1.0000000000000000e+00   1.0000000000000000e+00   1.0000000000000000e+00   1.0000000000000000e+00   1.0000000000000000e+00   1.0000000000000000e+00   1.0000000000000000e+00   1.0000000000000000e+00   1.0000000000000000e+00   1.0000000000000000e+00   1.0000000000000000e+00   1.0000000000000000e+00   1.0000000000000000e+00   1.0000000000000000e+00   1.0000000000000000e+00   1.0000000000000000e+00   1.0000000000000000e+00   1.0000000000000000e+00   1.0000000000000000e+00   1.0000000000000000e+00   1.0000000000000000e+00   1.0000000000000000e+00   1.0000000000000000e+00   1.0000000000000000e+00   1.0000000000000000e+00   1.0000000000000000e+00   1.0000000000000000e+00   1.0000000000000000e+00   1.0000000000000000e+00   1.0000000000000000e+00   1.0000000000000000e+00   1.0000000000000000e+00   1.0000000000000000e+00   1.0000000000000000e+00   1.0000000000000000e+00   9.3909116724248043e-01   9.8782395539599865e-01   6.2314509176739286e-01   7.8358898477893324e-01   4.0675439502975114e-01   5.4593405929534600e-01   9.4711421568694429e-02   2.3257006767052346e-01   0.0000000000000000e+00   0.0000000000000000e+00   0.0000000000000000e+00   0.0000000000000000e+00   0.0000000000000000e+00   0.0000000000000000e+00   0.0000000000000000e+00   0.0000000000000000e+00   0.0000000000000000e+00   0.0000000000000000e+00   0.0000000000000000e+00   0.0000000000000000e+00   0.0000000000000000e+00   0.0000000000000000e+00   0.0000000000000000e+00   0.0000000000000000e+00   0.0000000000000000e+00   0.0000000000000000e+00   0.0000000000000000e+00   0.0000000000000000e+00   0.0000000000000000e+00   0.0000000000000000e+00   0.0000000000000000e+00   0.0000000000000000e+00   0.0000000000000000e+00   0.0000000000000000e+00   0.0000000000000000e+00   0.0000000000000000e+00   0.0000000000000000e+00   1.7419783332069511e-01   0.0000000000000000e+00   3.6815789434650709e-01   0.0000000000000000e+00   5.3712746842000625e-01   5.4229688688083026e-02   4.3730746619003563e-01   2.6032553966264504e-01   5.6067675739399969e-01   4.2703817939212174e-01   6.9459804205506126e-01   5.5928473249898780e-01   7.8989745262910438e-01   7.0980280766885118e-01   9.3039189009639822e-01   8.2431304739374478e-01   9.5119009190420856e-01   9.2552585861863423e-01   9.7006955946865070e-01   9.5581079688333359e-01   9.7624533060307372e-01   9.7090850131720063e-01   9.8522642543205052e-01   1.0000000000000000e+00   1.0000000000000000e+00   1.0000000000000000e+00   1.0000000000000000e+00   1.0000000000000000e+00   1.0000000000000000e+00   1.0000000000000000e+00   1.0000000000000000e+00   1.0000000000000000e+00   1.0000000000000000e+00   1.0000000000000000e+00   1.0000000000000000e+00   1.0000000000000000e+00   1.0000000000000000e+00   1.0000000000000000e+00   1.0000000000000000e+00   1.0000000000000000e+00   1.0000000000000000e+00   1.0000000000000000e+00   1.0000000000000000e+00   1.0000000000000000e+00   1.0000000000000000e+00   1.0000000000000000e+00   1.0000000000000000e+00   1.0000000000000000e+00   8.0915354067529310e-01   1.0000000000000000e+00   6.3566752292901496e-01   5.0345190663852846e-01   8.0440670183932042e-02   1.7207513901142976e-01   2.1005220669870865e-03   4.0850588776705793e-04   8.4982278726608675e-06   0.0000000000000000e+00   0.0000000000000000e+00   0.0000000000000000e+00   0.0000000000000000e+00   0.0000000000000000e+00   0.0000000000000000e+00   0.0000000000000000e+00   0.0000000000000000e+00   0.0000000000000000e+00   0.0000000000000000e+00   0.0000000000000000e+00   0.0000000000000000e+00   0.0000000000000000e+00   0.0000000000000000e+00   0.0000000000000000e+00   0.0000000000000000e+00   0.0000000000000000e+00   0.0000000000000000e+00   0.0000000000000000e+00   0.0000000000000000e+00   0.0000000000000000e+00   0.0000000000000000e+00   0.0000000000000000e+00   0.0000000000000000e+00   0.0000000000000000e+00   0.0000000000000000e+00   0.0000000000000000e+00   0.0000000000000000e+00   0.0000000000000000e+00   0.0000000000000000e+00   0.0000000000000000e+00   0.0000000000000000e+00   0.0000000000000000e+00   0.0000000000000000e+00   0.0000000000000000e+00   0.0000000000000000e+00   0.0000000000000000e+00   0.0000000000000000e+00   0.0000000000000000e+00   0.0000000000000000e+00   0.0000000000000000e+00   0.0000000000000000e+00   0.0000000000000000e+00   0.0000000000000000e+00   0.0000000000000000e+00   0.0000000000000000e+00   0.0000000000000000e+00   0.0000000000000000e+00   2.2897843063268516e-01   0.0000000000000000e+00   2.1165144555596366e-01   0.0000000000000000e+00   3.7465043488357092e-01   2.0596114704747914e-01   5.2545741195896634e-01   3.8525182907204014e-01   7.0356139566255926e-01   5.4293180741855462e-01   6.7802055053719645e-01   5.3807168526340954e-01   8.4503034209384420e-01   6.0920754642195341e-01   8.7891346172733997e-01   7.2282158359426452e-01   7.6640445332783780e-01   1.0000000000000000e+00   1.0000000000000000e+00   1.0000000000000000e+00   1.0000000000000000e+00   1.0000000000000000e+00   1.0000000000000000e+00   1.0000000000000000e+00   1.0000000000000000e+00   1.0000000000000000e+00   1.0000000000000000e+00   1.0000000000000000e+00   1.0000000000000000e+00   1.0000000000000000e+00   1.0000000000000000e+00   1.0000000000000000e+00   9.2763529008335333e-01   1.0000000000000000e+00   7.2340377954156032e-01   6.3308525409169858e-01   4.4933573147245809e-01   3.8615887126194026e-01   1.5227584411348474e-01   1.0494523232490741e-01   4.3794600696090265e-02   3.2148430647908018