<?xml version="1.0"?>
<VTKFile type="UnstructuredGrid"  version="0.1"  >
<UnstructuredGrid>
<Piece  NumberOfPoints="2396" NumberOfCells="4572">
<Points>
<DataArray  type="Float64"  NumberOfComponents="3"  format="ascii">0.3056521739130434 0 0  0.3139130434782609 0 0  0.3139130434782609 0.008333333333333333 0  0.3056521739130434 0.008333333333333333 0  0.3221739130434783 0 0  0.3221739130434783 0.008333333333333333 0  0.3304347826086956 0 0  0.3304347826086956 0.008333333333333333 0  0.338695652173913 0 0  0.338695652173913 0.008333333333333333 0  0.3469565217391304 0 0  0.3469565217391304 0.008333333333333333 0  0.3552173913043478 0 0  0.3552173913043478 0.008333333333333333 0  0.3634782608695652 0 0  0.3634782608695652 0.008333333333333333 0  0.3717391304347826 0 0  0.3717391304347826 0.008333333333333333 0  0.3799999999999999 0 0  0.3799999999999999 0.008333333333333333 0  0.3882608695652174 0 0  0.3882608695652174 0.008333333333333333 0  0.3965217391304348 0 0  0.3965217391304348 0.008333333333333333 0  0.4047826086956521 0 0  0.4047826086956521 0.008333333333333333 0  0.4130434782608696 0 0  0.4130434782608696 0.008333333333333333 0  0.4213043478260869 0 0  0.4213043478260869 0.008333333333333333 0  0.4295652173913043 0 0  0.4295652173913043 0.008333333333333333 0  0.4378260869565217 0 0  0.4378260869565217 0.008333333333333333 0  0.4460869565217391 0 0  0.4460869565217391 0.008333333333333333 0  0.4543478260869565 0 0  0.4543478260869565 0.008333333333333333 0  0.4626086956521739 0 0  0.4626086956521739 0.008333333333333333 0  0.4708695652173913 0 0  0.4708695652173913 0.008333333333333333 0  0.4791304347826086 0 0  0.4791304347826086 0.008333333333333333 0  0.4873913043478261 0 0  0.4873913043478261 0.008333333333333333 0  0.4956521739130435 0 0  0.4956521739130435 0.008333333333333333 0  0.5039130434782608 0 0  0.5039130434782608 0.008333333333333333 0  0.5121739130434783 0 0  0.5121739130434783 0.008333333333333333 0  0.5204347826086956 0 0  0.5204347826086956 0.008333333333333333 0  0.528695652173913 0 0  0.528695652173913 0.008333333333333333 0  0.5369565217391304 0 0  0.5369565217391304 0.008333333333333333 0  0.5452173913043478 0 0  0.5452173913043478 0.008333333333333333 0  0.5534782608695652 0 0  0.5534782608695652 0.008333333333333333 0  0.5617391304347825 0 0  0.5617391304347825 0.008333333333333333 0  0.57 0 0  0.57 0.008333333333333333 0  0.5782608695652174 0 0  0.5782608695652174 0.008333333333333333 0  0.5865217391304348 0 0  0.5865217391304348 0.008333333333333333 0  0.5947826086956521 0 0  0.5947826086956521 0.008333333333333333 0  0.6030434782608696 0 0  0.6030434782608696 0.008333333333333333 0  0.6113043478260869 0 0  0.6113043478260869 0.008333333333333333 0  0.6195652173913043 0 0  0.6195652173913043 0.008333333333333333 0  0.6278260869565218 0 0  0.6278260869565218 0.008333333333333333 0  0.6360869565217391 0 0  0.6360869565217391 0.008333333333333333 0  0.6443478260869565 0 0  0.6443478260869565 0.008333333333333333 0  0.6526086956521739 0 0  0.6526086956521739 0.008333333333333333 0  0.6608695652173913 0 0  0.6608695652173913 0.008333333333333333 0  0.6691304347826087 0 0  0.6691304347826087 0.008333333333333333 0  0.677391304347826 0 0  0.677391304347826 0.008333333333333333 0  0.6856521739130435 0 0  0.6856521739130435 0.008333333333333333 0  0.6939130434782609 0 0  0.6939130434782609 0.008333333333333333 0  0.7021739130434783 0 0  0.7021739130434783 0.008333333333333333 0  0.7104347826086956 0 0  0.7104347826086956 0.008333333333333333 0  0.718695652173913 0 0  0.718695652173913 0.008333333333333333 0  0.3139130434782609 0.01666666666666667 0  0.3221739130434783 0.01666666666666667 0  0.3304347826086956 0.01666666666666667 0  0.338695652173913 0.01666666666666667 0  0.3469565217391304 0.01666666666666667 0  0.3552173913043478 0.01666666666666667 0  0.3634782608695652 0.01666666666666667 0  0.3717391304347826 0.01666666666666667 0  0.3799999999999999 0.01666666666666667 0  0.3882608695652174 0.01666666666666667 0  0.3965217391304348 0.01666666666666667 0  0.4047826086956521 0.01666666666666667 0  0.4130434782608696 0.01666666666666667 0  0.4213043478260869 0.01666666666666667 0  0.4295652173913043 0.01666666666666667 0  0.4378260869565217 0.01666666666666667 0  0.4460869565217391 0.01666666666666667 0  0.4543478260869565 0.01666666666666667 0  0.4626086956521739 0.01666666666666667 0  0.4708695652173913 0.01666666666666667 0  0.4791304347826086 0.01666666666666667 0  0.4873913043478261 0.01666666666666667 0  0.4956521739130435 0.01666666666666667 0  0.5039130434782608 0.01666666666666667 0  0.5121739130434783 0.01666666666666667 0  0.5204347826086956 0.01666666666666667 0  0.528695652173913 0.01666666666666667 0  0.5369565217391304 0.01666666666666667 0  0.5452173913043478 0.01666666666666667 0  0.5534782608695652 0.01666666666666667 0  0.5617391304347825 0.01666666666666667 0  0.57 0.01666666666666667 0  0.5782608695652174 0.01666666666666667 0  0.5865217391304348 0.01666666666666667 0  0.5947826086956521 0.01666666666666667 0  0.6030434782608696 0.01666666666666667 0  0.6113043478260869 0.01666666666666667 0  0.6195652173913043 0.01666666666666667 0  0.6278260869565218 0.01666666666666667 0  0.6360869565217391 0.01666666666666667 0  0.6443478260869565 0.01666666666666667 0  0.6526086956521739 0.01666666666666667 0  0.6608695652173913 0.01666666666666667 0  0.6691304347826087 0.01666666666666667 0  0.677391304347826 0.01666666666666667 0  0.6856521739130435 0.01666666666666667 0  0.6939130434782609 0.01666666666666667 0  0.7021739130434783 0.01666666666666667 0  0.7104347826086956 0.01666666666666667 0  0.718695652173913 0.01666666666666667 0  0.3304347826086956 0.025 0  0.338695652173913 0.025 0  0.3469565217391304 0.025 0  0.3552173913043478 0.025 0  0.3634782608695652 0.025 0  0.3717391304347826 0.025 0  0.3799999999999999 0.025 0  0.3882608695652174 0.025 0  0.3965217391304348 0.025 0  0.4047826086956521 0.025 0  0.4130434782608696 0.025 0  0.4213043478260869 0.025 0  0.4295652173913043 0.025 0  0.4378260869565217 0.025 0  0.4460869565217391 0.025 0  0.4543478260869565 0.025 0  0.4626086956521739 0.025 0  0.4708695652173913 0.025 0  0.4791304347826086 0.025 0  0.4873913043478261 0.025 0  0.4956521739130435 0.025 0  0.5039130434782608 0.025 0  0.5121739130434783 0.025 0  0.5204347826086956 0.025 0  0.528695652173913 0.025 0  0.5369565217391304 0.025 0  0.5452173913043478 0.025 0  0.5534782608695652 0.025 0  0.5617391304347825 0.025 0  0.57 0.025 0  0.5782608695652174 0.025 0  0.5865217391304348 0.025 0  0.5947826086956521 0.025 0  0.6030434782608696 0.025 0  0.6113043478260869 0.025 0  0.6195652173913043 0.025 0  0.6278260869565218 0.025 0  0.6360869565217391 0.025 0  0.6443478260869565 0.025 0  0.6526086956521739 0.025 0  0.6608695652173913 0.025 0  0.6691304347826087 0.025 0  0.677391304347826 0.025 0  0.6856521739130435 0.025 0  0.6939130434782609 0.025 0  0.7021739130434783 0.025 0  0.7104347826086956 0.025 0  0.718695652173913 0.025 0  0.7269565217391304 0.025 0  0.3469565217391304 0.03333333333333333 0  0.3552173913043478 0.03333333333333333 0  0.3634782608695652 0.03333333333333333 0  0.3717391304347826 0.03333333333333333 0  0.3799999999999999 0.03333333333333333 0  0.3882608695652174 0.03333333333333333 0  0.3965217391304348 0.03333333333333333 0  0.4047826086956521 0.03333333333333333 0  0.4130434782608696 0.03333333333333333 0  0.4213043478260869 0.03333333333333333 0  0.4295652173913043 0.03333333333333333 0  0.4378260869565217 0.03333333333333333 0  0.4460869565217391 0.03333333333333333 0  0.4543478260869565 0.03333333333333333 0  0.4626086956521739 0.03333333333333333 0  0.4708695652173913 0.03333333333333333 0  0.4791304347826086 0.03333333333333333 0  0.4873913043478261 0.03333333333333333 0  0.4956521739130435 0.03333333333333333 0  0.5039130434782608 0.03333333333333333 0  0.5121739130434783 0.03333333333333333 0  0.5204347826086956 0.03333333333333333 0  0.528695652173913 0.03333333333333333 0  0.5369565217391304 0.03333333333333333 0  0.5452173913043478 0.03333333333333333 0  0.5534782608695652 0.03333333333333333 0  0.5617391304347825 0.03333333333333333 0  0.57 0.03333333333333333 0  0.5782608695652174 0.03333333333333333 0  0.5865217391304348 0.03333333333333333 0  0.5947826086956521 0.03333333333333333 0  0.6030434782608696 0.03333333333333333 0  0.6113043478260869 0.03333333333333333 0  0.6195652173913043 0.03333333333333333 0  0.6278260869565218 0.03333333333333333 0  0.6360869565217391 0.03333333333333333 0  0.6443478260869565 0.03333333333333333 0  0.6526086956521739 0.03333333333333333 0  0.6608695652173913 0.03333333333333333 0  0.6691304347826087 0.03333333333333333 0  0.677391304347826 0.03333333333333333 0  0.6856521739130435 0.03333333333333333 0  0.6939130434782609 0.03333333333333333 0  0.7021739130434783 0.03333333333333333 0  0.7104347826086956 0.03333333333333333 0  0.718695652173913 0.03333333333333333 0  0.7269565217391304 0.03333333333333333 0  0.7352173913043478 0.03333333333333333 0  0.3634782608695652 0.04166666666666666 0  0.3717391304347826 0.04166666666666666 0  0.3799999999999999 0.04166666666666666 0  0.3882608695652174 0.04166666666666666 0  0.3965217391304348 0.04166666666666666 0  0.4047826086956521 0.04166666666666666 0  0.4130434782608696 0.04166666666666666 0  0.4213043478260869 0.04166666666666666 0  0.4295652173913043 0.04166666666666666 0  0.4378260869565217 0.04166666666666666 0  0.4460869565217391 0.04166666666666666 0  0.4543478260869565 0.04166666666666666 0  0.4626086956521739 0.04166666666666666 0  0.4708695652173913 0.04166666666666666 0  0.4791304347826086 0.04166666666666666 0  0.4873913043478261 0.04166666666666666 0  0.4956521739130435 0.04166666666666666 0  0.5039130434782608 0.04166666666666666 0  0.5121739130434783 0.04166666666666666 0  0.5204347826086956 0.04166666666666666 0  0.528695652173913 0.04166666666666666 0  0.5369565217391304 0.04166666666666666 0  0.5452173913043478 0.04166666666666666 0 
[...]
<CellData  Scalars="rho_bar"> 
<DataArray  type="Float64"  Name="rho_bar"  format="ascii">1.0000000000000000e+00   1.0000000000000000e+00   1.0000000000000000e+00   1.0000000000000000e+00   1.0000000000000000e+00   1.0000000000000000e+00   1.0000000000000000e+00   1.0000000000000000e+00   1.0000000000000000e+00   1.0000000000000000e+00   1.0000000000000000e+00   1.0000000000000000e+00   1.0000000000000000e+00   1.0000000000000000e+00   1.0000000000000000e+00   1.0000000000000000e+00   9.9999999999999989e-01   9.9999999999999989e-01   1.0000000000000000e+00   1.0000000000000000e+00   1.0000000000000000e+00   1.0000000000000000e+00   1.0000000000000000e+00   1.0000000000000000e+00   1.0000000000000000e+00   1.0000000000000000e+00   1.0000000000000000e+00   1.0000000000000000e+00   1.0000000000000000e+00   1.0000000000000000e+00   1.0000000000000000e+00   1.0000000000000000e+00   1.0000000000000000e+00   1.0000000000000000e+00   1.0000000000000000e+00   1.0000000000000000e+00   1.0000000000000000e+00   1.0000000000000000e+00   1.0000000000000000e+00   1.0000000000000000e+00   9.9999999999999989e-01   9.9999999999999989e-01   1.0000000000000000e+00   1.0000000000000000e+00   1.0000000000000000e+00   1.0000000000000000e+00   9.9999999999999989e-01   9.9999999999999989e-01   1.0000000000000000e+00   1.0000000000000000e+00   9.9999999999999989e-01   9.9999999999999989e-01   1.0000000000000000e+00   1.0000000000000000e+00   1.0000000000000000e+00   1.0000000000000000e+00   9.9999999999999989e-01   9.9999999999999989e-01   1.0000000000000000e+00   1.0000000000000000e+00   9.9999999999999989e-01   9.9999999999999989e-01   1.0000000000000000e+00   1.0000000000000000e+00   1.0000000000000000e+00   1.0000000000000000e+00   1.0000000000000000e+00   1.0000000000000000e+00   9.9999999999999989e-01   9.9999999999999989e-01   1.0000000000000000e+00   1.0000000000000000e+00   9.9999999999999989e-01   9.9999999999999989e-01   1.0000000000000000e+00   1.0000000000000000e+00   1.0000000000000000e+00   1.0000000000000000e+00   9.9999999999999989e-01   9.9999999999999989e-01   1.0000000000000000e+00   1.0000000000000000e+00   1.0000000000000000e+00   1.0000000000000000e+00   9.9999999999999989e-01   9.9999999999999989e-01   1.0000000000000000e+00   1.0000000000000000e+00   9.9999999999999989e-01   9.9999999999999989e-01   1.0000000000000000e+00   1.0000000000000000e+00   1.0000000000000000e+00   1.0000000000000000e+00   1.0000000000000000e+00   1.0000000000000000e+00   9.9999999999999989e-01   9.9999999999999989e-01   9.9999999999999989e-01   9.9999999999999989e-01   1.0000000000000000e+00   1.0000000000000000e+00   1.0000000000000000e+00   1.0000000000000000e+00   1.0000000000000000e+00   1.0000000000000000e+00   1.0000000000000000e+00   1.0000000000000000e+00   1.0000000000000000e+00   1.0000000000000000e+00   1.0000000000000000e+00   1.0000000000000000e+00   1.0000000000000000e+00   1.0000000000000000e+00   1.0000000000000000e+00   9.9999999999999989e-01   9.9999999999999989e-01   1.0000000000000000e+00   1.0000000000000000e+00   1.0000000000000000e+00   1.0000000000000000e+00   1.0000000000000000e+00   1.0000000000000000e+00   1.0000000000000000e+00   1.0000000000000000e+00   1.0000000000000000e+00   1.0000000000000000e+00   1.0000000000000000e+00   1.0000000000000000e+00   1.0000000000000000e+00   1.0000000000000000e+00   1.0000000000000000e+00   1.0000000000000000e+00   1.0000000000000000e+00   1.0000000000000000e+00   1.0000000000000000e+00   1.0000000000000000e+00   1.0000000000000000e+00   1.0000000000000000e+00   9.9999999999999989e-01   9.9999999999999978e-01   9.9999999999999967e-01   9.9999999999999944e-01   9.9999999999999944e-01   9.9999999999999556e-01   9.9999999999999811e-01   9.9999999999998779e-01   9.9999999999999778e-01   9.9999999999998113e-01   9.9999999999999767e-01   9.9999999999998068e-01   9.9999999999999822e-01   9.9999999999998423e-01   9.9999999999999856e-01   9.9999999999998823e-01   9.9999999999999889e-01   9.9999999999999101e-01   9.9999999999999911e-01   9.9999999999999312e-01   9.9999999999999933e-01   9.9999999999999412e-01   9.9999999999999944e-01   9.9999999999999467e-01   9.9999999999999944e-01   9.9999999999999467e-01   9.9999999999999944e-01   9.9999999999999445e-01   9.9999999999999889e-01   9.9999999999999378e-01   9.9999999999999900e-01   9.9999999999999289e-01   9.9999999999999867e-01   9.9999999999999156e-01   9.9999999999999889e-01   9.9999999999999056e-01   9.9999999999999856e-01   9.9999999999998956e-01   9.9999999999999856e-01   9.9999999999998890e-01   9.9999999999999856e-01   9.9999999999998845e-01   9.9999999999999856e-01   9.9999999999998879e-01   9.9999999999999856e-01   9.9999999999998923e-01   9.9999999999999856e-01   9.9999999999998967e-01   9.9999999999999856e-01   9.9999999999999023e-01   9.9999999999999889e-01   9.9999999999999056e-01   9.9999999999999889e-01   9.9999999999999090e-01   9.9999999999999889e-01   9.9999999999999134e-01   9.9999999999999867e-01   9.9999999999999112e-01   9.9999999999999867e-01   9.9999999999999112e-01   1.0000000000000000e+00   1.0000000000000000e+00   1.0000000000000000e+00   9.9999999999999989e-01   9.9999999999999989e-01   1.0000000000000000e+00   1.0000000000000000e+00   1.0000000000000000e+00   1.0000000000000000e+00   9.9999999999999989e-01   9.9999999999999989e-01   9.9999999999999989e-01   9.9999999999999989e-01   9.9999999999999989e-01   9.9999999999999989e-01   1.0000000000000000e+00   1.0000000000000000e+00   1.0000000000000000e+00   1.0000000000000000e+00   9.9999999999999989e-01   9.9999999999999989e-01   1.0000000000000000e+00   1.0000000000000000e+00   1.0000000000000000e+00   1.0000000000000000e+00   1.0000000000000000e+00   1.0000000000000000e+00   9.9999999999999989e-01   9.9999999999999989e-01   1.0000000000000000e+00   1.0000000000000000e+00   9.9999999999999989e-01   9.9999999999999989e-01   9.9999999999989087e-01   9.9999999999945488e-01   9.9999999999218803e-01   9.9999999991388622e-01   9.9999999991276278e-01   9.9999999832249242e-01   9.9999999970451325e-01   9.9999999197389466e-01   9.9999999952827689e-01   9.9999998455057360e-01   9.9999999954269847e-01   9.9999998350146779e-01   9.9999999970015463e-01   9.9999998842832416e-01   9.9999999982000909e-01   9.9999999350862379e-01   9.9999999988400989e-01   9.9999999623084590e-01   9.9999999991852406e-01   9.9999999754380908e-01   9.9999999993736777e-01   9.9999999822065500e-01   9.9999999994672284e-01   9.9999999856626420e-01   9.9999999994962829e-01   9.9999999870688050e-01   9.9999999994751043e-01   9.9999999869951806e-01   9.9999999994085909e-01   9.9999999856559152e-01   9.9999999992984445e-01   9.9999999830947384e-01   9.9999999991494992e-01   9.9999999793615146e-01   9.9999999989773170e-01   9.9999999747278034e-01   9.9999999988102728e-01   9.9999999698453002e-01   9.9999999986831944e-01   9.9999999656840333e-01   9.9999999986207810e-01   9.9999999631439496e-01   9.9999999986261667e-01   9.9999999625983604e-01   9.9999999986814003e-01   9.9999999637400983e-01   9.9999999987616883e-01   9.9999999658726124e-01   9.9999999988456612e-01   9.9999999683064300e-01   9.9999999989193067e-01   9.9999999705550680e-01   9.9999999989753363e-01   9.9999999723464761e-01   9.9999999990129085e-01   9.9999999735997747e-01   9.9999999990339905e-01   9.9999999743563839e-01   9.9999999990405486e-01   9.9999999746869783e-01   9.9999999990335076e-01   9.9999999746342338e-01   9.9999999742249168e-01   9.9999999999999989e-01   1.0000000000000000e+00   1.0000000000000000e+00   1.0000000000000000e+00   1.0000000000000000e+00   9.9999999999999989e-01   9.9999999999999989e-01   1.0000000000000000e+00   1.0000000000000000e+00   9.9999999999999989e-01   9.9999999999999989e-01   1.0000000000000000e+00   1.0000000000000000e+00   1.0000000000000000e+00   1.0000000000000000e+00   9.9999999999999989e-01   9.9999999999999989e-01   1.0000000000000000e+00   1.0000000000000000e+00   1.0000000000000000e+00   1.0000000000000000e+00   1.0000000000000000e+00   1.0000000000000000e+00   9.9999999999999989e-01   9.9999999999999989e-01   9.9999999999999978e-01   1.0000000000000000e+00   9.9999999998120970e-01   9.9999999998183908e-01   9.9999990302069253e-01   9.9999973669598097e-01   9.9996950969817056e-01   9.9979000202503299e-01   9.9890971280975416e-01   9.8359546354196759e-01   9.9272377324629035e-01   8.4965419100694006e-01   9.8439187738561262e-01   6.9149345925523298e-01   9.8230087350877715e-01   6.3152363322485161e-01   9.8769746143984316e-01   6.4391480832065029e-01   9.9315449313233162e-01   7.0359168038891307e-01   9.9607987840377399e-01   7.7251016164799469e-01   9.9751739278493878e-01   8.2916022492234742e-01   9.9823704391359680e-01   8.6903580752178466e-01   9.9855644963381696e-01   8.9241592542732284e-01   9.9862522264817766e-01   9.0133229095736378e-01   9.9849865486062039e-01   8.9823949805681358e-01   9.9817802655915722e-01   8.8468420790434843e-01   9.9763678143739276e-01   8.6194324823751112e-01   9.9686358698079591e-01   8.3253012899020007e-01   9.9592034688562669e-01   8.0104239810296940e-01   9.9498433629167027e-01   7.7309534847628292e-01   9.9430083586345919e-01   7.5322754830262106e-01   9.9404700967168580e-01   7.4361856012638561e-01   9.9421759532661158e-01   7.4390826260019138e-01   9.9465112708597647e-01   7.5169024764264847e-01   9.9516738282479733e-01   7.6363332909113080e-01   9.9565195833873310e-01   7.7681922957466987e-01   9.9604000294132788e-01   7.8903136924310724e-01   9.9630664680981962e-01   7.9864438032451723e-01   9.9646690006415639e-01   8.0504658605122836e-01   9.9655027865178036e-01   8.0867772423275119e-01   9.9657043202989071e-01   8.1011298546771471e-01   9.9653063716357715e-01   8.0955266297946571e-01   9.9643225708057614e-01   8.0706043230419411e-01   8.0283190279500183e-01   1.0000000000000000e+00   9.9999999999999989e-01   9.9999999999999989e-01   1.0000000000000000e+00   1.0000000000000000e+00   9.9999999999999989e-01   9.9999999999999989e-01   1.0000000000000000e+00   1.0000000000000000e+00   1.0000000000000000e+00   1.0000000000000000e+00   9.9999999999999989e-01   9.9999999999999989e-01   1.0000000000000000e+00   1.0000000000000000e+00   1.0000000000000000e+00   1.0000000000000000e+00   1.0000000000000000e+00   1.0000000000000000e+00   9.9999999999999989e-01   9.9999999999999989e-01   9.9999999999945000e-01   9.9999999999991951e-01   9.9999970707899044e-01   9.9999988030225662e-01   9.9401286760134899e-01   9.9377121028062232e-01   6.4089504824977683e-01   4.8465573812733487e-01   2.1565228929326438e-01   6.7330789642510991e-02   1.7594116444282371e-02   1.4729131973322260e-03   3.3717684025528212e-03   1.3160430654191960e-04   1.7046820620755430e-03   3.7494354925930264e-05   1.6409855797504902e-03   2.1850710230706765e-05   2.3595791398934212e-03   2.2086152352477718e-05   3.8048057623576801e-03   2.9117849023356048e-05   5.9212646548190981e-03   4.0442141089179013e-05   8.4334490407098235e-03   5.4639086438906790e-05   1.0567348142927958e-02   6.8096874037600522e-05   1.1369153994105098e-02   7.4370074464434152e-05   1.0550452379419650e-02   7.0170940864477949e-05   8.6673724880570197e-03   5.8119004829521037e-05   6.5470053034964266e-03   4.3766093612729311e-05   4.7528705224836034e-03   3.1260252831483148e-05   3.4768748729112147e-03   2.2183257510697642e-05   2.6771604381701044e-03   1.6356419273555467e-05   2.2395705596293478e-03   1.2992306245953232e-05   2.0624964988411871e-03   1.1343507390589496e-05   2.0766437764645020e-03   1.0897258743018204e-05   2.2318849738393967e-03   1.1320283693938562e-05   2.4838391727306504e-03   1.2345804311503228e-05   2.7910231143178921e-03   1.3735610167135239e-05   3.1068927733697662e-03   1.5272503568863893e-05   3.3763302953103333e-03   1.6686102731117147e-05   3.5625780362721904e-03   1.7717414687257179e-05   3.6661896830434597e-03   1.8299386163609745e-05   3.6988498338737146e-03   1.8514499842581245e-05   3.6641162309845226e-03   1.8400319741124212e-05   3.5659619345473725e-03   1.7968929235750997e-05   3.4165393708174285e-03   1.7260728450198732e-05   1.6364390855144739e-05   9.9999999999999978e-01   9.9999999999999989e-01   9.9999999999999989e-01   9.9999999999999978e-01   9.9999999999999978e-01   9.9999999999999967e-01   9.9999999999999967e-01   9.9999999999999967e-01   9.9999999999999967e-01   9.9999999999999978e-01   9.9999999999999978e-01   9.9999999999999967e-01   9.9999999999999967e-01   9.9999999999999967e-01   9.9999999999999967e-01   9.9999999999999967e-01   9.9999999999999967e-01   9.9999999999999978e-01   9.9999999999999978e-01   9.9999999981791576e-01   9.9999999998799538e-01   9.9972021530135136e-01   9.9994926148347263e-01   4.8468318278425820e-01   6.3586951016789683e-01   3.4342207449833220e-03   3.5765618217969042e-03   4.0026855915772002e-06   2.0119655012677353e-06   3.3393358328526190e-08   8.5565480996881612e-09   1.3168112803866683e-09   1.8271314091341157e-10   1.6187516142333414e-10   1.3209267013536417e-11   4.4331270136292262e-11   2.2982264239838437e-12   2.1023497757492273e-11   7.5828232581898182e-13   1.4018166257419771e-11   3.8225903923697996e-13   1.1494370270407709e-11   2.5125272233121143e-13   1.0451639553821224e-11   1.9527897817302645e-13   9.5142412466960471e-12   1.6162071680980714e-13   8.1097073501013012e-12   1.3064549442276530e-13   6.3275866028315404e-12   9.9170671674642108e-14   4.5551803070272472e-12   7.0249361883156767e-14   3.1064780377694961e-12   4.7239989697800411e-14   2.0782264797958301e-12   3.1030733538273119e-14   1.4169036314607784e-12   2.0557629672642478e-14   1.0202209447622102e-12   1.4229358432279085e-14   7.9652950901731846e-13   1.0574874309554614e-14   6.8227830792485114e-13   8.5672210066907903e-15   6.3832272800823365e-13   7.5772721430666918e-15   6.4016384785740357e-13   7.2349533771406008e-15   6.7000109164420475e-13   7.2904645283718602e-15   7.1409544943890059e-13   7.5587684259896069e-15   7.6082658691708117e-13   7.9103390504542388e-15   7.9851865860310533e-13   8.2156503822261584e-15   8.1896526597328523e-13   8.3821838359199303e-15   8.2204613486661994e-13   8.3914356944584727e-15   8.1157303100098933e-13   8.2619096749188722e-15   7.8965537812318100e-13   8.0213613529167528e-15   7.5745891040905156e-13   7.6975463040677499e-15   7.1731509621031354e-13   7.2997163869104027e-15   6.7291542708384589e-13   6.8556271770603416e-15   6.3930342501331933e-15   1.0000000000000000e+00   9.9999999999999989e-01   9.9999999999999989e-01   1.0000000000000000e+00   1.0000000000000000e+00   1.0000000000000000e+00   1.0000000000000000e+00   9.9999999999999989e-01   9.9999999999999989e-01   1.0000000000000000e+00   1.0000000000000000e+00   1.0000000000000000e+00   1.0000000000000000e+00   1.0000000000000000e+00   1.0000000000000000e+00   9.9999999999999989e-01   9.9999999999999989e-01   9.9999999509050486e-01   9.9999999985884802e-01   9.8164022633447690e-01   9.9850444891151591e-01   6.8495638892499891e-02   2.2831531835936705e-01   2.6262445288379359e-06   6.6401342828370513e-06   8.6465841893830953e-10   1.0728378370868559e-09   2.0114558167231658e-12   1.3323508962770347e-12   2.2417253238889615e-14   8.5117098554595324e-15   8.4191912700741025e-16   1.9428902930940239e-16   7.4014868308343778e-17   1.8503717077085944e-17   9.2518585385429707e-18   0.0000000000000000e+00   0.0000000000000000e+00   0.0000000000000000e+00   0.0000000000000000e+00   0.0000000000000000e+00   0.0000000000000000e+00   0.0000000000000000e+00   0.0000000000000000e+00   0.0000000000000000e+00   0.0000000000000000e+00   0.0000000000000000e+00   0.0000000000000000e+00   0.0000000000000000e+00   0.0000000000000000e+00   0.0000000000000000e+00   0.0000000000000000e+00   0.0000000000000000e+00   0.0000000000000000e+00   0.0000000000000000e+00   0.0000000000000000e+00   0.0000000000000000e+00   0.0000000000000000e+00   0.0000000000000000e+00   0.0000000000000000e+00   0.0000000000000000e+00   0.0000000000000000e+00   0.0000000000000000e+00   0.0000000000000000e+00   0.0000000000000000e+00   0.0000000000000000e+00   0.0000000000000000e+00   0.0000000000000000e+00   0.0000000000000000e+00   0.0000000000000000e+00   0.0000000000000000e+00   0.0000000000000000e+00   0.0000000000000000e+00   0.0000000000000000e+00   0.0000000000000000e+00   0.0000000000000000e+00   0.0000000000000000e+00   0.0000000000000000e+00   0.0000000000000000e+00   0.0000000000000000e+00   0.0000000000000000e+00   0.0000000000000000e+00   0.0000000000000000e+00   0.0000000000000000e+00   0.0000000000000000e+00   0.0000000000000000e+00   0.0000000000000000e+00   0.0000000000000000e+00   0.0000000000000000e+00   0.0000000000000000e+00   0.0000000000000000e+00   0.0000000000000000e+00   1.0000000000000000e+00   1.0000000000000000e+00   1.0000000000000000e+00   9.9999999999999989e-01   9.9999999999999989e-01   1.0000000000000000e+00   1.0000000000000000e+00   1.0000000000000000e+00   1.0000000000000000e+00   1.0000000000000000e+00   1.0000000000000000e+00   9.9999999999999967e-01   9.9999999999999989e-01   9.9999998834252890e-01   9.9999999987582711e-01   9.0677024029038256e-01   9.9683419003041651e-01   3.2067884985156427e-03   4.7891132267815176e-02   3.1556456827249356e-08   2.0606644493548207e-07   3.3159493669406475e-12   9.9958097354857500e-12   2.4887499468680590e-15   3.9135361618036768e-15   9.2518585385429722e-18   9.2518585385429722e-18   0.0000000000000000e+00   0.0000000000000000e+00   0.0000000000000000e+00   0.0000000000000000e+00   0.0000000000000000e+00   0.0000000000000000e+00   0.0000000000000000e+00   0.0000000000000000e+00   0.0000000000000000e+00   0.0000000000000000e+00   0.0000000000000000e+00   0.0000000000000000e+00   0.0000000000000000e+00   0.0000000000000000e+00   0.0000000000000000e+00   0.0000000000000000e+00   0.0000000000000000e+00   0.0000000000000000e+00   0.0000000000000000e+00   0.0000000000000000e+00   0.0000000000000000e+00   0.0000000000000000e+00   0.0000000000000000e+00   0.0000000000000000e+00   0.0000000000000000e+00   0.0000000000000000e+00   0.0000000000000000e+00   0.0000000000000000e+00   0.0000000000000000e+00   0.0000000000000000e+00   0.0000000000000000e+00   0.0000000000000000e+00   0.0000000000000000e+00   0.0000000000000000e+00   0.0000000000000000e+00   0.0000000000000000e+00   0.0000000000000000e+00   0.0000000000000000e+00   0.0000000000000000e+00   0.0000000000000000e+00   0.0000000000000000e+00   0.0000000000000000e+00   0.0000000000000000e+00   0.0000000000000000e+00   0.0000000000000000e+00   0.0000000000000000e+00   0.0000000000000000e+00   0.0000000000000000e+00   0.0000000000000000e+00   0.0000000000000000e+00   0.0000000000000000e+00   0.0000000000000000e+00   0.0000000000000000e+00   0.0000000000000000e+00   0.0000000000000000e+00   0.0000000000000000e+00   0.0000000000000000e+00   0.0000000000000000e+00   0.0000000000000000e+00   0.0000000000000000e+00   0.0000000000000000e+00   0.0000000000000000e+00   0.0000000000000000e+00   9.9999999999999989e-01   1.0000000000000000e+00   1.0000000000000000e+00   1.0000000000000000e+00   1.0000000000000000e+00   1.0000000000000000e+00   1.0000000000000000e+00   9.9999999999999989e-01   9.9999999999999989e-01   9.9999999711832255e-01   9.9999999998766076e-01   9.3803816941768137e-01   9.9945774410320465e-01   1.6178576118302257e-03   8.0561404167699663e-02   4.9691729897549672e-09   1.0150178989902040e-07   1.7168673889974192e-13   1.4120834131621982e-12   4.6259292692714858e-17   1.6653345369377348e-16   0.0000000000000000e+00   0.0000000000000000e+00   0.0000000000000000e+00   0.0000000000000000e+00   0.0000000000000000e+00   0.0000000000000000e+00   0.0000000000000000e+00   0.0000000000000000e+00   0.0000000000000000e+00   0.0000000000000000e+00   0.0000000000000000e+00   0.0000000000000000e+00   0.0000000000000000e+00   0.0000000000000000e+00   0.0000000000000000e+00   0.0000000000000000e+00   0.0000000000000000e+00   0.0000000000000000e+00   0.0000000000000000e+00   0.0000000000000000e+00   0.00000000