<?xml version="1.0"?>
<VTKFile type="UnstructuredGrid"  version="0.1"  >
<UnstructuredGrid>
<Piece  NumberOfPoints="2404" NumberOfCells="4573">
<Points>
<DataArray  type="Float64"  NumberOfComponents="3"  format="ascii">0 0 0  0.008260869565217391 0 0  0.008260869565217391 0.008333333333333333 0  0 0.008333333333333333 0  0.01652173913043478 0 0  0.01652173913043478 0.008333333333333333 0  0.02478260869565217 0 0  0.02478260869565217 0.008333333333333333 0  0.03304347826086956 0 0  0.03304347826086956 0.008333333333333333 0  0.04130434782608695 0 0  0.04130434782608695 0.008333333333333333 0  0.04956521739130434 0 0  0.04956521739130434 0.008333333333333333 0  0.05782608695652174 0 0  0.05782608695652174 0.008333333333333333 0  0.06608695652173913 0 0  0.06608695652173913 0.008333333333333333 0  0.07434782608695652 0 0  0.07434782608695652 0.008333333333333333 0  0.08260869565217391 0 0  0.08260869565217391 0.008333333333333333 0  0.0908695652173913 0 0  0.0908695652173913 0.008333333333333333 0  0.09913043478260869 0 0  0.09913043478260869 0.008333333333333333 0  0.1073913043478261 0 0  0.1073913043478261 0.008333333333333333 0  0.1156521739130435 0 0  0.1156521739130435 0.008333333333333333 0  0.1239130434782609 0 0  0.1239130434782609 0.008333333333333333 0  0.1321739130434783 0 0  0.1321739130434783 0.008333333333333333 0  0.1404347826086956 0 0  0.1404347826086956 0.008333333333333333 0  0.148695652173913 0 0  0.148695652173913 0.008333333333333333 0  0.1569565217391304 0 0  0.1569565217391304 0.008333333333333333 0  0.1652173913043478 0 0  0.1652173913043478 0.008333333333333333 0  0.1734782608695652 0 0  0.1734782608695652 0.008333333333333333 0  0.1817391304347826 0 0  0.1817391304347826 0.008333333333333333 0  0.19 0 0  0.19 0.008333333333333333 0  0.1982608695652174 0 0  0.1982608695652174 0.008333333333333333 0  0.2065217391304348 0 0  0.2065217391304348 0.008333333333333333 0  0.2147826086956522 0 0  0.2147826086956522 0.008333333333333333 0  0.2230434782608696 0 0  0.2230434782608696 0.008333333333333333 0  0.2313043478260869 0 0  0.2313043478260869 0.008333333333333333 0  0.2395652173913043 0 0  0.2395652173913043 0.008333333333333333 0  0.2478260869565218 0 0  0.2478260869565218 0.008333333333333333 0  0.2560869565217391 0 0  0.2560869565217391 0.008333333333333333 0  0.2643478260869565 0 0  0.2643478260869565 0.008333333333333333 0  0.2726086956521739 0 0  0.2726086956521739 0.008333333333333333 0  0.2808695652173913 0 0  0.2808695652173913 0.008333333333333333 0  0.2891304347826087 0 0  0.2891304347826087 0.008333333333333333 0  0.2973913043478261 0 0  0.2973913043478261 0.008333333333333333 0  0.3056521739130434 0 0  0.3056521739130434 0.008333333333333333 0  0.008260869565217391 0.01666666666666667 0  0 0.01666666666666667 0  0.01652173913043478 0.01666666666666667 0  0.02478260869565217 0.01666666666666667 0  0.03304347826086956 0.01666666666666667 0  0.04130434782608695 0.01666666666666667 0  0.04956521739130434 0.01666666666666667 0  0.05782608695652174 0.01666666666666667 0  0.06608695652173913 0.01666666666666667 0  0.07434782608695652 0.01666666666666667 0  0.08260869565217391 0.01666666666666667 0  0.0908695652173913 0.01666666666666667 0  0.09913043478260869 0.01666666666666667 0  0.1073913043478261 0.01666666666666667 0  0.1156521739130435 0.01666666666666667 0  0.1239130434782609 0.01666666666666667 0  0.1321739130434783 0.01666666666666667 0  0.1404347826086956 0.01666666666666667 0  0.148695652173913 0.01666666666666667 0  0.1569565217391304 0.01666666666666667 0  0.1652173913043478 0.01666666666666667 0  0.1734782608695652 0.01666666666666667 0  0.1817391304347826 0.01666666666666667 0  0.19 0.01666666666666667 0  0.1982608695652174 0.01666666666666667 0  0.2065217391304348 0.01666666666666667 0  0.2147826086956522 0.01666666666666667 0  0.2230434782608696 0.01666666666666667 0  0.2313043478260869 0.01666666666666667 0  0.2395652173913043 0.01666666666666667 0  0.2478260869565218 0.01666666666666667 0  0.2560869565217391 0.01666666666666667 0  0.2643478260869565 0.01666666666666667 0  0.2726086956521739 0.01666666666666667 0  0.2808695652173913 0.01666666666666667 0  0.2891304347826087 0.01666666666666667 0  0.2973913043478261 0.01666666666666667 0  0.3056521739130434 0.01666666666666667 0  0.3139130434782609 0.01666666666666667 0  0.008260869565217391 0.025 0  0 0.025 0  0.01652173913043478 0.025 0  0.02478260869565217 0.025 0  0.03304347826086956 0.025 0  0.04130434782608695 0.025 0  0.04956521739130434 0.025 0  0.05782608695652174 0.025 0  0.06608695652173913 0.025 0  0.07434782608695652 0.025 0  0.08260869565217391 0.025 0  0.0908695652173913 0.025 0  0.09913043478260869 0.025 0  0.1073913043478261 0.025 0  0.1156521739130435 0.025 0  0.1239130434782609 0.025 0  0.1321739130434783 0.025 0  0.1404347826086956 0.025 0  0.148695652173913 0.025 0  0.1569565217391304 0.025 0  0.1652173913043478 0.025 0  0.1734782608695652 0.025 0  0.1817391304347826 0.025 0  0.19 0.025 0  0.1982608695652174 0.025 0  0.2065217391304348 0.025 0  0.2147826086956522 0.025 0  0.2230434782608696 0.025 0  0.2313043478260869 0.025 0  0.2395652173913043 0.025 0  0.2478260869565218 0.025 0  0.2560869565217391 0.025 0  0.2643478260869565 0.025 0  0.2726086956521739 0.025 0  0.2808695652173913 0.025 0  0.2891304347826087 0.025 0  0.2973913043478261 0.025 0  0.3056521739130434 0.025 0  0.3139130434782609 0.025 0  0.3221739130434783 0.01666666666666667 0  0.3221739130434783 0.025 0  0.3304347826086956 0.025 0  0.008260869565217391 0.03333333333333333 0  0 0.03333333333333333 0  0.01652173913043478 0.03333333333333333 0  0.02478260869565217 0.03333333333333333 0  0.03304347826086956 0.03333333333333333 0  0.04130434782608695 0.03333333333333333 0  0.04956521739130434 0.03333333333333333 0  0.05782608695652174 0.03333333333333333 0  0.06608695652173913 0.03333333333333333 0  0.07434782608695652 0.03333333333333333 0  0.08260869565217391 0.03333333333333333 0  0.0908695652173913 0.03333333333333333 0  0.09913043478260869 0.03333333333333333 0  0.1073913043478261 0.03333333333333333 0  0.1156521739130435 0.03333333333333333 0  0.1239130434782609 0.03333333333333333 0  0.1321739130434783 0.03333333333333333 0  0.1404347826086956 0.03333333333333333 0  0.148695652173913 0.03333333333333333 0  0.1569565217391304 0.03333333333333333 0  0.1652173913043478 0.03333333333333333 0  0.1734782608695652 0.03333333333333333 0  0.1817391304347826 0.03333333333333333 0  0.19 0.03333333333333333 0  0.1982608695652174 0.03333333333333333 0  0.2065217391304348 0.03333333333333333 0  0.2147826086956522 0.03333333333333333 0  0.2230434782608696 0.03333333333333333 0  0.2313043478260869 0.03333333333333333 0  0.2395652173913043 0.03333333333333333 0  0.2478260869565218 0.03333333333333333 0  0.2560869565217391 0.03333333333333333 0  0.2643478260869565 0.03333333333333333 0  0.2726086956521739 0.03333333333333333 0  0.2808695652173913 0.03333333333333333 0  0.2891304347826087 0.03333333333333333 0  0.2973913043478261 0.03333333333333333 0  0.3056521739130434 0.03333333333333333 0  0.3139130434782609 0.03333333333333333 0  0.3221739130434783 0.03333333333333333 0  0.3304347826086956 0.03333333333333333 0  0.338695652173913 0.025 0  0.338695652173913 0.03333333333333333 0  0.3469565217391304 0.03333333333333333 0  0.008260869565217391 0.04166666666666666 0  0 0.04166666666666666 0  0.01652173913043478 0.04166666666666666 0  0.02478260869565217 0.04166666666666666 0  0.03304347826086956 0.04166666666666666 0  0.04130434782608695 0.04166666666666666 0  0.04956521739130434 0.04166666666666666 0  0.05782608695652174 0.04166666666666666 0  0.06608695652173913 0.04166666666666666 0  0.07434782608695652 0.04166666666666666 0  0.08260869565217391 0.04166666666666666 0  0.0908695652173913 0.04166666666666666 0  0.09913043478260869 0.04166666666666666 0  0.1073913043478261 0.04166666666666666 0  0.1156521739130435 0.04166666666666666 0  0.1239130434782609 0.04166666666666666 0  0.1321739130434783 0.04166666666666666 0  0.1404347826086956 0.04166666666666666 0  0.148695652173913 0.04166666666666666 0  0.1569565217391304 0.04166666666666666 0  0.1652173913043478 0.04166666666666666 0  0.1734782608695652 0.04166666666666666 0  0.1817391304347826 0.04166666666666666 0  0.19 0.04166666666666666 0  0.1982608695652174 0.04166666666666666 0  0.2065217391304348 0.04166666666666666 0  0.2147826086956522 0.04166666666666666 0  0.2230434782608696 0.04166666666666666 0  0.2313043478260869 0.04166666666666666 0  0.2395652173913043 0.04166666666666666 0  0.2478260869565218 0.04166666666666666 0  0.2560869565217391 0.04166666666666666 0  0.2643478260869565 0.04166666666666666 0  0.2726086956521739 0.04166666666666666 0  0.2808695652173913 0.04166666666666666 0  0.2891304347826087 0.04166666666666666 0  0.2973913043478261 0.04166666666666666 0  0.3056521739130434 0.04166666666666666 0  0.3139130434782609 0.04166666666666666 0  0.3221739130434783 0.04166666666666666 0  0.3304347826086956 0.04166666666666666 0  0.338695652173913 0.04166666666666666 0  0.3469565217391304 0.04166666666666666 0  0.3552173913043478 0.03333333333333333 0  0.3552173913043478 0.04166666666666666 0  0.3634782608695652 0.04166666666666666 0  0.008260869565217391 0.05 0  0 0.05 0  0.01652173913043478 0.05 0  0.02478260869565217 0.05 0  0.03304347826086956 0.05 0  0.04130434782608695 0.05 0  0.04956521739130434 0.05 0  0.05782608695652174 0.05 0  0.06608695652173913 0.05 0  0.07434782608695652 0.05 0  0.08260869565217391 0.05 0  0.0908695652173913 0.05 0  0.09913043478260869 0.05 0  0.1073913043478261 0.05 0  0.1156521739130435 0.05 0  0.1239130434782609 0.05 0  0.1321739130434783 0.05 0  0.1404347826086956 0.05 0  0.148695652173913 0.05 0  0.1569565217391304 0.05 0  0.1652173913043478 0.05 0  0.1734782608695652 0.05 0  0.1817391304347826 0.05 0  0.19 0.05 0  0.1982608695652174 0.05 0  0.2065217391304348 0.05 0  0.2147826086956522 0.05 0  0.2230434782608696 0.05 0  0.2313043478260869 0.05 0  
[...]
<PointData  Vectors="Displacement"> 
<DataArray  type="Float64"  Name="Displacement"  NumberOfComponents="3" format="ascii">0.0000000000000000e+00 0.0000000000000000e+00 0.0000000000000000e+00  4.3505396358924610e-06 2.3151911334804009e-06 0.0000000000000000e+00  2.9900493795268416e-06 1.2259165795546646e-06 0.0000000000000000e+00  0.0000000000000000e+00 0.0000000000000000e+00 0.0000000000000000e+00  8.2387886855166005e-06 4.2023905805577084e-06 0.0000000000000000e+00  6.2548997015694845e-06 3.0561943117307216e-06 0.0000000000000000e+00  1.2050495264566622e-05 6.4861871812059084e-06 0.0000000000000000e+00  9.4612646965410442e-06 5.3363480992639661e-06 0.0000000000000000e+00  1.5857976540006917e-05 9.3501563232298940e-06 0.0000000000000000e+00  1.2621056161638062e-05 8.1995055751505538e-06 0.0000000000000000e+00  1.9678268233571954e-05 1.2868221452739089e-05 0.0000000000000000e+00  1.5754251342492892e-05 1.1716027550876661e-05 0.0000000000000000e+00  2.3516118358669081e-05 1.7081785355154879e-05 0.0000000000000000e+00  1.8873495406798928e-05 1.5927217731248079e-05 0.0000000000000000e+00  2.7372724018894363e-05 2.2021063600624741e-05 0.0000000000000000e+00  2.1985196578564723e-05 2.0864070226073233e-05 0.0000000000000000e+00  3.1248203095022329e-05 2.7710310464145895e-05 0.0000000000000000e+00  2.5092004707330984e-05 2.6551302500088133e-05 0.0000000000000000e+00  3.5144488570003174e-05 3.4168659055643205e-05 0.0000000000000000e+00  2.8196211697340287e-05 3.3007174375901520e-05 0.0000000000000000e+00  3.9067416830241686e-05 4.1414375918611046e-05 0.0000000000000000e+00  3.1301616596252156e-05 4.0248569161094799e-05 0.0000000000000000e+00  4.3026712113200938e-05 4.9470101005444709e-05 0.0000000000000000e+00  3.4413501057146638e-05 4.8297035367398079e-05 0.0000000000000000e+00  4.7033380562588504e-05 5.8367948140969415e-05 0.0000000000000000e+00  3.7536525235374156e-05 5.7185009835192125e-05 0.0000000000000000e+00  5.1096452125675921e-05 6.8150143110887117e-05 0.0000000000000000e+00  4.0672430334360099e-05 6.6956455303012754e-05 0.0000000000000000e+00  5.5225806207493445e-05 7.8860383371232560e-05 0.0000000000000000e+00  4.3823578464357541e-05 7.7653964129249307e-05 0.0000000000000000e+00  5.9434516107180065e-05 9.0549730515881364e-05 0.0000000000000000e+00  4.6993819431059718e-05 8.9326993251888796e-05 0.0000000000000000e+00  6.3732578906013790e-05 1.0328972419155857e-04 0.0000000000000000e+00  5.0181988286244954e-05 1.0205017538027061e-04 0.0000000000000000e+00  6.8128095380037211e-05 1.1715706349057071e-04 0.0000000000000000e+00  5.3386054375594156e-05 1.1589974583337539e-04 0.0000000000000000e+00  7.2630894372209350e-05 1.3223659117078348e-04 0.0000000000000000e+00  5.6605664760671617e-05 1.3095800288089439e-04 0.0000000000000000e+00  7.7235858762450611e-05 1.4865104820505762e-04 0.0000000000000000e+00  5.9824545230868201e-05 1.4735741178492889e-04 0.0000000000000000e+00  8.1933617802348846e-05 1.6650557485295737e-04 0.0000000000000000e+00  6.3030907247511056e-05 1.6519753552780278e-04 0.0000000000000000e+00  8.6713874108680370e-05 1.8591462187926162e-04 0.0000000000000000e+00  6.6217558502948851e-05 1.8458879177036478e-04 0.0000000000000000e+00  9.1520399705992430e-05 2.0705398499427889e-04 0.0000000000000000e+00  6.9340209941085360e-05 2.0573251731866395e-04 0.0000000000000000e+00  9.6290560658959486e-05 2.2998823624628947e-04 0.0000000000000000e+00  7.2385686330490263e-05 2.2867207119880116e-04 0.0000000000000000e+00  1.0092667477029819e-04 2.5479047198379690e-04 0.0000000000000000e+00  7.5328725917839275e-05 2.5350512418921052e-04 0.0000000000000000e+00  1.0527531212461913e-04 2.8143830384700388e-04 0.0000000000000000e+00  7.8112965627661070e-05 2.8023673904781920e-04 0.0000000000000000e+00  1.0921521393768414e-04 3.0966463286669364e-04 0.0000000000000000e+00  8.0719904704467345e-05 3.0856832972961807e-04 0.0000000000000000e+00  1.1268153628200822e-04 3.3913171345941113e-04 0.0000000000000000e+00  8.3148916245052401e-05 3.3815012083553765e-04 0.0000000000000000e+00  1.1564751090977771e-04 3.6948348268401628e-04 0.0000000000000000e+00  8.5399831679278045e-05 3.6862251841383447e-04 0.0000000000000000e+00  1.1811228743759041e-04 4.0036341196433183e-04 0.0000000000000000e+00  8.7468099484404069e-05 3.9962680115336314e-04 0.0000000000000000e+00  1.2009706489731311e-04 4.3143313460215012e-04 0.0000000000000000e+00  8.9344485489077288e-05 4.3082305975893119e-04 0.0000000000000000e+00  1.2165311852750088e-04 4.6239299483684544e-04 0.0000000000000000e+00  9.1018121338530696e-05 4.6189966481217205e-04 0.0000000000000000e+00  1.2286849429676348e-04 4.9302266720227680e-04 0.0000000000000000e+00  9.2496793228157682e-05 4.9261676394639245e-04 0.0000000000000000e+00  1.2384456305557332e-04 5.2322071653281531e-04 0.0000000000000000e+00  9.3814866066772450e-05 5.2286926586509277e-04 0.0000000000000000e+00  1.2463954478454477e-04 5.5300764985060529e-04 0.0000000000000000e+00  9.4987704122503078e-05 5.5270529344142113e-04 0.0000000000000000e+00  1.2527157493977744e-04 5.8239554457429840e-04 0.0000000000000000e+00  9.6015811069739577e-05 5.8214550789603356e-04 0.0000000000000000e+00  1.2575966470444494e-04 6.1135468630286896e-04 0.0000000000000000e+00  9.6911385803438548e-05 6.1114955335798895e-04 0.0000000000000000e+00  1.2613651191360924e-04 6.3986373523425722e-04 0.0000000000000000e+00  9.7699320060857958e-05 6.3968965308420134e-04 0.0000000000000000e+00  2.1787629306431383e-06 6.7995369314330792e-07 0.0000000000000000e+00  0.0000000000000000e+00 0.0000000000000000e+00 0.0000000000000000e+00  4.5700458310894723e-06 2.2172656843997076e-06 0.0000000000000000e+00  7.0264975785939758e-06 4.4331162109890940e-06 0.0000000000000000e+00  9.4638645180591123e-06 7.2869443874488782e-06 0.0000000000000000e+00  1.1870865904904304e-05 1.0805338817575358e-05 0.0000000000000000e+00  1.4251160401553527e-05 1.5019817472137157e-05 0.0000000000000000e+00  1.6607039401220373e-05 1.9961665330557291e-05 0.0000000000000000e+00  1.8937076964042610e-05 2.5656809738112319e-05 0.0000000000000000e+00  2.1240126155160039e-05 3.2121318733750743e-05 0.0000000000000000e+00  2.3517486913904950e-05 3.9369354867467363e-05 0.0000000000000000e+00  2.5772185145674135e-05 4.7420791483798460e-05 0.0000000000000000e+00  2.8004445892301223e-05 5.6310297980235845e-05 0.0000000000000000e+00  3.0207137606496582e-05 6.6087716942648931e-05 0.0000000000000000e+00  3.2375448135194142e-05 7.6790949099256423e-05 0.0000000000000000e+00  3.4508604683120865e-05 8.8464629452581921e-05 0.0000000000000000e+00  3.6593507087093121e-05 1.0119420094227414e-04 0.0000000000000000e+00  3.8619079049355234e-05 1.1505019582568690e-04 0.0000000000000000e+00  4.0585978329864608e-05 1.3010396521937956e-04 0.0000000000000000e+00  4.2459217753465021e-05 1.4652132295046782e-04 0.0000000000000000e+00  4.4223266512434856e-05 1.6436854563794202e-04 0.0000000000000000e+00  4.5896588992791648e-05 1.8373905355400342e-04 0.0000000000000000e+00  4.7412307194273362e-05 2.0491961069203020e-04 0.0000000000000000e+00  4.8800248765438188e-05 2.2783696994289803e-04 0.0000000000000000e+00  5.0109274991648577e-05 2.5265646342678244e-04 0.0000000000000000e+00  5.1355049115005525e-05 2.7946101632449557e-04 0.0000000000000000e+00  5.2630648435900057e-05 3.0784280891350661e-04 0.0000000000000000e+00  5.4016535179423462e-05 3.3745360427207089e-04 0.0000000000000000e+00  5.5549671366146250e-05 3.6795187546550975e-04 0.0000000000000000e+00  5.7224995716213670e-05 3.9899263951056482e-04 0.0000000000000000e+00  5.8997335973769433e-05 4.3024610901607889e-04 0.0000000000000000e+00  6.0802218883442606e-05 4.6140637565375488e-04 0.0000000000000000e+00  6.2528572959206550e-05 4.9217965711316090e-04 0.0000000000000000e+00  6.4148575460427584e-05 5.2242899422950734e-04 0.0000000000000000e+00  6.5667503771259632e-05 5.5228824215805561e-04 0.0000000000000000e+00  6.7061989153466953e-05 5.8178723380720749e-04 0.0000000000000000e+00  6.8327485750495909e-05 6.1083948222197867e-04 0.0000000000000000e+00  6.9492328590479768e-05 6.3939719828687129e-04 0.0000000000000000e+00  7.0567769300072529e-05 6.6752699662523274e-04 0.0000000000000000e+00  1.4787469163903798e-06 3.7840770192482486e-07 0.0000000000000000e+00  0.0000000000000000e+00 0.0000000000000000e+00 0.0000000000000000e+00  3.0812380977766740e-06 1.7057859177818490e-06 0.0000000000000000e+00  4.7453750424826294e-06 3.8210837833630356e-06 0.0000000000000000e+00  6.4160700774877352e-06 6.6436629111977435e-06 0.0000000000000000e+00  8.0672381379893855e-06 1.0154251401406189e-05 0.0000000000000000e+00  9.6922899167089477e-06 1.4368225057355063e-05 0.0000000000000000e+00  1.1285195006817531e-05 1.9317472948596910e-05 0.0000000000000000e+00  1.2835610633747593e-05 2.5029779512601661e-05 0.0000000000000000e+00  1.4336077716025768e-05 3.1514861408910975e-05 0.0000000000000000e+00  1.5785264459886213e-05 3.8780224110988608e-05 0.0000000000000000e+00  1.7186620055511389e-05 4.6841932484345078e-05 0.0000000000000000e+00  1.8537675790131275e-05 5.5740860103430933e-05 0.0000000000000000e+00  1.9818561569375110e-05 6.5541228429275862e-05 0.0000000000000000e+00  2.1018384171984170e-05 7.6266174798061853e-05 0.0000000000000000e+00  2.2139637248621604e-05 8.7949832262256447e-05 0.0000000000000000e+00  2.3152238629824181e-05 1.0070904788786421e-04 0.0000000000000000e+00  2.4030674665720438e-05 1.1459162620024686e-04 0.0000000000000000e+00  2.4793046149243072e-05 1.2963862912918666e-04 0.0000000000000000e+00  2.5374242732782253e-05 1.4611815663674387e-04 0.0000000000000000e+00  2.5739979053801575e-05 1.6399869992084114e-04 0.0000000000000000e+00  2.5938536635619793e-05 1.8331341304493563e-04 0.0000000000000000e+00  2.5863537312044927e-05 2.0463040789216411e-04 0.0000000000000000e+00  2.5531848663866714e-05 2.2751993525080212e-04 0.0000000000000000e+00  2.5020616440822078e-05 2.5228440130192802e-04 0.0000000000000000e+00  2.4461945613410435e-05 2.7916380704774615e-04 0.0000000000000000e+00  2.4246008555514371e-05 3.0751783986173050e-04 0.0000000000000000e+00  2.4517565044617496e-05 3.3704449325010905e-04 0.0000000000000000e+00  2.5330771066503402e-05 3.6744648186827348e-04 0.0000000000000000e+00  2.6678214736817481e-05 3.9840726060973061e-04 0.0000000000000000e+00  2.8481851921974677e-05 4.2963521870993172e-04 0.0000000000000000e+00  3.0586737976794753e-05 4.6080782290704186e-04 0.0000000000000000e+00  3.2888994374754508e-05 4.9173527571832326e-04 0.0000000000000000e+00  3.4815517395707547e-05 5.2192285711285342e-04 0.0000000000000000e+00  3.6625354930556980e-05 5.5175910028938690e-04 0.0000000000000000e+00  3.8374082045419329e-05 5.8133471294958248e-04 0.0000000000000000e+00  4.0008234833932303e-05 6.1045393883564611e-04 0.0000000000000000e+00  4.1530787504186445e-05 6.3900450505597001e-04 0.0000000000000000e+00  4.2963084175383076e-05 6.6714277875062032e-04 0.0000000000000000e+00  7.1548612086145061e-05 6.9526622799887840e-04 0.0000000000000000e+00  4.4297642794198335e-05 6.9492616743021510e-04 0.0000000000000000e+00  4.5522059160967536e-05 7.2232376055137218e-04 0.0000000000000000e+00  8.1860898749625117e-07 2.3472136669010107e-07 0.0000000000000000e+00  0.0000000000000000e+00 0.0000000000000000e+00 0.0000000000000000e+00  1.6859861773824104e-06 1.4483892339060180e-06 0.0000000000000000e+00  2.5805926600751115e-06 3.4931541656940579e-06 0.0000000000000000e+00  3.4777378728244607e-06 6.2801937290578211e-06 0.0000000000000000e+00  4.3620919369709984e-06 9.7719479084227534e-06 0.0000000000000000e+00  5.2267434559203285e-06 1.3974602477165125e-05 0.0000000000000000e+00  6.0584877699728788e-06 1.8928677129391219e-05 0.0000000000000000e+00  6.8349067801679785e-06 2.4667473491137177e-05 0.0000000000000000e+00  7.5403405633073869e-06 3.1186294841692696e-05 0.0000000000000000e+00  8.1705716216575310e-06 3.8478487351324695e-05 0.0000000000000000e+00  8.7339031658347830e-06 4.6550600486552098e-05 0.0000000000000000e+00  9.2301648036043737e-06 5.5459177952454393e-05 0.0000000000000000e+00  9.6181650403058220e-06 6.5303952542983612e-05 0.0000000000000000e+00  9.8782163513819825e-06 7.6063941419082982e-05 0.0000000000000000e+00  1.0031952239620108e-05 8.7747630092031053e-05 0.0000000000000000e+00  1.0031346060392837e-05 1.0056554919325498e-04 0.0000000000000000e+00  9.8217490978750825e-06 1.1450554977803881e-04 0.0000000000000000e+00  9.4372470264441182e-06 1.2949909017269192e-04 0.0000000000000000e+00  8.7956948334919310e-06 1.4609846073665550e-04 0.0000000000000000e+00  7.8862764201679461e-06 1.6406472123191410e-04 0.0000000000000000e+00  6.7260389960975622e-06 1.8322451470582067e-04 0.0000000000000000e+00  5.0868111196798858e-06 2.0468263275992657e-04 0.0000000000000000e+00  3.7249794562572663e-06 2.2745274073441831e-04 0.0000000000000000e+00  1.8416779452500380e-06 2.5213246768313752e-04 0.0000000000000000e+00  -1.5103874918430797e-06 2.7920323540286463e-04 0.0000000000000000e+00  -4.0246016773825688e-06 3.0755100612074788e-04 0.0000000000000000e+00  -5.2662286201946360e-06 3.3695401699371236e-04 0.0000000000000000e+00  -5.3334309589740950e-06 3.6717556597574931e-04 0.0000000000000000e+00  -4.5513051890349893e-06 3.9795844792600359e-04 0.0000000000000000e+00  -2.9374153894252159e-06 4.2903070861427761e-04 0.0000000000000000e+00  4.8215550518183981e-08 4.6009391015786977e-04 0.0000000000000000e+00  3.1791545475901977e-06 4.9098990850694854e-04 0.0000000000000000e+00  6.1208965473840629e-06 5.2148245535672041e-04 0.0000000000000000e+00  7.7965713690339913e-06 5.5114591627250086e-04 0.0000000000000000e+00  9.7696165453141525e-06 5.8071753904765278e-04 0.0000000000000000e+00  1.2004273628591403e-05 6.1002442099253003e-04 0.0000000000000000e+00  1.3867235302556849e-05 6.3853169536731160e-04 0.0000000000000000e+00  1.5599714926987258e-05 6.6665332791824281e-04 0.0000000000000000e+00  1.7251845351009182e-05 6.9448375266649670e-04 0.0000000000000000e+00  1.8819807142560732e-05 7.2196643214285936e-04 0.0000000000000000e+00  4.6643546568048051e-05 7.4927970052196850e-04 0.0000000000000000e+00  2.0270595592090804e-05 7.4896958176647087e-04 0.0000000000000000e+00  2.1596097344252150e-05 7.7552983253646442e-04 0.0000000000000000e+00  1.7960016135252373e-07 2.1421835680925378e-07 0.0000000000000000e+00  0.0000000000000000e+00 0.0000000000000000e+00 0.0000000000000000e+00  3.4490182921351365e-07 1.4025118282362598e-06 0.0000000000000000e+00  4.9931476751402493e-07 3.4242758591775726e-06 0.0000000000000000e+00  6.3924777081419826e-07 6.1907453442816944e-06 0.0000000000000000e+00  7.6395383442013453e-07 9.6571280855851011e-06 0.0000000000000000e+00  8.7542414665912403e-07 1.3831517358547798e-05 0.0000000000000000e+00  9.5691391345020062e-07 1.8782663030269018e-05 0.0000000000000000e+00  9.7311527009892536e-07 2.4559506165196179e-05 0.0000000000000000e+00  9.0148520489278784e-07 3.1128460055172198e-05 0.0000000000000000e+00  7.3357796729734771e-07 3.8458383787880480e-05 0.0000000000000000e+00  4.8353589324653336e-07 4.6529155148242907e-05 0.0000000000000000e+00  1.6304443693081341e-07 5.5428713026493228e-05 0.0000000000000000e+00  -2.9464204077189751e-07 6.5352200095491873e-05 0.0000000000000000e+00  -9.2313934487816331e-07 7.6168734827540714e-05 0.0000000000000000e+00  -1.6837999913064755e-06 8.7801540172306307e-05 0.0000000000000000e+00  -2.6332361294486993e-06 1.0069624064167355e-04 0.0000000000000000e+00  -3.7875218401611457e-06 1.1475585146689656e-04 0.0000000000000000e+00  -5.1576295560010296e-06 1.2962370457666154e-04 0.0000000000000000e+00  -7.0719425559159868e-06 1.4629642512339333e-04 0.0000000000000000e+00  -8.7969289977964164e-06 1.6424578791247979e-04 0.0000000000000000e+00  -1.0314200459569561e-05 1.8318074562059591e-04 0.0000000000000000e+00  -1.4466088108930030e-05 2.0495346750912683e-04 0.0000000000000000e+00  -1.8967358716562388e-05 2.2788154171931977e-04 0.0000000000000000e+00  -1.6544734369067197e-05 2.5482160232442132e-04 0.0000000000000000e+00  -1.6773450250192412e-05 2.8161791873449637e-04 0.0000000000000000e+00  -1.7658245317793192e-05 3.0906059082483730e-04 0.0000000000000000e+00  -1.8417935718570065e-05 3.3733162614910523e-04 0.0000000000000000e+00  -1.8758967560674229e-05 3.6638713265312359e-04 0.0000000000000000e+00  -1.8641375810734742e-05 3.9607338493054083e-04 0.0000000000000000e+00  -1.8144332022806470e-05 4.2614819944879174e-04 0.0000000000000000e+00  -1.7474612093774282e-05 4.5641102205345264e-04 0.0000000000000000e+00  -1.7191832843807122e-05 4.8704424303573396e-04 0.0000000000000000e+00  -1.8217226155892633e-05 5.1805701404830098e-04 0.0000000000000000e+00  -2.1891520065492073e-05 5.5053978917052055e-04 0.0000000000000000e+00  -1.9366511302797855e-05 5.8004230162526449e-04 0.0000000000000000e+00  -1.6337544197131527e-05 6.0926914281926245e-04 0.0000000000000000e+00  -1.3225048657139871e-05 6.3806802247823064e-04 0.0000000000000000e+00  -1.1454664524886487e-05 6.6612638249474645e-04 0.0000000000000000e+00  -9.6948319171373366e-06 6.9391189169543132e-04 0.0000000000000000e+00  -7.7050764078438157e-06 7.2150392234596021e-04 0.0000000000000000e+00  -5.7968755707992447e-06 7.4860032987036386e-04 0.0000000000000000e+00  -4.1742340889694713e-06 7.7518837803134386e-04 0.0000000000000000e+00  2.2790342888091947e-05 8.0173244023130539e-04 0.0000000000000000e+00  -2.7369726238814421e-06 8.0145555538798242e-04 0.0000000000000000e+00  -1.4799681382619526e-06 8.2740466701766138e-04 0.0000000000000000e+00  -4.4895333858788194e-07 3.0407684450915589e-07 0.0000000000000000e+00  0.0000000000000000e+00 0.0000000000000000e+00 0.0000000000000000e+00  -9.6367866261429506e-07 1.5458111947335066e-06 0.0000000000000000e+00  -1.5182988574942661e-06 3.5935214650863747e-06 0.0000000000000000e+00  -2.1049933193889387e-06 6.3633373521597213e-06 0.0000000000000000e+00  -2.7156749982427324e-06 9.8023552600068850e-06 0.0000000000000000e+00  -3.3394392497878674e-06 1.3923909870857855e-05 0.0000000000000000e+00  -3.9962749426507916e-06 1.8857992429043905e-05 0.0000000000000000e+00  -4.7289282527875561e-06 2.4687642416087851e-05 0.0000000000000000e+00  -5.5493190075400957e-06 3.1325471788671622e-05 0.0000000000000000e+00  -6.4733700477649614e-06 3.8709540805266812e-05 0.0000000000000000e+00  -7.4869664594775784e-06 4.6762009998978158e-05 0.0000000000000000e+00  -8.5945890665837546e-06 5.5597128809469171e-05 0.0000000000000000e+00  -9.8691359993620133e-06 6.5636769108276083e-05 0.0000000000000000e+00  -1.1264162423371337e-05 7.6554921562721357e-05 0.0000000000000000e+00  -1.2804833171774402e-05 8.8072390711346800e-05 0.0000000000000000e+00  -1.4769187345394634e-05 1.0099672034052312e-04 0.0000000000000000e+00  -1.6664819088429730e-05 1.1507309035997405e-04 0.0000000000000000e+00  -1.8115731531594251e-05 1.2976780799320748e-04 0.0000000000000000e+00  -2.1282866111160890e-05 1.4657397527940137e-04 0.0000000000000000e+00  -2.4936100531427732e-05 1.6457736918037744e-04 0.0000000000000000e+00  -2.6736895887408820e-05 1.8443312903896648e-04 0.0000000000000000e+00  -2.6520312942032985e-05 2.0853994569388842e-04 0.0000000000000000e+00  -2.7829874476013717e-05 2.3173822801116425e-04 0.0000000000000000e+00  -2.8813643011342031e-05 2.5622916434524083e-04 0.0000000000000000e+00  -2.9355728582463745e-05 2.8272624273114586e-04 0.0000000000000000e+00  -3.0126065214380099e-05 3.0975639087125264e-04 0.0000000000000000e+00  -3.0930896956590453e-05 3.3738859419115509e-04 0.0000000000000000e+00  -3.1595219204561957e-05 3.6566795542905474e-04 0.0000000000000000e+00  -3.2051338441577330e-05 3.9454027889374504e-04 0.0000000000000000e+00  -3.2333991134976348e-05 4.2388124020535173e-04 0.0000000000000000e+00  -3.2573688360814924e-05 4.5360163289488020e-04 0.0000000000000000e+00  -3.2955675425387622e-05 4.8378843184559999e-04 0.0000000000000000e+00  -3.3575375623239127e-05 5.1443142403000337e-04 0.0000000000000000e+00  -3.4184356984818750e-05 5.4546560819543669e-04 0.0000000000000000e+00  -3.3882960825147972e-05 5.7409293021161824e-04 0.000000000000000