<?xml version="1.0"?>
<VTKFile type="UnstructuredGrid"  version="0.1"  >
<UnstructuredGrid>
<Piece  NumberOfPoints="2428" NumberOfCells="4656">
<Points>
<DataArray  type="Float64"  NumberOfComponents="3"  format="ascii">2.602173913043478 0 0  2.610434782608696 0 0  2.610434782608696 0.008333333333333333 0  2.618695652173913 0 0  2.618695652173913 0.008333333333333333 0  2.62695652173913 0 0  2.62695652173913 0.008333333333333333 0  2.635217391304348 0 0  2.635217391304348 0.008333333333333333 0  2.643478260869565 0 0  2.643478260869565 0.008333333333333333 0  2.651739130434783 0 0  2.651739130434783 0.008333333333333333 0  2.66 0 0  2.66 0.008333333333333333 0  2.668260869565217 0 0  2.668260869565217 0.008333333333333333 0  2.676521739130435 0 0  2.676521739130435 0.008333333333333333 0  2.684782608695652 0 0  2.684782608695652 0.008333333333333333 0  2.693043478260869 0 0  2.693043478260869 0.008333333333333333 0  2.701304347826087 0 0  2.701304347826087 0.008333333333333333 0  2.709565217391304 0 0  2.709565217391304 0.008333333333333333 0  2.717826086956522 0 0  2.717826086956522 0.008333333333333333 0  2.726086956521739 0 0  2.726086956521739 0.008333333333333333 0  2.734347826086956 0 0  2.734347826086956 0.008333333333333333 0  2.742608695652174 0 0  2.742608695652174 0.008333333333333333 0  2.750869565217391 0 0  2.750869565217391 0.008333333333333333 0  2.759130434782609 0 0  2.759130434782609 0.008333333333333333 0  2.767391304347826 0 0  2.767391304347826 0.008333333333333333 0  2.775652173913044 0 0  2.775652173913044 0.008333333333333333 0  2.783913043478261 0 0  2.783913043478261 0.008333333333333333 0  2.792173913043478 0 0  2.792173913043478 0.008333333333333333 0  2.800434782608696 0 0  2.800434782608696 0.008333333333333333 0  2.808695652173913 0 0  2.808695652173913 0.008333333333333333 0  2.81695652173913 0 0  2.81695652173913 0.008333333333333333 0  2.825217391304347 0 0  2.825217391304347 0.008333333333333333 0  2.833478260869565 0 0  2.833478260869565 0.008333333333333333 0  2.841739130434783 0 0  2.841739130434783 0.008333333333333333 0  2.85 0 0  2.85 0.008333333333333333 0  2.858260869565217 0 0  2.858260869565217 0.008333333333333333 0  2.866521739130435 0 0  2.866521739130435 0.008333333333333333 0  2.874782608695652 0 0  2.874782608695652 0.008333333333333333 0  2.88304347826087 0 0  2.88304347826087 0.008333333333333333 0  2.891304347826087 0 0  2.891304347826087 0.008333333333333333 0  2.899565217391304 0 0  2.899565217391304 0.008333333333333333 0  2.907826086956522 0 0  2.907826086956522 0.008333333333333333 0  2.916086956521739 0 0  2.916086956521739 0.008333333333333333 0  2.924347826086957 0 0  2.924347826086957 0.008333333333333333 0  2.932608695652174 0 0  2.932608695652174 0.008333333333333333 0  2.940869565217391 0 0  2.940869565217391 0.008333333333333333 0  2.618695652173913 0.01666666666666667 0  2.62695652173913 0.01666666666666667 0  2.635217391304348 0.01666666666666667 0  2.643478260869565 0.01666666666666667 0  2.651739130434783 0.01666666666666667 0  2.66 0.01666666666666667 0  2.668260869565217 0.01666666666666667 0  2.676521739130435 0.01666666666666667 0  2.684782608695652 0.01666666666666667 0  2.693043478260869 0.01666666666666667 0  2.701304347826087 0.01666666666666667 0  2.709565217391304 0.01666666666666667 0  2.717826086956522 0.01666666666666667 0  2.726086956521739 0.01666666666666667 0  2.734347826086956 0.01666666666666667 0  2.742608695652174 0.01666666666666667 0  2.750869565217391 0.01666666666666667 0  2.759130434782609 0.01666666666666667 0  2.767391304347826 0.01666666666666667 0  2.775652173913044 0.01666666666666667 0  2.783913043478261 0.01666666666666667 0  2.792173913043478 0.01666666666666667 0  2.800434782608696 0.01666666666666667 0  2.808695652173913 0.01666666666666667 0  2.81695652173913 0.01666666666666667 0  2.825217391304347 0.01666666666666667 0  2.833478260869565 0.01666666666666667 0  2.841739130434783 0.01666666666666667 0  2.85 0.01666666666666667 0  2.858260869565217 0.01666666666666667 0  2.866521739130435 0.01666666666666667 0  2.874782608695652 0.01666666666666667 0  2.88304347826087 0.01666666666666667 0  2.891304347826087 0.01666666666666667 0  2.899565217391304 0.01666666666666667 0  2.907826086956522 0.01666666666666667 0  2.916086956521739 0.01666666666666667 0  2.924347826086957 0.01666666666666667 0  2.932608695652174 0.01666666666666667 0  2.940869565217391 0.01666666666666667 0  2.949130434782608 0.01666666666666667 0  2.62695652173913 0.025 0  2.635217391304348 0.025 0  2.643478260869565 0.025 0  2.651739130434783 0.025 0  2.66 0.025 0  2.668260869565217 0.025 0  2.676521739130435 0.025 0  2.684782608695652 0.025 0  2.693043478260869 0.025 0  2.701304347826087 0.025 0  2.709565217391304 0.025 0  2.717826086956522 0.025 0  2.726086956521739 0.025 0  2.734347826086956 0.025 0  2.742608695652174 0.025 0  2.750869565217391 0.025 0  2.759130434782609 0.025 0  2.767391304347826 0.025 0  2.775652173913044 0.025 0  2.783913043478261 0.025 0  2.792173913043478 0.025 0  2.800434782608696 0.025 0  2.808695652173913 0.025 0  2.81695652173913 0.025 0  2.825217391304347 0.025 0  2.833478260869565 0.025 0  2.841739130434783 0.025 0  2.85 0.025 0  2.858260869565217 0.025 0  2.866521739130435 0.025 0  2.874782608695652 0.025 0  2.88304347826087 0.025 0  2.891304347826087 0.025 0  2.899565217391304 0.025 0  2.907826086956522 0.025 0  2.916086956521739 0.025 0  2.924347826086957 0.025 0  2.932608695652174 0.025 0  2.940869565217391 0.025 0  2.949130434782608 0.025 0  2.957391304347826 0.025 0  2.635217391304348 0.03333333333333333 0  2.643478260869565 0.03333333333333333 0  2.651739130434783 0.03333333333333333 0  2.66 0.03333333333333333 0  2.668260869565217 0.03333333333333333 0  2.676521739130435 0.03333333333333333 0  2.684782608695652 0.03333333333333333 0  2.693043478260869 0.03333333333333333 0  2.701304347826087 0.03333333333333333 0  2.709565217391304 0.03333333333333333 0  2.717826086956522 0.03333333333333333 0  2.726086956521739 0.03333333333333333 0  2.734347826086956 0.03333333333333333 0  2.742608695652174 0.03333333333333333 0  2.750869565217391 0.03333333333333333 0  2.759130434782609 0.03333333333333333 0  2.767391304347826 0.03333333333333333 0  2.775652173913044 0.03333333333333333 0  2.783913043478261 0.03333333333333333 0  2.792173913043478 0.03333333333333333 0  2.800434782608696 0.03333333333333333 0  2.808695652173913 0.03333333333333333 0  2.81695652173913 0.03333333333333333 0  2.825217391304347 0.03333333333333333 0  2.833478260869565 0.03333333333333333 0  2.841739130434783 0.03333333333333333 0  2.85 0.03333333333333333 0  2.858260869565217 0.03333333333333333 0  2.866521739130435 0.03333333333333333 0  2.874782608695652 0.03333333333333333 0  2.88304347826087 0.03333333333333333 0  2.891304347826087 0.03333333333333333 0  2.899565217391304 0.03333333333333333 0  2.907826086956522 0.03333333333333333 0  2.916086956521739 0.03333333333333333 0  2.924347826086957 0.03333333333333333 0  2.932608695652174 0.03333333333333333 0  2.940869565217391 0.03333333333333333 0  2.949130434782608 0.03333333333333333 0  2.957391304347826 0.03333333333333333 0  2.965652173913043 0.03333333333333333 0  2.643478260869565 0.04166666666666666 0  2.651739130434783 0.04166666666666666 0  2.66 0.04166666666666666 0  2.668260869565217 0.04166666666666666 0  2.676521739130435 0.04166666666666666 0  2.684782608695652 0.04166666666666666 0  2.693043478260869 0.04166666666666666 0  2.701304347826087 0.04166666666666666 0  2.709565217391304 0.04166666666666666 0  2.717826086956522 0.04166666666666666 0  2.726086956521739 0.04166666666666666 0  2.734347826086956 0.04166666666666666 0  2.742608695652174 0.04166666666666666 0  2.750869565217391 0.04166666666666666 0  2.759130434782609 0.04166666666666666 0  2.767391304347826 0.04166666666666666 0  2.775652173913044 0.04166666666666666 0  2.783913043478261 0.04166666666666666 0  2.792173913043478 0.04166666666666666 0  2.800434782608696 0.04166666666666666 0  2.808695652173913 0.04166666666666666 0  2.81695652173913 0.04166666666666666 0  2.825217391304347 0.04166666666666666 0  2.833478260869565 0.04166666666666666 0  2.841739130434783 0.04166666666666666 0  2.85 0.04166666666666666 0  2.858260869565217 0.04166666666666666 0  2.866521739130435 0.04166666666666666 0  2.874782608695652 0.04166666666666666 0  2.88304347826087 0.04166666666666666 0  2.891304347826087 0.04166666666666666 0  2.899565217391304 0.04166666666666666 0  2.907826086956522 0.04166666666666666 0  2.916086956521739 0.04166666666666666 0  2.924347826086957 0.04166666666666666 0  2.932608695652174 0.04166666666666666 0  2.940869565217391 0.04166666666666666 0  2.949130434782608 0.04166666666666666 0  2.957391304347826 0.04166666666666666 0  2.965652173913043 0.04166666666666666 0  2.973913043478261 0.04166666666666666 0  2.651739130434783 0.05 0  2.66 0.05 0  2.668260869565217 0.05 0  2.676521739130435 0.05 0  2.684782608695652 0.05 0  2.693043478260869 0.05 0  2.701304347826087 0.05 0  2.709565217391304 0.05 0  2.717826086956522 0.05 0  2.726086956521739 0.05 0  2.734347826086956 0.05 0  2.742608695652174 0.05 0  2.750869565217391 0.05 0  2.759130434782609 0.05 0  2.767391304347826 0.05 0  2.775652173913044 0.05 0  2.783913043478261 0.05 0  2.792173913043478 0.05 0  2.800434782608696 0.05 0  2.808695652173913 0.05 0  2.81695652173913 0.05 0  2.825217391304347 0.05 0  2.833478260869565 0.05 0  2.841739130434783 0.05 0  2.85 0.05 0  2.858260869565217 0.05 0  2.866521739130435 0.05 0  2.874782608695652 0.05 0  2.88304347826087 0.05 0  2.891304347826087 0.05 0  2.899565217391304 0.05 0  2.907826086956522 0.05 0  2.916086956521739 0.05 0  2.924347826086957 0.05 0  2.932608695652174 0.05 0  2.940869565217391 0.05 0  2.949130434782608 0.05 0  2.957391304347826 0.05 0  2.965652173913043 0.05 0  2.973913043478261 0.05 0  2.982173913043478 0.05 0  2.66 0.05833333333333333 0  2.668260869565217 0.05833333333333333 0  2.67652
[...]
<CellData  Scalars="sigma_m"> 
<DataArray  type="Float64"  Name="sigma_m"  format="ascii">7.2071056421308834e+06   7.0961390264422782e+06   5.4695563029877078e+06   6.9730623595463987e+06   5.4319045879935091e+06   6.8330841217375426e+06   5.4180674422002025e+06   6.6752567788337888e+06   5.4237305603885800e+06   6.5039598383776303e+06   5.4406369661981594e+06   6.3272632364834193e+06   5.4588761451874366e+06   6.1524214502149867e+06   5.4713259264396271e+06   5.9831510923937615e+06   5.4755163137746127e+06   5.8202471393207666e+06   5.4720066395040071e+06   5.6633379627468726e+06   5.4621351469159089e+06   5.5119730687260432e+06   5.4468722507888982e+06   5.3658892545527006e+06   5.4265974026605962e+06   5.2249519187173592e+06   5.4011907475918913e+06   5.0890987052975530e+06   5.3701428132784208e+06   4.9583586111519355e+06   5.3327190904398430e+06   4.8328489063489959e+06   5.2882400922936341e+06   4.7127595478377743e+06   5.2363762787394281e+06   4.5983014076720681e+06   5.1773607109602029e+06   4.4896286540005337e+06   5.1120967395076593e+06   4.3867117490100926e+06   5.0421376593790902e+06   4.2892442632233500e+06   4.9694474257434569e+06   4.1967545419862075e+06   4.8958683514956804e+06   4.1091053224775745e+06   4.8225675727195749e+06   4.0269447805463178e+06   4.7499967087158645e+06   3.9516498084026342e+06   4.6783103027505185e+06   3.8847891764474432e+06   4.6076947612392008e+06   3.8275345849794592e+06   4.5384061456395322e+06   3.7803321247936226e+06   4.4706189540736340e+06   3.7429740255455389e+06   4.4043380854108660e+06   3.7148306102763405e+06   4.3394715816756450e+06   3.6948524377896772e+06   4.2760238145325277e+06   3.6811896922725504e+06   4.2142196571120797e+06   3.6708439954477898e+06   4.1545022591879475e+06   3.6598287323816922e+06   4.0974078731290479e+06   3.6439128576076091e+06   4.0433827327256203e+06   3.6195936887732809e+06   3.9926174414703427e+06   3.5848369295048295e+06   3.9450136895573344e+06   3.5392235221866169e+06   3.9002768653143151e+06   3.4835204024054245e+06   3.8580273768813196e+06   3.4190738776855813e+06   3.8178780673734425e+06   5.3214996428426187e+06   5.2907440254830066e+06   3.7141505132732722e+06   5.2866947703700550e+06   3.8214116678866516e+06   5.3055273781898115e+06   4.0025833299638205e+06   5.3386223434865847e+06   4.2418272979956530e+06   5.3747310259242784e+06   4.4980913660278264e+06   5.4050725229483815e+06   4.7309265545609798e+06   5.4260549148123907e+06   4.9280622564709177e+06   5.4379086096931286e+06   5.0967192037846018e+06   5.4420738982552085e+06   5.2453659894312210e+06   5.4396806393048903e+06   5.3779850821487736e+06   5.4311951577500617e+06   5.4954020960400347e+06   5.4165104716700390e+06   5.5971316783541134e+06   5.3950734729724089e+06   5.6818799656221122e+06   5.3660752338329619e+06   5.7476032113104491e+06   5.3287647591622788e+06   5.7919946729179621e+06   5.2827697939668465e+06   5.8137103023598613e+06   5.2283398204972707e+06   5.8127172020758074e+06   5.1664712841286631e+06   5.7908099609757522e+06   5.0988998786315154e+06   5.7515253220577156e+06   5.0278170573625304e+06   5.7002104532678854e+06   4.9552307919980716e+06   5.6426265126365535e+06   4.8823142461574590e+06   5.5825834592617936e+06   4.8094305174456295e+06   5.5195576656583901e+06   4.7366551593929036e+06   5.4511750714780902e+06   4.6641800958896950e+06   5.3754703357687425e+06   4.5923518528941926e+06   5.2919723866529446e+06   4.5214760565568497e+06   5.2010476589055043e+06   4.4516935196446739e+06   5.1033888318949528e+06   4.3830760401167087e+06   4.9993862083506957e+06   4.3158584219558509e+06   4.8897070648088083e+06   4.2505448501707697e+06   4.7762798643003348e+06   4.1878343488874985e+06   4.6631675095873009e+06   4.1284373368858276e+06   4.5560260641188668e+06   4.0728886699717748e+06   4.4607622407503305e+06   4.0214235120174047e+06   4.3818695893654041e+06   3.9739909528868971e+06   4.3214145218777237e+06   3.9303481288273572e+06   4.2790038273920529e+06   3.8901279231582903e+06   4.2527636132659446e+06   3.8529026142593501e+06   4.2403513251725072e+06   4.2395134195006331e+06   3.4491785385766965e+06   3.5706813637525714e+06   1.8781653249401955e+06   3.7467613930110899e+06   2.0626273080612652e+06   3.9588593141460619e+06   2.3078433632025030e+06   4.1721255992530030e+06   2.5813384682478574e+06   4.3605248315991079e+06   2.8416267233806844e+06   4.5222126724735079e+06   3.0709769161983957e+06   4.6660619084875248e+06   3.2744605030255704e+06   4.7986262300679414e+06   3.4618194745630003e+06   4.9223650481398413e+06   3.6403914161235625e+06   5.0375734892034559e+06   3.8143708765991433e+06   5.1437742182307262e+06   3.9847691823942056e+06   5.2400101786385197e+06   4.1495286087640123e+06   5.3247371004631026e+06   4.3049398319623265e+06   5.3958772006619265e+06   4.4468774563151188e+06   5.4514100404596310e+06   4.5725506481614280e+06   5.4897177284102654e+06   4.6807215410546837e+06   5.5102886198769007e+06   4.7721424805687442e+06   5.5141236295523895e+06   4.8492997162082326e+06   5.5041615599133316e+06   4.9162582464654557e+06   5.4844403715976179e+06   4.9778281221859856e+06   5.4581376949545918e+06   5.0385496989149516e+06   5.4252068094797926e+06   5.0989861036237050e+06   5.3838523951330520e+06   5.1546162120074080e+06   5.3322806548598977e+06   5.1981873447824055e+06   5.2697810680500427e+06   5.2233365339277331e+06   5.1964218223612551e+06   5.2259748602425586e+06   5.1127431106045628e+06   5.2051145631715795e+06   5.0191691562585989e+06   5.1606219665021105e+06   4.9164237640078804e+06   5.0919465042687040e+06   4.8065689937089719e+06   4.9995520478280624e+06   4.6941502404834554e+06   4.8901340226041460e+06   4.5858374128412800e+06   4.7772881816795636e+06   4.4888145909155803e+06   4.6772252571448740e+06   4.4086617768061534e+06   4.6026347117557516e+06   4.3480352451387355e+06   4.5595713973772395e+06   4.3066652361243563e+06   4.5469506472619083e+06   4.2825407810966987e+06   4.5597747362399567e+06   4.2731004450224070e+06   4.5931394469828550e+06   4.2758710267381445e+06   4.6432474439539984e+06   4.7067533339190045e+06   4.4525715592982364e+04   3.3591638203508694e+04   3.5225327243671080e+02   2.1106664914402878e+04   2.2477883542970744e+02   1.1959205986253088e+04   1.2520025261912862e+02   6.6936580411423038e+03   6.6783553585739455e+01   4.0258576852993074e+03   3.7400538538738815e+01   2.7480172303664626e+03   2.3598210433494923e+01   2.1565440316215377e+03   1.7256519066254551e+01   1.9195421970914801e+03   1.4489101959514343e+01   1.9040181974831032e+03   1.3684604007571233e+01   2.0745273258514653e+03   1.4304853500058213e+01   2.4496768266402664e+03   1.6330775470920130e+01   3.0884738593406883e+03   2.0086398316753236e+01   4.0817334873043460e+03   2.6181389004922629e+01   5.5389685626409000e+03   3.5443708525153234e+01   7.5831345228471628e+03   4.8824958554585152e+01   1.0359735346410009e+04   6.7475816396804191e+01   1.4043300534131389e+04   9.2803089305258837e+01   1.8828772836127744e+04   1.2648681130581059e+02   2.4898739956200632e+04   1.7017250494073195e+02   3.2442096051741592e+04   2.2527967342214063e+02   4.1838736992897859e+04   2.9395855565247751e+02   5.3838029955843645e+04   3.8159072055839806e+02   6.9547357024378478e+04   4.9726158905052353e+02   9.0374972821894597e+04   6.5334701911350737e+02   1.1795197415693494e+05   8.6485883386630860e+02   1.5409097398003397e+05   1.1498297868576208e+03   2.0076331999328893e+05   1.5304283305338190e+03   2.5975103560797599e+05   2.0379801796411743e+03   3.3037232559505705e+05   2.7129025282932039e+03   4.0391582538383210e+05   3.5818137807082585e+03   4.6185397146793519e+05   4.5757928168514227e+03   5.0163680837579578e+05   5.4250293587579945e+03   5.6697925350590260e+05   5.9368143482638334e+03   6.9201576234845945e+05   6.9739436610628591e+03   8.6696908036364301e+05   9.5453575262264130e+03   1.0752508997625646e+06   1.3436312553576994e+04   1.3017354603395504e+06   1.8540534173381227e+04   1.5285177187152868e+06   2.4909394682214413e+04   1.7366055077503205e+06   3.2302929805021955e+04   4.0039317705636306e+04   6.2548365665449280e-05   3.4198901857739476e-05   3.2493085859426574e-07   1.7034369376822755e-05   1.6336684055474852e-07   8.4898277106740802e-06   8.0294014824785192e-08   4.6151340649804821e-06   4.1357797348450048e-08   2.9008214668336307e-06   2.3922661263806360e-08   2.1414479450886294e-06   1.7048407389064039e-08   1.8244323827164893e-06   1.3212897872850307e-08   1.7511186271599158e-06   1.2250942799427766e-08   1.8608883734474148e-06   1.1993578658315356e-08   2.1560023038893776e-06   1.3056599261897873e-08   2.6878832369525024e-06   1.5369831653552507e-08   3.5460427828086941e-06   1.8876789036050648e-08   4.8491027452180805e-06   2.4775762192184963e-08   6.7474898167829673e-06   3.3603293121461584e-08   9.4346976303019712e-06   4.6504434445276925e-08   1.3150218874460839e-05   6.4616390311260507e-08   1.8167397273694590e-05   8.8491937248829050e-08   2.4718361590905533e-05   1.1989346167854714e-07   3.2949008786701197e-05   1.6116107274314906e-07   4.3237394840175264e-05   2.1225089325656858e-07   5.6664257201642605e-05   2.7716063432322407e-07   7.5034564150834596e-05   3.6556181090870828e-07   1.0071706558599829e-04   4.8855060012341156e-07   1.3662897939132547e-04   6.6247495178895676e-07   1.8638174099849014e-04   9.0562338732833759e-07   2.5526905671285655e-04   1.2446803234422910e-06   3.5319512652183136e-04   1.7225661663847924e-06   5.0037430472724988e-04   2.4236974691903336e-06   7.3676491532753197e-04   3.5120582530545018e-06   1.1342598740155274e-03   5.2848913899417973e-06   1.7863693700634104e-03   8.2463152745155232e-06   2.7711480747475000e-03   1.3086369788463383e-05   4.1960801069170443e-03   2.0548122220420105e-05   6.2408331352026879e-03   3.1537173676835547e-05   9.1483251703891374e-03   4.7570833962042402e-05   1.3199753231083871e-02   7.1066772183323373e-05   1.8565966972895306e-02   1.0461400430415466e-04   2.5192993270327112e-02   1.5029080413018076e-04   3.2688350227673253e-02   2.0919652496930285e-04   2.8035538546414322e-04   0.0000000000000000e+00   0.0000000000000000e+00   0.0000000000000000e+00   0.0000000000000000e+00   0.0000000000000000e+00   0.0000000000000000e+00   0.0000000000000000e+00   0.0000000000000000e+00   0.0000000000000000e+00   0.0000000000000000e+00   0.0000000000000000e+00   0.0000000000000000e+00   0.0000000000000000e+00   0.0000000000000000e+00   0.0000000000000000e+00   0.0000000000000000e+00   0.0000000000000000e+00   0.0000000000000000e+00   0.0000000000000000e+00   0.0000000000000000e+00   0.0000000000000000e+00   0.0000000000000000e+00   0.0000000000000000e+00   0.0000000000000000e+00   0.0000000000000000e+00   0.0000000000000000e+00   0.0000000000000000e+00   0.0000000000000000e+00   0.0000000000000000e+00   0.0000000000000000e+00   0.0000000000000000e+00   0.0000000000000000e+00   0.0000000000000000e+00   0.0000000000000000e+00   0.0000000000000000e+00   0.0000000000000000e+00   0.0000000000000000e+00   0.0000000000000000e+00   0.0000000000000000e+00   0.0000000000000000e+00   0.0000000000000000e+00   0.0000000000000000e+00   0.0000000000000000e+00   0.0000000000000000e+00   0.0000000000000000e+00   0.0000000000000000e+00   0.0000000000000000e+00   0.0000000000000000e+00   0.0000000000000000e+00   0.0000000000000000e+00   0.0000000000000000e+00   0.0000000000000000e+00   0.0000000000000000e+00   0.0000000000000000e+00   0.0000000000000000e+00   0.0000000000000000e+00   0.0000000000000000e+00   0.0000000000000000e+00   0.0000000000000000e+00   0.0000000000000000e+00   0.0000000000000000e+00   0.0000000000000000e+00   0.0000000000000000e+00   0.0000000000000000e+00   0.0000000000000000e+00   0.0000000000000000e+00   0.0000000000000000e+00   0.0000000000000000e+00   0.0000000000000000e+00   0.0000000000000000e+00   0.0000000000000000e+00   0.0000000000000000e+00   0.0000000000000000e+00   0.0000000000000000e+00   0.0000000000000000e+00   0.0000000000000000e+00   0.0000000000000000e+00   0.0000000000000000e+00   0.0000000000000000e+00   0.0000000000000000e+00   0.0000000000000000e+00   0.0000000000000000e+00   0.0000000000000000e+00   0.0000000000000000e+00   0.0000000000000000e+00   0.0000000000000000e+00   0.0000000000000000e+00   0.0000000000000000e+00   0.0000000000000000e+00   0.0000000000000000e+00   0.0000000000000000e+00   0.0000000000000000e+00   0.0000000000000000e+00   0.0000000000000000e+00   0.0000000000000000e+00   0.0000000000000000e+00   0.0000000000000000e+00   0.0000000000000000e+00   0.0000000000000000e+00   0.0000000000000000e+00   0.0000000000000000e+00   0.0000000000000000e+00   0.0000000000000000e+00   0.0000000000000000e+00   0.0000000000000000e+00   0.0000000000000000e+00   0.0000000000000000e+00   0.0000000000000000e+00   0.0000000000000000e+00   0.0000000000000000e+00   0.0000000000000000e+00   0.0000000000000000e+00   0.0000000000000000e+00   0.0000000000000000e+00   0.0000000000000000e+00   0.0000000000000000e+00   0.0000000000000000e+00   0.0000000000000000e+00   0.0000000000000000e+00   0.0000000000000000e+00   0.0000000000000000e+00   0.0000000000000000e+00   0.0000000000000000e+00   0.0000000000000000e+00   0.0000000000000000e+00   0.0000000000000000e+00   0.0000000000000000e+00   0.0000000000000000e+00   0.0000000000000000e+00   0.0000000000000000e+00   0.0000000000000000e+00   0.0000000000000000e+00   0.0000000000000000e+00   0.0000000000000000e+00   0.0000000000000000e+00   0.0000000000000000e+00   0.0000000000000000e+00   0.0000000000000000e+00   0.0000000000000000e+00   0.0000000000000000e+00   0.0000000000000000e+00   0.0000000000000000e+00   0.0000000000000000e+00   0.0000000000000000e+00   0.0000000000000000e+00   0.0000000000000000e+00   0.0000000000000000e+00   0.0000000000000000e+00   0.0000000000000000e+00   0.0000000000000000e+00   0.0000000000000000e+00   0.0000000000000000e+00   0.0000000000000000e+00   0.0000000000000000e+00   0.0000000000000000e+00   0.0000000000000000e+00   0.0000000000000000e+00   0.0000000000000000e+00   0.0000000000000000e+00   0.0000000000000000e+00   0.0000000000000000e+00   0.0000000000000000e+00   0.0000000000000000e+00   0.0000000000000000e+00   0.0000000000000000e+00   0.0000000000000000e+00   0.0000000000000000e+00   0.0000000000000000e+00   0.0000000000000000e+00   0.0000000000000000e+00   0.0000000000000000e+00   0.0000000000000000e+00   0.0000000000000000e+00   0.0000000000000000e+00   0.0000000000000000e+00   0.0000000000000000e+00   0.0000000000000000e+00   0.0000000000000000e+00   0.0000000000000000e+00   0.0000000000000000e+00   0.0000000000000000e+00   0.0000000000000000e+00   0.0000000000000000e+00   0.0000000000000000e+00   0.0000000000000000e+00   0.0000000000000000e+00   0.0000000000000000e+00   0.0000000000000000e+00   0.0000000000000000e+00   0.0000000000000000e+00   0.0000000000000000e+00   0.0000000000000000e+00   0.0000000000000000e+00   0.0000000000000000e+00   0.0000000000000000e+00   0.0000000000000000e+00   0.0000000000000000e+00   0.0000000000000000e+00   0.0000000000000000e+00   0.0000000000000000e+00   0.0000000000000000e+00   0.0000000000000000e+00   0.0000000000000000e+00   0.0000000000000000e+00   0.0000000000000000e+00   0.0000000000000000e+00   0.0000000000000000e+00   0.0000000000000000e+00   0.0000000000000000e+00   0.0000000000000000e+00   0.0000000000000000e+00   0.0000000000000000e+00   0.0000000000000000e+00   0.0000000000000000e+00   0.0000000000000000e+00   0.0000000000000000e+00   0.0000000000000000e+00   0.0000000000000000e+00   0.0000000000000000e+00   0.0000000000000000e+00   0.0000000000000000e+00   0.0000000000000000e+00   0.0000000000000000e+00   0.0000000000000000e+00   0.0000000000000000e+00   0.0000000000000000e+00   0.0000000000000000e+00   0.0000000000000000e+00   0.0000000000000000e+00   0.0000000000000000e+00   0.0000000000000000e+00   0.0000000000000000e+00   0.0000000000000000e+00   0.0000000000000000e+00   0.0000000000000000e+00   0.0000000000000000e+00   0.0000000000000000e+00   0.0000000000000000e+00   0.0000000000000000e+00   0.0000000000000000e+00   0.0000000000000000e+00   0.0000000000000000e+00   0.0000000000000000e+00   0.0000000000000000e+00   0.0000000000000000e+00   0.0000000000000000e+00   0.0000000000000000e+00   0.0000000000000000e+00   0.0000000000000000e+00   0.0000000000000000e+00   0.0000000000000000e+00   0.0000000000000000e+00   0.0000000000000000e+00   0.0000000000000000e+00   0.0000000000000000e+00   0.0000000000000000e+00   0.0000000000000000e+00   0.0000000000000000e+00   0.0000000000000000e+00   0.0000000000000000e+00   0.0000000000000000e+00   0.0000000000000000e+00   0.0000000000000000e+00   0.0000000000000000e+00   0.0000000000000000e+00   0.0000000000000000e+00   0.0000000000000000e+00   0.0000000000000000e+00   0.0000000000000000e+00   0.0000000000000000e+00   0.0000000000000000e+00   0.0000000000000000e+00   0.0000000000000000e+00   0.0000000000000000e+00   0.0000000000000000e+00   0.0000000000000000e+00   0.0000000000000000e+00   0.0000000000000000e+00   0.0000000000000000e+00   0.0000000000000000e+00   0.0000000000000000e+00   0.0000000000000000e+00   0.0000000000000000e+00   0.0000000000000000e+00   0.0000000000000000e+00   0.0000000000000000e+00   0.0000000000000000e+00   0.0000000000000000e+00   0.0000000000000000e+00   0.0000000000000000e+00   0.0000000000000000e+00   0.0000000000000000e+00   0.0000000000000000e+00   0.0000000000000000e+00   0.0000000000000000e+00   0.0000000000000000e+00   0.0000000000000000e+00   0.0000000000000000e+00   0.0000000000000000e+00   0.0000000000000000e+00   0.0000000000000000e+00   0.0000000000000000e+00   0.0000000000000000e+00   0.0000000000000000e+00   0.0000000000000000e+00   0.0000000000000000e+00   0.0000000000000000e+00   0.0000000000000000e+00   0.0000000000000000e+00   0.0000000000000000e+00   0.0000000000000000e+00   0.0000000000000000e+00   0.0000000000000000e+00   0.0000000000000000e+00   0.0000000000000000e+00   0.0000000000000000e+00   0.0000000000000000e+00   0.0000000000000000e+00   0.0000000000000000e+00   0.0000000000000000e+00   0.0000000000000000e+00   0.0000000000000000e+00   0.0000000000000000e+00   0.0000000000000000e+00   0.0000000000000000e+00   0.0000000000000000e+00   0.0000000000000000e+00   0.0000000000000000e+00   0.0000000000000000e+00   0.0000000000000000e+00   0.0000000000000000e+00   0.0000000000000000e+00   0.0000000000000000e+00   0.0000000000000000e+00   0.0000000000000000e+00   0.0000000000000000e+00   0.0000000000000000e+00   0.0000000000000000e+00   0.0000000000000000e+00   0.0000000000000000e+00   0.0000000000000000e+00   0.0000000000000000e+00   0.0000000000000000e+00   0.0000000000000000e+00   0.0000000000000000e+00   0.0000000000000000e+00   0.0000000000000000e+00   0.0000000000000000e+00   0.0000000000000000e+00   0.0000000000000000e+00   0.0000000000000000e+00   0.0000000000000000e+00   0.0000000000000000e+00   0.0000000000000000e+00   0.0000000000000000e+00   0.0000000000000000e+00   0.0000000000000000e+00   0.0000000000000000e+00   0.0000000000000000e+00   0.0000000000000000e+00   0.0000000000000000e+00   0.0000000000000000e+00   0.0000000000000000e+00   0.0000000000000000e+00   0.0000000000000000e+00   0.0000000000000000e+00   0.0000000000000000e+00   0.0000000000000000e+00   0.0000000000000000e+00   0.0000000000000000e+00   0.0000000000000000e+00   0.0000000000000000e+00   0.0000000000000000e+00   0.0000000000000000e+00   0.0000000000000000e+00   0.0000000000000000e+00   0.0000000000000000e+00   0.0000000000000000e+00   0.0000000000000000e+00   0.0000000000000000e+00   0.0000000000000000e+00   0.0000000000000000e+00   0.0000000000000000e+00   0.0000000000000000e+00   0.0000000000000000e+00   0.0000000000000000e+00   0.0000000000000000e+00   0.0000000000000000e+00   0.0000000000000000e+00   0.0000000000000000e+00   0.0000000000000000e+00   0.0000000000000000e+00   0.0000000000000000e+00   0.0000000000000000e+00   0.0000000000000000e+00   0.00000000