<?xml version="1.0"?>
<VTKFile type="UnstructuredGrid"  version="0.1"  >
<UnstructuredGrid>
<Piece  NumberOfPoints="2431" NumberOfCells="4624">
<Points>
<DataArray  type="Float64"  NumberOfComponents="3"  format="ascii">1.933043478260869 0.2166666666666667 0  1.941304347826087 0.2166666666666667 0  1.941304347826087 0.225 0  1.933043478260869 0.225 0  1.949565217391304 0.225 0  1.941304347826087 0.2333333333333333 0  1.933043478260869 0.2333333333333333 0  1.949565217391304 0.2333333333333333 0  1.957826086956522 0.225 0  1.957826086956522 0.2333333333333333 0  1.966086956521739 0.225 0  1.966086956521739 0.2333333333333333 0  1.974347826086956 0.225 0  1.974347826086956 0.2333333333333333 0  1.982608695652174 0.225 0  1.982608695652174 0.2333333333333333 0  1.990869565217391 0.225 0  1.990869565217391 0.2333333333333333 0  1.999130434782608 0.2333333333333333 0  1.941304347826087 0.2416666666666667 0  1.949565217391304 0.2416666666666667 0  1.957826086956522 0.2416666666666667 0  1.966086956521739 0.2416666666666667 0  1.974347826086956 0.2416666666666667 0  1.982608695652174 0.2416666666666667 0  1.990869565217391 0.2416666666666667 0  1.999130434782608 0.2416666666666667 0  2.007391304347826 0.2416666666666667 0  1.949565217391304 0.25 0  1.941304347826087 0.25 0  1.957826086956522 0.25 0  1.966086956521739 0.25 0  1.974347826086956 0.25 0  1.982608695652174 0.25 0  1.990869565217391 0.25 0  1.999130434782608 0.25 0  2.007391304347826 0.25 0  2.015652173913043 0.2416666666666667 0  2.015652173913043 0.25 0  2.023913043478261 0.2416666666666667 0  2.023913043478261 0.25 0  2.032173913043478 0.25 0  1.933043478260869 0.25 0  1.941304347826087 0.2583333333333334 0  1.933043478260869 0.2583333333333334 0  1.949565217391304 0.2583333333333334 0  1.957826086956522 0.2583333333333334 0  1.966086956521739 0.2583333333333334 0  1.974347826086956 0.2583333333333334 0  1.982608695652174 0.2583333333333334 0  1.990869565217391 0.2583333333333334 0  1.999130434782608 0.2583333333333334 0  2.007391304347826 0.2583333333333334 0  2.015652173913043 0.2583333333333334 0  2.023913043478261 0.2583333333333334 0  2.032173913043478 0.2583333333333334 0  2.040434782608695 0.25 0  2.040434782608695 0.2583333333333334 0  2.048695652173913 0.25 0  2.048695652173913 0.2583333333333334 0  2.05695652173913 0.25 0  2.05695652173913 0.2583333333333334 0  2.065217391304348 0.25 0  2.065217391304348 0.2583333333333334 0  2.073478260869565 0.25 0  2.073478260869565 0.2583333333333334 0  2.081739130434782 0.25 0  2.081739130434782 0.2583333333333334 0  2.09 0.25 0  2.09 0.2583333333333334 0  2.098260869565217 0.25 0  2.098260869565217 0.2583333333333334 0  2.106521739130435 0.2583333333333334 0  1.941304347826087 0.2666666666666667 0  1.933043478260869 0.2666666666666667 0  1.949565217391304 0.2666666666666667 0  1.957826086956522 0.2666666666666667 0  1.966086956521739 0.2666666666666667 0  1.974347826086956 0.2666666666666667 0  1.982608695652174 0.2666666666666667 0  1.990869565217391 0.2666666666666667 0  1.999130434782608 0.2666666666666667 0  2.007391304347826 0.2666666666666667 0  2.015652173913043 0.2666666666666667 0  2.023913043478261 0.2666666666666667 0  2.032173913043478 0.2666666666666667 0  2.040434782608695 0.2666666666666667 0  2.048695652173913 0.2666666666666667 0  2.05695652173913 0.2666666666666667 0  2.065217391304348 0.2666666666666667 0  2.073478260869565 0.2666666666666667 0  2.081739130434782 0.2666666666666667 0  2.09 0.2666666666666667 0  2.098260869565217 0.2666666666666667 0  2.106521739130435 0.2666666666666667 0  2.114782608695652 0.2666666666666667 0  1.941304347826087 0.275 0  1.933043478260869 0.275 0  1.949565217391304 0.275 0  1.957826086956522 0.275 0  1.966086956521739 0.275 0  1.974347826086956 0.275 0  1.982608695652174 0.275 0  1.990869565217391 0.275 0  1.999130434782608 0.275 0  2.007391304347826 0.275 0  2.015652173913043 0.275 0  2.023913043478261 0.275 0  2.032173913043478 0.275 0  2.040434782608695 0.275 0  2.048695652173913 0.275 0  2.05695652173913 0.275 0  2.065217391304348 0.275 0  2.073478260869565 0.275 0  2.081739130434782 0.275 0  2.09 0.275 0  2.098260869565217 0.275 0  2.106521739130435 0.275 0  2.114782608695652 0.275 0  2.12304347826087 0.275 0  1.941304347826087 0.2833333333333333 0  1.933043478260869 0.2833333333333333 0  1.949565217391304 0.2833333333333333 0  1.957826086956522 0.2833333333333333 0  1.966086956521739 0.2833333333333333 0  1.974347826086956 0.2833333333333333 0  1.982608695652174 0.2833333333333333 0  1.990869565217391 0.2833333333333333 0  1.999130434782608 0.2833333333333333 0  2.007391304347826 0.2833333333333333 0  2.015652173913043 0.2833333333333333 0  2.023913043478261 0.2833333333333333 0  2.032173913043478 0.2833333333333333 0  2.040434782608695 0.2833333333333333 0  2.048695652173913 0.2833333333333333 0  2.05695652173913 0.2833333333333333 0  2.065217391304348 0.2833333333333333 0  2.073478260869565 0.2833333333333333 0  2.081739130434782 0.2833333333333333 0  2.09 0.2833333333333333 0  2.098260869565217 0.2833333333333333 0  2.106521739130435 0.2833333333333333 0  2.114782608695652 0.2833333333333333 0  2.12304347826087 0.2833333333333333 0  2.131304347826087 0.2833333333333333 0  1.941304347826087 0.2916666666666667 0  1.933043478260869 0.2916666666666667 0  1.949565217391304 0.2916666666666667 0  1.957826086956522 0.2916666666666667 0  1.966086956521739 0.2916666666666667 0  1.974347826086956 0.2916666666666667 0  1.982608695652174 0.2916666666666667 0  1.990869565217391 0.2916666666666667 0  1.999130434782608 0.2916666666666667 0  2.007391304347826 0.2916666666666667 0  2.015652173913043 0.2916666666666667 0  2.023913043478261 0.2916666666666667 0  2.032173913043478 0.2916666666666667 0  2.040434782608695 0.2916666666666667 0  2.048695652173913 0.2916666666666667 0  2.05695652173913 0.2916666666666667 0  2.065217391304348 0.2916666666666667 0  2.073478260869565 0.2916666666666667 0  2.081739130434782 0.2916666666666667 0  2.09 0.2916666666666667 0  2.098260869565217 0.2916666666666667 0  2.106521739130435 0.2916666666666667 0  2.114782608695652 0.2916666666666667 0  2.12304347826087 0.2916666666666667 0  2.131304347826087 0.2916666666666667 0  2.139565217391304 0.2916666666666667 0  1.941304347826087 0.3 0  1.933043478260869 0.3 0  1.949565217391304 0.3 0  1.957826086956522 0.3 0  1.966086956521739 0.3 0  1.974347826086956 0.3 0  1.982608695652174 0.3 0  1.990869565217391 0.3 0  1.999130434782608 0.3 0  2.007391304347826 0.3 0  2.015652173913043 0.3 0  2.023913043478261 0.3 0  2.032173913043478 0.3 0  2.040434782608695 0.3 0  2.048695652173913 0.3 0  2.05695652173913 0.3 0  2.065217391304348 0.3 0  2.073478260869565 0.3 0  2.081739130434782 0.3 0  2.09 0.3 0  2.098260869565217 0.3 0  2.106521739130435 0.3 0  2.114782608695652 0.3 0  2.12304347826087 0.3 0  2.131304347826087 0.3 0  2.139565217391304 0.3 0  2.147826086956522 0.2916666666666667 0  2.147826086956522 0.3 0  2.156086956521739 0.2916666666666667 0  2.156086956521739 0.3 0  2.164347826086956 0.2916666666666667 0  2.164347826086956 0.3 0  2.172608695652174 0.2916666666666667 0  2.172608695652174 0.3 0  2.180869565217391 0.2916666666666667 0  2.180869565217391 0.3 0  2.189130434782609 0.2916666666666667 0  2.189130434782609 0.3 0  2.197391304347826 0.2916666666666667 0  2.197391304347826 0.3 0  2.205652173913043 0.2916666666666667 0  2.205652173913043 0.3 0  2.213913043478261 0.2916666666666667 0  2.213913043478261 0.3 0  2.222173913043478 0.2916666666666667 0  2.222173913043478 0.3 0  2.230434782608695 0.2916666666666667 0  2.230434782608695 0.3 0  2.238695652173913 0.2916666666666667 0  2.238695652173913 0.3 0  2.24695652173913 0.3 0  1.941304347826087 0.3083333333333333 0  1.933043478260869 0.3083333333333333 0  1.949565217391304 0.3083333333333333 0  1.957826086956522 0.3083333333333333 0  1.966086956521739 0.3083333333333333 0  1.974347826086956 0.3083333333333333 0  1.982608695652174 0.3083333333333333 0  1.990869565217391 0.3083333333333333 0  1.999130434782608 0.3083333333333333 0  2.007391304347826 0.3083333333333333 0  2.015652173913043 0.3083333333333333 0  2.023913043478261 0.3083333333333333 0  2.032173913043478 0.3083333333333333 0  2.040434782608695 0.3083333333333333 0  2.048695652173913 0.3083333333333333 0  2.05695652173913 0.3083333333333333 0  2.065217391304348 0.3083333333333333 0  2.073478260869565 0.3083333333333333 0  2.081739130434782 0.3083333333333333 0  2.09 0.3083333333333333 0  2.098260869565217 0.3083333333333333 0  2.106521739130435 0.3083333333333333 0  2.114782608695652 0.3083333333333333 0  2.12304347826087 0.3083333333333333 0  2.131304347826087 0.3083333333333333 0  2.139565217391304 0.3083333333333333 0  2.147826086956522 0.3083333333333333 0  2.156086956521739 0.3083333333333333 0  2.164347826086956 0.3083333333333333 0  2.172608695652174 0.3083333333333333 0  2.180869565217391 0.3083333333333333 0  2.189130434782609 0.3083333333333333 0  2.197391304347826 0.3083333333333333 0  2.205652173913043 0.3083333333333333 0  2.213913043478261 0.3083333333333333 0  2.222173913043478 0.3083333333333333 0  2.230434782608695 0.3083333333333333 0  2.238695652173913 0.3083333333333333 0  2.24695652173913 0.3083333333333333 0  2.255217391304348 0.3083333333333333 0  1.941304347826087 0.3166666666666667 0  1.933043478260869 0.3166666666666667 0  1.949565217391304 0.3166666666666667 0  1.957826086956522 0.3166666666666667 0  1.966086956521739 0.3166666666666667 0  1.974347826086956 0.3166666666666667 0  1.982608695652174 0.3166666666666667 0  1.990869565217391 0.3166666666666667 0  1.999130434782608 0.3166666666666667 0  2.007391304347826 0.3166666666666667 0  2.015652173913043 0.3166666666666667 0  2.023913043478261 0.3166666666666667 0  2.032173913043478 0.3166666666666667 0  2.040434782608695 0.3166666666666667 0  2.048695652173913 0.3166666666666667 0  2.05695652173913 0.3166666666666667 0  2.065217391304348 0.3166666666666667 0  2.073478260869565 0.316666666666666
[...]
<CellData  Scalars="rho_bar"> 
<DataArray  type="Float64"  Name="rho_bar"  format="ascii">0.0000000000000000e+00   0.0000000000000000e+00   0.0000000000000000e+00   0.0000000000000000e+00   1.9956258867637186e-14   0.0000000000000000e+00   0.0000000000000000e+00   0.0000000000000000e+00   0.0000000000000000e+00   0.0000000000000000e+00   0.0000000000000000e+00   0.0000000000000000e+00   0.0000000000000000e+00   0.0000000000000000e+00   0.0000000000000000e+00   0.0000000000000000e+00   0.0000000000000000e+00   0.0000000000000000e+00   2.9239296169455043e-12   0.0000000000000000e+00   1.7708982428625100e-13   0.0000000000000000e+00   0.0000000000000000e+00   0.0000000000000000e+00   0.0000000000000000e+00   0.0000000000000000e+00   0.0000000000000000e+00   0.0000000000000000e+00   0.0000000000000000e+00   0.0000000000000000e+00   0.0000000000000000e+00   0.0000000000000000e+00   0.0000000000000000e+00   0.0000000000000000e+00   2.1254877487682695e-11   8.3625056920832975e-07   9.2518585385429722e-18   1.1283474155021622e-12   0.0000000000000000e+00   0.0000000000000000e+00   0.0000000000000000e+00   0.0000000000000000e+00   0.0000000000000000e+00   0.0000000000000000e+00   0.0000000000000000e+00   0.0000000000000000e+00   0.0000000000000000e+00   0.0000000000000000e+00   0.0000000000000000e+00   0.0000000000000000e+00   0.0000000000000000e+00   0.0000000000000000e+00   0.0000000000000000e+00   0.0000000000000000e+00   0.0000000000000000e+00   4.0964592037717018e-01   9.7901507976952029e-01   5.1197215415771380e-05   1.1367009300150016e-01   1.1675149735879131e-10   3.6915112915647534e-06   5.5511151231257827e-17   5.7664243750347550e-12   0.0000000000000000e+00   0.0000000000000000e+00   0.0000000000000000e+00   0.0000000000000000e+00   0.0000000000000000e+00   0.0000000000000000e+00   0.0000000000000000e+00   0.0000000000000000e+00   0.0000000000000000e+00   0.0000000000000000e+00   0.0000000000000000e+00   0.0000000000000000e+00   0.0000000000000000e+00   0.0000000000000000e+00   0.0000000000000000e+00   0.0000000000000000e+00   0.0000000000000000e+00   0.0000000000000000e+00   0.0000000000000000e+00   0.0000000000000000e+00   0.0000000000000000e+00   0.0000000000000000e+00   0.0000000000000000e+00   0.0000000000000000e+00   0.0000000000000000e+00   0.0000000000000000e+00   0.0000000000000000e+00   0.0000000000000000e+00   0.0000000000000000e+00   0.0000000000000000e+00   0.0000000000000000e+00   0.0000000000000000e+00   0.0000000000000000e+00   9.9828814321460124e-01   9.9998642900207957e-01   5.5179691618989857e-01   9.9206646711513335e-01   1.9581434927794702e-04   2.0858188468582961e-01   5.6677513608309005e-10   1.4472160954098758e-05   2.5905203907920316e-16   2.8185962822983382e-11   0.0000000000000000e+00   1.8503717077085941e-17   0.0000000000000000e+00   0.0000000000000000e+00   0.0000000000000000e+00   0.0000000000000000e+00   0.0000000000000000e+00   0.0000000000000000e+00   0.0000000000000000e+00   0.0000000000000000e+00   0.0000000000000000e+00   0.0000000000000000e+00   0.0000000000000000e+00   0.0000000000000000e+00   0.0000000000000000e+00   0.0000000000000000e+00   0.0000000000000000e+00   0.0000000000000000e+00   0.0000000000000000e+00   0.0000000000000000e+00   0.0000000000000000e+00   0.0000000000000000e+00   0.0000000000000000e+00   0.0000000000000000e+00   0.0000000000000000e+00   0.0000000000000000e+00   0.0000000000000000e+00   0.0000000000000000e+00   0.0000000000000000e+00   0.0000000000000000e+00   0.0000000000000000e+00   0.0000000000000000e+00   0.0000000000000000e+00   9.9999731309197870e-01   9.9999975376246386e-01   9.9928126462484923e-01   9.9999271083667840e-01   6.4573698392179391e-01   9.9680430626997041e-01   7.1340257730740752e-04   2.9862658720581364e-01   2.8220091078760370e-09   5.6930894085621679e-05   1.4155343563970746e-15   1.4912864461832004e-10   0.0000000000000000e+00   8.3266726846886741e-17   0.0000000000000000e+00   0.0000000000000000e+00   0.0000000000000000e+00   0.0000000000000000e+00   0.0000000000000000e+00   0.0000000000000000e+00   0.0000000000000000e+00   0.0000000000000000e+00   0.0000000000000000e+00   0.0000000000000000e+00   0.0000000000000000e+00   0.0000000000000000e+00   0.0000000000000000e+00   0.0000000000000000e+00   0.0000000000000000e+00   0.0000000000000000e+00   0.0000000000000000e+00   0.0000000000000000e+00   0.0000000000000000e+00   0.0000000000000000e+00   0.0000000000000000e+00   0.0000000000000000e+00   0.0000000000000000e+00   0.0000000000000000e+00   0.0000000000000000e+00   0.0000000000000000e+00   0.0000000000000000e+00   0.0000000000000000e+00   0.0000000000000000e+00   0.0000000000000000e+00   0.0000000000000000e+00   9.9999986341839475e-01   9.9999985861550844e-01   9.9999841056638306e-01   9.9999981475158461e-01   9.9968717234636362e-01   9.9999598303573534e-01   7.3094949811083876e-01   9.9869510596066413e-01   2.6772087891540615e-03   3.9359691385403134e-01   1.5365753780471895e-08   2.3765792994658497e-04   9.1315843775419125e-15   8.7670442202221933e-10   0.0000000000000000e+00   5.6436337085112121e-16   0.0000000000000000e+00   0.0000000000000000e+00   0.0000000000000000e+00   0.0000000000000000e+00   0.0000000000000000e+00   0.0000000000000000e+00   0.0000000000000000e+00   0.0000000000000000e+00   0.0000000000000000e+00   0.0000000000000000e+00   0.0000000000000000e+00   0.0000000000000000e+00   0.0000000000000000e+00   0.0000000000000000e+00   0.0000000000000000e+00   0.0000000000000000e+00   0.0000000000000000e+00   0.0000000000000000e+00   0.0000000000000000e+00   0.0000000000000000e+00   0.0000000000000000e+00   0.0000000000000000e+00   0.0000000000000000e+00   0.0000000000000000e+00   0.0000000000000000e+00   0.0000000000000000e+00   0.0000000000000000e+00   0.0000000000000000e+00   0.0000000000000000e+00   0.0000000000000000e+00   0.0000000000000000e+00   9.9999976084778464e-01   9.9999720626061872e-01   9.9999988752732472e-01   9.9999985467025543e-01   9.9999904884515622e-01   9.9999986026755516e-01   9.9986401748147746e-01   9.9999776459908385e-01   8.3549873027915633e-01   9.9947438118587284e-01   1.0552504511368088e-02   5.4073672762031799e-01   9.2670506009658483e-08   1.0683017723860102e-03   7.2895393425180074e-14   5.8932139538706938e-09   0.0000000000000000e+00   4.9312406010434034e-15   0.0000000000000000e+00   0.0000000000000000e+00   0.0000000000000000e+00   0.0000000000000000e+00   0.0000000000000000e+00   0.0000000000000000e+00   0.0000000000000000e+00   0.0000000000000000e+00   0.0000000000000000e+00   0.0000000000000000e+00   0.0000000000000000e+00   0.0000000000000000e+00   0.0000000000000000e+00   0.0000000000000000e+00   0.0000000000000000e+00   0.0000000000000000e+00   0.0000000000000000e+00   0.0000000000000000e+00   0.0000000000000000e+00   0.0000000000000000e+00   0.0000000000000000e+00   0.0000000000000000e+00   0.0000000000000000e+00   0.0000000000000000e+00   0.0000000000000000e+00   0.0000000000000000e+00   0.0000000000000000e+00   0.0000000000000000e+00   0.0000000000000000e+00   0.0000000000000000e+00   0.0000000000000000e+00   9.9998761548148041e-01   9.9834972232197727e-01   9.9999973318671354e-01   9.9999624055071556e-01   9.9999990581367948e-01   9.9999984858390001e-01   9.9999942083623394e-01   9.9999989103317855e-01   9.9994158439313663e-01   9.9999873798193084e-01   9.2922631855864046e-01   9.9979406189161191e-01   4.3421245312888039e-02   7.4616767903687442e-01   6.8864670484577063e-07   5.5126457373166904e-03   9.0026134695146242e-13   5.4280968682836799e-08   0.0000000000000000e+00   7.6337084801518059e-14   0.0000000000000000e+00   0.0000000000000000e+00   0.0000000000000000e+00   0.0000000000000000e+00   0.0000000000000000e+00   0.0000000000000000e+00   0.0000000000000000e+00   0.0000000000000000e+00   0.0000000000000000e+00   0.0000000000000000e+00   0.0000000000000000e+00   0.0000000000000000e+00   0.0000000000000000e+00   0.0000000000000000e+00   0.0000000000000000e+00   0.0000000000000000e+00   0.0000000000000000e+00   0.0000000000000000e+00   0.0000000000000000e+00   0.0000000000000000e+00   0.0000000000000000e+00   0.0000000000000000e+00   0.0000000000000000e+00   0.0000000000000000e+00   0.0000000000000000e+00   0.0000000000000000e+00   0.0000000000000000e+00   0.0000000000000000e+00   0.0000000000000000e+00   0.0000000000000000e+00   0.0000000000000000e+00   0.0000000000000000e+00   0.0000000000000000e+00   0.0000000000000000e+00   0.0000000000000000e+00   0.0000000000000000e+00   0.0000000000000000e+00   0.0000000000000000e+00   0.0000000000000000e+00   0.0000000000000000e+00   0.0000000000000000e+00   0.0000000000000000e+00   0.0000000000000000e+00   0.0000000000000000e+00   0.0000000000000000e+00   0.0000000000000000e+00   0.0000000000000000e+00   0.0000000000000000e+00   8.3266726846886741e-17   6.4763009769800790e-17   3.1908386118513948e-10   2.0846140554494258e-10   3.0346985332500392e-04   1.9449729681064731e-04   4.0749366953916166e-01   9.8404023034146071e-01   4.4867759444435684e-01   9.9998175894195251e-01   9.9719808105152485e-01   9.9999968330984768e-01   9.9999453601188437e-01   9.9999991565278146e-01   9.9999982577121960e-01   9.9999963540655135e-01   9.9999990862583310e-01   9.9997553657246396e-01   9.9999927488592577e-01   9.7834368935451155e-01   9.9992380264975511e-01   1.6950395491415204e-01   9.1504411034503430e-01   7.6093634403714043e-06   3.4704876691896314e-02   2.2138485489264778e-11   8.3092193639555656e-07   4.6259292692714858e-17   2.5345651503509243e-12   0.0000000000000000e+00   0.0000000000000000e+00   0.0000000000000000e+00   0.0000000000000000e+00   0.0000000000000000e+00   0.0000000000000000e+00   0.0000000000000000e+00   0.0000000000000000e+00   0.0000000000000000e+00   0.0000000000000000e+00   0.0000000000000000e+00   0.0000000000000000e+00   0.0000000000000000e+00   0.0000000000000000e+00   0.0000000000000000e+00   0.0000000000000000e+00   0.0000000000000000e+00   0.0000000000000000e+00   0.0000000000000000e+00   0.0000000000000000e+00   0.0000000000000000e+00   0.0000000000000000e+00   0.0000000000000000e+00   0.0000000000000000e+00   0.0000000000000000e+00   0.0000000000000000e+00   0.0000000000000000e+00   0.0000000000000000e+00   0.0000000000000000e+00   0.0000000000000000e+00   0.0000000000000000e+00   0.0000000000000000e+00   0.0000000000000000e+00   0.0000000000000000e+00   0.0000000000000000e+00   0.0000000000000000e+00   0.0000000000000000e+00   0.0000000000000000e+00   0.0000000000000000e+00   0.0000000000000000e+00   0.0000000000000000e+00   0.0000000000000000e+00   0.0000000000000000e+00   0.0000000000000000e+00   1.8503717077085944e-17   1.8503717077085944e-17   6.4316219017257481e-11   4.9832018141534221e-11   6.0805791799086365e-05   4.3984357714290288e-05   3.5674739688347118e-01   3.1639913820664861e-01   9.8256174730011148e-01   9.7884076255528885e-01   9.9998942623760512e-01   6.9427646409952345e-02   2.1534354890911933e-05   9.6910622730197193e-01   3.3976036432363038e-01   9.9996826940759675e-01   9.9410028018079788e-01   9.9999956021903802e-01   9.9999012668100540e-01   9.9999991559333568e-01   9.9999976207343999e-01   9.9999976181893546e-01   9.9999991551004386e-01   9.9999036985936962e-01   9.9999958073513573e-01   9.9510909220457500e-01   9.9997455316931461e-01   4.4219863928506037e-01   9.8311633100265905e-01   1.3859829364791984e-04   1.8225040293994693e-01   1.1686658677826736e-09   2.2295904106646912e-05   3.2659060641056690e-15   1.8559542791507511e-10   0.0000000000000000e+00   6.3837823915946501e-16   0.0000000000000000e+00   0.0000000000000000e+00   0.0000000000000000e+00   0.0000000000000000e+00   0.0000000000000000e+00   0.0000000000000000e+00   0.0000000000000000e+00   0.0000000000000000e+00   0.0000000000000000e+00   0.0000000000000000e+00   0.0000000000000000e+00   0.0000000000000000e+00   0.0000000000000000e+00   0.0000000000000000e+00   0.0000000000000000e+00   0.0000000000000000e+00   0.0000000000000000e+00   0.0000000000000000e+00   0.0000000000000000e+00   0.0000000000000000e+00   0.0000000000000000e+00   0.0000000000000000e+00   0.0000000000000000e+00   0.0000000000000000e+00   0.0000000000000000e+00   0.0000000000000000e+00   0.0000000000000000e+00   0.0000000000000000e+00   0.0000000000000000e+00   0.0000000000000000e+00   0.0000000000000000e+00   0.0000000000000000e+00   0.0000000000000000e+00   0.0000000000000000e+00   0.0000000000000000e+00   0.0000000000000000e+00   0.0000000000000000e+00   0.0000000000000000e+00   9.2518585385429707e-18   9.2518585385429707e-18   2.8418748835671675e-11   2.5940259199922856e-11   2.1199573034286212e-05   1.8182130113712319e-05   2.6743750274352862e-01   2.4950994550940928e-01   9.4920322854861794e-01   9.4235885617077397e-01   9.9997920040976618e-01   9.9997675957765997e-01   9.9999973137393106e-01   9.9999971846466129e-01   9.9999972518118063e-01   9.9999974218734378e-01   9.9997794640460713e-01   9.9998140653176948e-01   9.4122276165139696e-01   9.5429493050141101e-01   1.9742858254481563e-01   2.4295187761326112e-01   3.3347307460499893e-06   6.9840545780334535e-06   1.0298983887935265e-12   2.2515045383642018e-12   0.0000000000000000e+00   0.0000000000000000e+00   0.0000000000000000e+00   0.0000000000000000e+00   0.0000000000000000e+00   0.0000000000000000e+00   0.0000000000000000e+00   0.0000000000000000e+00   0.0000000000000000e+00   0.0000000000000000e+00   0.0000000000000000e+00   0.0000000000000000e+00   0.0000000000000000e+00   0.0000000000000000e+00   0.0000000000000000e+00   0.0000000000000000e+00   0.0000000000000000e+00   0.0000000000000000e+00   0.0000000000000000e+00   0.0000000000000000e+00   0.0000000000000000e+00   0.0000000000000000e+00   0.0000000000000000e+00   0.0000000000000000e+00   0.0000000000000000e+00   0.0000000000000000e+00   0.0000000000000000e+00   0.0000000000000000e+00   0.0000000000000000e+00   0.0000000000000000e+00   0.0000000000000000e+00   0.0000000000000000e+00   0.0000000000000000e+00   0.0000000000000000e+00   0.0000000000000000e+00   0.0000000000000000e+00   0.0000000000000000e+00   0.0000000000000000e+00   0.0000000000000000e+00   0.0000000000000000e+00   0.0000000000000000e+00   0.0000000000000000e+00   0.0000000000000000e+00   0.0000000000000000e+00   0.0000000000000000e+00   0.0000000000000000e+00   0.0000000000000000e+00   0.0000000000000000e+00   0.0000000000000000e+00   0.0000000000000000e+00   0.0000000000000000e+00   0.0000000000000000e+00   0.0000000000000000e+00   0.0000000000000000e+00   0.0000000000000000e+00   0.0000000000000000e+00   0.0000000000000000e+00   0.0000000000000000e+00   0.0000000000000000e+00   0.0000000000000000e+00   0.0000000000000000e+00   0.0000000000000000e+00   0.0000000000000000e+00   0.0000000000000000e+00   0.0000000000000000e+00   0.0000000000000000e+00   0.0000000000000000e+00   0.0000000000000000e+00   0.0000000000000000e+00   0.0000000000000000e+00   0.0000000000000000e+00   4.5879015000971357e-07   1.0808853811994368e-11   3.1208702437728778e-02   7.1991753942586999e-06   9.2143262597663411e-01   1.8489797530896498e-01   9.9992610295975726e-01   9.8215091187748205e-01   9.9999924040852151e-01   9.9997589683024179e-01   9.9999990351659340e-01   9.9999959993857335e-01   9.9999983973110773e-01   9.9999991303008162e-01   9.9999655701740342e-01   9.9999975898233606e-01   9.9916467776758155e-01   9.9999252434860930e-01   6.7455451094796570e-01   9.9769689476304424e-01   3.9458666723079525e-03   4.2631235625781444e-01   1.1245486602103523e-07   9.3354862595495191e-04   5.9930764055119811e-13   2.3640654776372713e-08   0.0000000000000000e+00   1.3159843585223524e-13   0.0000000000000000e+00   0.0000000000000000e+00   0.0000000000000000e+00   0.0000000000000000e+00   0.0000000000000000e+00   0.0000000000000000e+00   0.0000000000000000e+00   0.0000000000000000e+00   0.0000000000000000e+00   0.0000000000000000e+00   0.0000000000000000e+00   0.0000000000000000e+00   0.0000000000000000e+00   0.0000000000000000e+00   0.0000000000000000e+00   0.0000000000000000e+00   0.0000000000000000e+00   0.0000000000000000e+00   0.0000000000000000e+00   0.0000000000000000e+00   0.0000000000000000e+00   0.0000000000000000e+00   0.0000000000000000e+00   0.0000000000000000e+00   0.0000000000000000e+00   0.0000000000000000e+00   0.0000000000000000e+00   0.0000000000000000e+00   0.0000000000000000e+00   0.0000000000000000e+00   0.0000000000000000e+00   0.0000000000000000e+00   0.0000000000000000e+00   0.0000000000000000e+00   9.2518585385429722e-18   9.2518585385429722e-18   2.1844359654465958e-11   2.1118680878136804e-11   1.3635738306955192e-05   1.3019509494301603e-05   2.2008218598461726e-01   2.1378104345787016e-01   9.0691011507058072e-01   9.0132242354631786e-01   9.9996116111565869e-01   9.9995828686501886e-01   9.9999964178823464e-01   9.9999962841595058e-01   9.9999979103478631e-01   9.9999979848755316e-01   9.9999077445126827e-01   9.9999177421773600e-01   9.8579416450432589e-01   9.8841663194438667e-01   3.3792477884964445e-01   3.9677681892491878e-01   5.3693197453658075e-05   9.7196223988802829e-05   3.2912441290851767e-11   6.8638900119211144e-11   0.0000000000000000e+00   9.2518585385429707e-18   0.0000000000000000e+00   0.0000000000000000e+00   0.0000000000000000e+00   0.0000000000000000e+00   0.0000000000000000e+00   0.0000000000000000e+00   0.0000000000000000e+00   0.0000000000000000e+00   0.0000000000000000e+00   0.0000000000000000e+00   0.0000000000000000e+00   0.0000000000000000e+00   0.0000000000000000e+00   0.0000000000000000e+00   0.0000000000000000e+00   0.0000000000000000e+00   0.0000000000000000e+00   0.0000000000000000e+00   0.0000000000000000e+00   0.0000000000000000e+00   0.0000000000000000e+00   0.0000000000000000e+00   0.0000000000000000e+00   0.0000000000000000e+00   0.0000000000000000e+00   0.0000000000000000e+00   0.0000000000000000e+00   0.0000000000000000e+00   0.0000000000000000e+00   0.0000000000000000e+00   0.0000000000000000e+00   0.0000000000000000e+00   0.0000000000000000e+00   0.0000000000000000e+00   0.0000000000000000e+00   0.0000000000000000e+00   0.0000000000000000e+00   0.0000000000000000e+00   0.0000000000000000e+00   0.0000000000000000e+00   0.0000000000000000e+00   0.0000000000000000e+00   0.0000000000000000e+00   0.0000000000000000e+00   0.0000000000000000e+00   0.0000000000000000e+00   0.0000000000000000e+00   0.0000000000000000e+00   0.0000000000000000e+00   0.0000000000000000e+00   0.0000000000000000e+00   0.0000000000000000e+00   0.0000000000000000e+00   0.0000000000000000e+00   0.0000000000000000e+00   0.0000000000000000e+00   0.0000000000000000e+00   0.0000000000000000e+00   0.0000000000000000e+00   0.0000000000000000e+00   0.0000000000000000e+00   0.0000000000000000e+00   0.0000000000000000e+00   0.0000000000000000e+00   0.0000000000000000e+00   0.0000000000000000e+00   0.0000000000000000e+00   0.0000000000000000e+00   0.0000000000000000e+00   0.0000000000000000e+00   0.0000000000000000e+00   0.0000000000000000e+00   0.0000000000000000e+00   1.3005337547629858e-13   0.0000000000000000e+00   1.0525162423095458e-07   2.1575981741979904e-12   8.1367910379808624e-03   1.3237898745151648e-06   7.6594707568929388e-01   5.4069875161230206e-02   9.9975743348414559e-01   9.2701464748461282e-01   9.9999832947149070e-01   9.9991876313196748e-01   9.9999987266299772e-01   9.9999915964601660e-01   9.9999988841366483e-01   9.9999989906573272e-01   9.9999887325604686e-01   9.9999986042007638e-01   9.9988501647799410e-01   9.9999801107329933e-01   9.2052946400492430e-01   9.9974582170083648e-01   1.0382515529503668e-01   8.3140293104472829e-01   1.1501575765922777e-05   3.7163377808274951e-02   1.4315749511754442e-10   2.8536965987202571e-06   5.3660779523549230e-16   3.2027797081113356e-11   0.0000000000000000e+00   1.2027416100105864e-16   0.0000000000000000e+00   0.0000000000000000e+00   0.0000000000000000e+00   0.0000000000000000e+00   0.0000000000000000e+00   0.0000000000000000e+00   0.0000000000000000e+00   0.0000000000000000e+00   0.00000000