<?xml version="1.0"?>
<VTKFile type="UnstructuredGrid"  version="0.1"  >
<UnstructuredGrid>
<Piece  NumberOfPoints="2431" NumberOfCells="4624">
<Points>
<DataArray  type="Float64"  NumberOfComponents="3"  format="ascii">1.933043478260869 0.2166666666666667 0  1.941304347826087 0.2166666666666667 0  1.941304347826087 0.225 0  1.933043478260869 0.225 0  1.949565217391304 0.225 0  1.941304347826087 0.2333333333333333 0  1.933043478260869 0.2333333333333333 0  1.949565217391304 0.2333333333333333 0  1.957826086956522 0.225 0  1.957826086956522 0.2333333333333333 0  1.966086956521739 0.225 0  1.966086956521739 0.2333333333333333 0  1.974347826086956 0.225 0  1.974347826086956 0.2333333333333333 0  1.982608695652174 0.225 0  1.982608695652174 0.2333333333333333 0  1.990869565217391 0.225 0  1.990869565217391 0.2333333333333333 0  1.999130434782608 0.2333333333333333 0  1.941304347826087 0.2416666666666667 0  1.949565217391304 0.2416666666666667 0  1.957826086956522 0.2416666666666667 0  1.966086956521739 0.2416666666666667 0  1.974347826086956 0.2416666666666667 0  1.982608695652174 0.2416666666666667 0  1.990869565217391 0.2416666666666667 0  1.999130434782608 0.2416666666666667 0  2.007391304347826 0.2416666666666667 0  1.949565217391304 0.25 0  1.941304347826087 0.25 0  1.957826086956522 0.25 0  1.966086956521739 0.25 0  1.974347826086956 0.25 0  1.982608695652174 0.25 0  1.990869565217391 0.25 0  1.999130434782608 0.25 0  2.007391304347826 0.25 0  2.015652173913043 0.2416666666666667 0  2.015652173913043 0.25 0  2.023913043478261 0.2416666666666667 0  2.023913043478261 0.25 0  2.032173913043478 0.25 0  1.933043478260869 0.25 0  1.941304347826087 0.2583333333333334 0  1.933043478260869 0.2583333333333334 0  1.949565217391304 0.2583333333333334 0  1.957826086956522 0.2583333333333334 0  1.966086956521739 0.2583333333333334 0  1.974347826086956 0.2583333333333334 0  1.982608695652174 0.2583333333333334 0  1.990869565217391 0.2583333333333334 0  1.999130434782608 0.2583333333333334 0  2.007391304347826 0.2583333333333334 0  2.015652173913043 0.2583333333333334 0  2.023913043478261 0.2583333333333334 0  2.032173913043478 0.2583333333333334 0  2.040434782608695 0.25 0  2.040434782608695 0.2583333333333334 0  2.048695652173913 0.25 0  2.048695652173913 0.2583333333333334 0  2.05695652173913 0.25 0  2.05695652173913 0.2583333333333334 0  2.065217391304348 0.25 0  2.065217391304348 0.2583333333333334 0  2.073478260869565 0.25 0  2.073478260869565 0.2583333333333334 0  2.081739130434782 0.25 0  2.081739130434782 0.2583333333333334 0  2.09 0.25 0  2.09 0.2583333333333334 0  2.098260869565217 0.25 0  2.098260869565217 0.2583333333333334 0  2.106521739130435 0.2583333333333334 0  1.941304347826087 0.2666666666666667 0  1.933043478260869 0.2666666666666667 0  1.949565217391304 0.2666666666666667 0  1.957826086956522 0.2666666666666667 0  1.966086956521739 0.2666666666666667 0  1.974347826086956 0.2666666666666667 0  1.982608695652174 0.2666666666666667 0  1.990869565217391 0.2666666666666667 0  1.999130434782608 0.2666666666666667 0  2.007391304347826 0.2666666666666667 0  2.015652173913043 0.2666666666666667 0  2.023913043478261 0.2666666666666667 0  2.032173913043478 0.2666666666666667 0  2.040434782608695 0.2666666666666667 0  2.048695652173913 0.2666666666666667 0  2.05695652173913 0.2666666666666667 0  2.065217391304348 0.2666666666666667 0  2.073478260869565 0.2666666666666667 0  2.081739130434782 0.2666666666666667 0  2.09 0.2666666666666667 0  2.098260869565217 0.2666666666666667 0  2.106521739130435 0.2666666666666667 0  2.114782608695652 0.2666666666666667 0  1.941304347826087 0.275 0  1.933043478260869 0.275 0  1.949565217391304 0.275 0  1.957826086956522 0.275 0  1.966086956521739 0.275 0  1.974347826086956 0.275 0  1.982608695652174 0.275 0  1.990869565217391 0.275 0  1.999130434782608 0.275 0  2.007391304347826 0.275 0  2.015652173913043 0.275 0  2.023913043478261 0.275 0  2.032173913043478 0.275 0  2.040434782608695 0.275 0  2.048695652173913 0.275 0  2.05695652173913 0.275 0  2.065217391304348 0.275 0  2.073478260869565 0.275 0  2.081739130434782 0.275 0  2.09 0.275 0  2.098260869565217 0.275 0  2.106521739130435 0.275 0  2.114782608695652 0.275 0  2.12304347826087 0.275 0  1.941304347826087 0.2833333333333333 0  1.933043478260869 0.2833333333333333 0  1.949565217391304 0.2833333333333333 0  1.957826086956522 0.2833333333333333 0  1.966086956521739 0.2833333333333333 0  1.974347826086956 0.2833333333333333 0  1.982608695652174 0.2833333333333333 0  1.990869565217391 0.2833333333333333 0  1.999130434782608 0.2833333333333333 0  2.007391304347826 0.2833333333333333 0  2.015652173913043 0.2833333333333333 0  2.023913043478261 0.2833333333333333 0  2.032173913043478 0.2833333333333333 0  2.040434782608695 0.2833333333333333 0  2.048695652173913 0.2833333333333333 0  2.05695652173913 0.2833333333333333 0  2.065217391304348 0.2833333333333333 0  2.073478260869565 0.2833333333333333 0  2.081739130434782 0.2833333333333333 0  2.09 0.2833333333333333 0  2.098260869565217 0.2833333333333333 0  2.106521739130435 0.2833333333333333 0  2.114782608695652 0.2833333333333333 0  2.12304347826087 0.2833333333333333 0  2.131304347826087 0.2833333333333333 0  1.941304347826087 0.2916666666666667 0  1.933043478260869 0.2916666666666667 0  1.949565217391304 0.2916666666666667 0  1.957826086956522 0.2916666666666667 0  1.966086956521739 0.2916666666666667 0  1.974347826086956 0.2916666666666667 0  1.982608695652174 0.2916666666666667 0  1.990869565217391 0.2916666666666667 0  1.999130434782608 0.2916666666666667 0  2.007391304347826 0.2916666666666667 0  2.015652173913043 0.2916666666666667 0  2.023913043478261 0.2916666666666667 0  2.032173913043478 0.2916666666666667 0  2.040434782608695 0.2916666666666667 0  2.048695652173913 0.2916666666666667 0  2.05695652173913 0.2916666666666667 0  2.065217391304348 0.2916666666666667 0  2.073478260869565 0.2916666666666667 0  2.081739130434782 0.2916666666666667 0  2.09 0.2916666666666667 0  2.098260869565217 0.2916666666666667 0  2.106521739130435 0.2916666666666667 0  2.114782608695652 0.2916666666666667 0  2.12304347826087 0.2916666666666667 0  2.131304347826087 0.2916666666666667 0  2.139565217391304 0.2916666666666667 0  1.941304347826087 0.3 0  1.933043478260869 0.3 0  1.949565217391304 0.3 0  1.957826086956522 0.3 0  1.966086956521739 0.3 0  1.974347826086956 0.3 0  1.982608695652174 0.3 0  1.990869565217391 0.3 0  1.999130434782608 0.3 0  2.007391304347826 0.3 0  2.015652173913043 0.3 0  2.023913043478261 0.3 0  2.032173913043478 0.3 0  2.040434782608695 0.3 0  2.048695652173913 0.3 0  2.05695652173913 0.3 0  2.065217391304348 0.3 0  2.073478260869565 0.3 0  2.081739130434782 0.3 0  2.09 0.3 0  2.098260869565217 0.3 0  2.106521739130435 0.3 0  2.114782608695652 0.3 0  2.12304347826087 0.3 0  2.131304347826087 0.3 0  2.139565217391304 0.3 0  2.147826086956522 0.2916666666666667 0  2.147826086956522 0.3 0  2.156086956521739 0.2916666666666667 0  2.156086956521739 0.3 0  2.164347826086956 0.2916666666666667 0  2.164347826086956 0.3 0  2.172608695652174 0.2916666666666667 0  2.172608695652174 0.3 0  2.180869565217391 0.2916666666666667 0  2.180869565217391 0.3 0  2.189130434782609 0.2916666666666667 0  2.189130434782609 0.3 0  2.197391304347826 0.2916666666666667 0  2.197391304347826 0.3 0  2.205652173913043 0.2916666666666667 0  2.205652173913043 0.3 0  2.213913043478261 0.2916666666666667 0  2.213913043478261 0.3 0  2.222173913043478 0.2916666666666667 0  2.222173913043478 0.3 0  2.230434782608695 0.2916666666666667 0  2.230434782608695 0.3 0  2.238695652173913 0.2916666666666667 0  2.238695652173913 0.3 0  2.24695652173913 0.3 0  1.941304347826087 0.3083333333333333 0  1.933043478260869 0.3083333333333333 0  1.949565217391304 0.3083333333333333 0  1.957826086956522 0.3083333333333333 0  1.966086956521739 0.3083333333333333 0  1.974347826086956 0.3083333333333333 0  1.982608695652174 0.3083333333333333 0  1.990869565217391 0.3083333333333333 0  1.999130434782608 0.3083333333333333 0  2.007391304347826 0.3083333333333333 0  2.015652173913043 0.3083333333333333 0  2.023913043478261 0.3083333333333333 0  2.032173913043478 0.3083333333333333 0  2.040434782608695 0.3083333333333333 0  2.048695652173913 0.3083333333333333 0  2.05695652173913 0.3083333333333333 0  2.065217391304348 0.3083333333333333 0  2.073478260869565 0.3083333333333333 0  2.081739130434782 0.3083333333333333 0  2.09 0.3083333333333333 0  2.098260869565217 0.3083333333333333 0  2.106521739130435 0.3083333333333333 0  2.114782608695652 0.3083333333333333 0  2.12304347826087 0.3083333333333333 0  2.131304347826087 0.3083333333333333 0  2.139565217391304 0.3083333333333333 0  2.147826086956522 0.3083333333333333 0  2.156086956521739 0.3083333333333333 0  2.164347826086956 0.3083333333333333 0  2.172608695652174 0.3083333333333333 0  2.180869565217391 0.3083333333333333 0  2.189130434782609 0.3083333333333333 0  2.197391304347826 0.3083333333333333 0  2.205652173913043 0.3083333333333333 0  2.213913043478261 0.3083333333333333 0  2.222173913043478 0.3083333333333333 0  2.230434782608695 0.3083333333333333 0  2.238695652173913 0.3083333333333333 0  2.24695652173913 0.3083333333333333 0  2.255217391304348 0.3083333333333333 0  1.941304347826087 0.3166666666666667 0  1.933043478260869 0.3166666666666667 0  1.949565217391304 0.3166666666666667 0  1.957826086956522 0.3166666666666667 0  1.966086956521739 0.3166666666666667 0  1.974347826086956 0.3166666666666667 0  1.982608695652174 0.3166666666666667 0  1.990869565217391 0.3166666666666667 0  1.999130434782608 0.3166666666666667 0  2.007391304347826 0.3166666666666667 0  2.015652173913043 0.3166666666666667 0  2.023913043478261 0.3166666666666667 0  2.032173913043478 0.3166666666666667 0  2.040434782608695 0.3166666666666667 0  2.048695652173913 0.3166666666666667 0  2.05695652173913 0.3166666666666667 0  2.065217391304348 0.3166666666666667 0  2.073478260869565 0.316666666666666
[...]
<PointData  Vectors="Displacement"> 
<DataArray  type="Float64"  Name="Displacement"  NumberOfComponents="3" format="ascii">-6.3874439051504478e-06 1.8317372372200402e-03 0.0000000000000000e+00  -5.5467496118730456e-06 1.8420994189084817e-03 0.0000000000000000e+00  -1.5878221438971722e-05 1.8410593195883191e-03 0.0000000000000000e+00  -1.6750417357587618e-05 1.8306686274766071e-03 0.0000000000000000e+00  -1.5036048541460503e-05 1.8513691432652799e-03 0.0000000000000000e+00  -2.6161057052688812e-05 1.8400324923762783e-03 0.0000000000000000e+00  -2.7046921143176447e-05 1.8296160214920877e-03 0.0000000000000000e+00  -2.5307763624563265e-05 1.8503563166942095e-03 0.0000000000000000e+00  -1.4212126281504078e-05 1.8616087286093888e-03 0.0000000000000000e+00  -2.4477094573933066e-05 1.8605992612166292e-03 0.0000000000000000e+00  -1.3398295352445302e-05 1.8717849990875107e-03 0.0000000000000000e+00  -2.3659021790174626e-05 1.8707699946758785e-03 0.0000000000000000e+00  -1.2588943813917161e-05 1.8819052352500726e-03 0.0000000000000000e+00  -2.2845221449805602e-05 1.8808790665155526e-03 0.0000000000000000e+00  -1.1781561528725000e-05 1.8919778226167982e-03 0.0000000000000000e+00  -2.2031907797959444e-05 1.8909399358038939e-03 0.0000000000000000e+00  -1.0977128471169690e-05 1.9020108088360641e-03 0.0000000000000000e+00  -2.1221668419181365e-05 1.9009663742172729e-03 0.0000000000000000e+00  -2.0417220476670379e-05 1.9109577971434524e-03 0.0000000000000000e+00  -3.6382738004205529e-05 1.8390319986201402e-03 0.0000000000000000e+00  -3.5527460473364863e-05 1.8493677816221752e-03 0.0000000000000000e+00  -3.4698131093280822e-05 1.8596134119993667e-03 0.0000000000000000e+00  -3.3883827339952888e-05 1.8697751249017285e-03 0.0000000000000000e+00  -3.3071627388121160e-05 1.8798668196628541e-03 0.0000000000000000e+00  -3.2255277784541844e-05 1.8899104952487822e-03 0.0000000000000000e+00  -3.1441157112306712e-05 1.8999310360075278e-03 0.0000000000000000e+00  -3.0634046995490146e-05 1.9099215572459007e-03 0.0000000000000000e+00  -2.9834010428890217e-05 1.9198720535899231e-03 0.0000000000000000e+00  -4.5685085123962750e-05 1.8484115364912847e-03 0.0000000000000000e+00  -4.5720856167628922e-05 1.8390608993280378e-03 0.0000000000000000e+00  -4.4862380708503397e-05 1.8586619372412754e-03 0.0000000000000000e+00  -4.4063930058055583e-05 1.8688098341846171e-03 0.0000000000000000e+00  -4.3264983678700674e-05 1.8788722849269193e-03 0.0000000000000000e+00  -4.2451035387888770e-05 1.8888877393684431e-03 0.0000000000000000e+00  -4.1636366896373857e-05 1.8989046581034748e-03 0.0000000000000000e+00  -4.0829341487780041e-05 1.9088980975754345e-03 0.0000000000000000e+00  -4.0029390067065188e-05 1.9188494507764234e-03 0.0000000000000000e+00  -2.9039068017723545e-05 1.9297766942580027e-03 0.0000000000000000e+00  -3.9233532636145288e-05 1.9287509971139490e-03 0.0000000000000000e+00  -2.8247135543056368e-05 1.9396334979589242e-03 0.0000000000000000e+00  -3.8439160281441550e-05 1.9386014302500232e-03 0.0000000000000000e+00  -3.7644950777995520e-05 1.9484026614717993e-03 0.0000000000000000e+00  -4.5760658233086366e-05 1.8296778186909423e-03 0.0000000000000000e+00  -5.5025321277752201e-05 1.8390924355788125e-03 0.0000000000000000e+00  -5.5074499383537304e-05 1.8297135983068370e-03 0.0000000000000000e+00  -5.4981985867258368e-05 1.8484423077051845e-03 0.0000000000000000e+00  -5.4943780646624883e-05 1.8577590920318219e-03 0.0000000000000000e+00  -5.4179497307777015e-05 1.8678930615083186e-03 0.0000000000000000e+00  -5.3422504067801359e-05 1.8779033689173448e-03 0.0000000000000000e+00  -5.2623916011740100e-05 1.8878667616855772e-03 0.0000000000000000e+00  -5.1813635910256724e-05 1.8978868679868231e-03 0.0000000000000000e+00  -5.1008898356367523e-05 1.9078891993523919e-03 0.0000000000000000e+00  -5.0209500575690673e-05 1.9178433780215876e-03 0.0000000000000000e+00  -4.9412218622920427e-05 1.9277412380983123e-03 0.0000000000000000e+00  -4.8614329445665768e-05 1.9375835121076129e-03 0.0000000000000000e+00  -4.7814738170882140e-05 1.9473747733331982e-03 0.0000000000000000e+00  -3.6851011446295345e-05 1.9581575505607965e-03 0.0000000000000000e+00  -4.7014334025360276e-05 1.9571203472366037e-03 0.0000000000000000e+00  -3.6058158159486754e-05 1.9678675852197978e-03 0.0000000000000000e+00  -4.6214656630404376e-05 1.9668222885432076e-03 0.0000000000000000e+00  -3.5267314065313279e-05 1.9775328890762984e-03 0.0000000000000000e+00  -4.5417108579455725e-05 1.9764805242130684e-03 0.0000000000000000e+00  -3.4479268834710318e-05 1.9871526924857895e-03 0.0000000000000000e+00  -4.4622876952220904e-05 1.9860939497910136e-03 0.0000000000000000e+00  -3.3694501502666021e-05 1.9967254845130169e-03 0.0000000000000000e+00  -4.3832767389504172e-05 1.9956604409101754e-03 0.0000000000000000e+00  -3.2913036555311005e-05 2.0062492828490058e-03 0.0000000000000000e+00  -4.3047013071556244e-05 2.0051772125211273e-03 0.0000000000000000e+00  -3.2134384751706766e-05 2.0157220066671293e-03 0.0000000000000000e+00  -4.2265211751581184e-05 2.0146413660323626e-03 0.0000000000000000e+00  -3.1357560884934118e-05 2.0251418193961775e-03 0.0000000000000000e+00  -4.1486366904857064e-05 2.0240503413004622e-03 0.0000000000000000e+00  -4.0708970378190023e-05 2.0334022199134860e-03 0.0000000000000000e+00  -6.4302655106400152e-05 1.8391273549783263e-03 0.0000000000000000e+00  -6.4361302001246577e-05 1.8297537777636275e-03 0.0000000000000000e+00  -6.4249347669987310e-05 1.8484721036816057e-03 0.0000000000000000e+00  -6.4200968487689543e-05 1.8577898440647509e-03 0.0000000000000000e+00  -6.4157517593525226e-05 1.8670761919425652e-03 0.0000000000000000e+00  -6.3537516586369993e-05 1.8769858272163211e-03 0.0000000000000000e+00  -6.2802459022718869e-05 1.8868327137170902e-03 0.0000000000000000e+00  -6.1995492553506369e-05 1.8968750645418032e-03 0.0000000000000000e+00  -6.1186149396959816e-05 1.9068956058097503e-03 0.0000000000000000e+00  -6.0381152307733235e-05 1.9168547899625615e-03 0.0000000000000000e+00  -5.9578205222837562e-05 1.9267477955137221e-03 0.0000000000000000e+00  -5.8773890556690533e-05 1.9365792299139109e-03 0.0000000000000000e+00  -5.7966622681030009e-05 1.9463578976073430e-03 0.0000000000000000e+00  -5.7157997729703376e-05 1.9560930946948365e-03 0.0000000000000000e+00  -5.6350105796266469e-05 1.9657869216222093e-03 0.0000000000000000e+00  -5.5544565577833165e-05 1.9754386877055504e-03 0.0000000000000000e+00  -5.4742883757663403e-05 1.9850469334025374e-03 0.0000000000000000e+00  -5.3946218857113403e-05 1.9946087362933485e-03 0.0000000000000000e+00  -5.3155042420996852e-05 2.0041202385979603e-03 0.0000000000000000e+00  -5.2369059629082982e-05 2.0135774969026222e-03 0.0000000000000000e+00  -5.1587285525228921e-05 2.0229770665154715e-03 0.0000000000000000e+00  -5.0808150151698907e-05 2.0323163238916285e-03 0.0000000000000000e+00  -5.0029592538258333e-05 2.0415936603438989e-03 0.0000000000000000e+00  -7.3552856882783035e-05 1.8391659602169752e-03 0.0000000000000000e+00  -7.3620908950601475e-05 1.8297981449564731e-03 0.0000000000000000e+00  -7.3490707022569305e-05 1.8485050700156765e-03 0.0000000000000000e+00  -7.3434302668675525e-05 1.8578169173869444e-03 0.0000000000000000e+00  -7.3383403923193001e-05 1.8671018227954834e-03 0.0000000000000000e+00  -7.3335085482474657e-05 1.8763616738945788e-03 0.0000000000000000e+00  -7.3183665057226582e-05 1.8857094718416759e-03 0.0000000000000000e+00  -7.2245909844663095e-05 1.8958525757346008e-03 0.0000000000000000e+00  -7.1379229786688492e-05 1.9059121373254939e-03 0.0000000000000000e+00  -7.0546664095685451e-05 1.9158821067972662e-03 0.0000000000000000e+00  -6.9729473572118352e-05 1.9257701940572284e-03 0.0000000000000000e+00  -6.8915473995422624e-05 1.9355876339103865e-03 0.0000000000000000e+00  -6.8098823995595739e-05 1.9453502261292108e-03 0.0000000000000000e+00  -6.7281135239810624e-05 1.9550742407718506e-03 0.0000000000000000e+00  -6.6464456633877025e-05 1.9647601677226486e-03 0.0000000000000000e+00  -6.5650060707306271e-05 1.9744061109354962e-03 0.0000000000000000e+00  -6.4839745489875771e-05 1.9840105976285005e-03 0.0000000000000000e+00  -6.4035171151566639e-05 1.9935696849138302e-03 0.0000000000000000e+00  -6.3237150653750737e-05 2.0030780581626068e-03 0.0000000000000000e+00  -6.2445563536625461e-05 2.0125304538570221e-03 0.0000000000000000e+00  -6.1659503340260002e-05 2.0219223774151293e-03 0.0000000000000000e+00  -6.0877409215975369e-05 2.0312503809397264e-03 0.0000000000000000e+00  -6.0097144118227501e-05 2.0405122079548629e-03 0.0000000000000000e+00  -5.9316079205185860e-05 2.0497069757419895e-03 0.0000000000000000e+00  -8.2773691964291816e-05 1.8392085352029264e-03 0.0000000000000000e+00  -8.2850579726935559e-05 1.8298466693772051e-03 0.0000000000000000e+00  -8.2703607560622740e-05 1.8485419834521611e-03 0.0000000000000000e+00  -8.2640105039056115e-05 1.8578484775608564e-03 0.0000000000000000e+00  -8.2583225915799284e-05 1.8671284824622119e-03 0.0000000000000000e+00  -8.2533178819385871e-05 1.8763822244488219e-03 0.0000000000000000e+00  -8.2488529707221514e-05 1.8856085365214425e-03 0.0000000000000000e+00  -8.2458939381033466e-05 1.8947943326728699e-03 0.0000000000000000e+00  -8.1531542754337787e-05 1.9049314348351274e-03 0.0000000000000000e+00  -8.0673502857328482e-05 1.9149251668010409e-03 0.0000000000000000e+00  -7.9847595558726436e-05 1.9248104904855568e-03 0.0000000000000000e+00  -7.9029396610294091e-05 1.9346094244582857e-03 0.0000000000000000e+00  -7.8206596976838449e-05 1.9443503436413797e-03 0.0000000000000000e+00  -7.7382303602354749e-05 1.9540628842887992e-03 0.0000000000000000e+00  -7.6558330736756051e-05 1.9637411165219364e-03 0.0000000000000000e+00  -7.5735048311480649e-05 1.9733814338357184e-03 0.0000000000000000e+00  -7.4915006003271756e-05 1.9829836418147747e-03 0.0000000000000000e+00  -7.4100888169978345e-05 1.9925423309753538e-03 0.0000000000000000e+00  -7.3294107918425573e-05 2.0020500971174833e-03 0.0000000000000000e+00  -7.2494864914736580e-05 2.0115000203802542e-03 0.0000000000000000e+00  -7.1702466995242253e-05 2.0208864059390211e-03 0.0000000000000000e+00  -7.0915497507445744e-05 2.0302048703671142e-03 0.0000000000000000e+00  -7.0131848633229183e-05 2.0394523682670590e-03 0.0000000000000000e+00  -6.9348770492626624e-05 2.0486274126701098e-03 0.0000000000000000e+00  -6.8563013365114924e-05 2.0577303668229711e-03 0.0000000000000000e+00  -9.1962054611352005e-05 1.8392557296462286e-03 0.0000000000000000e+00  -9.2045152076358698e-05 1.8299002673606926e-03 0.0000000000000000e+00  -9.1885695803988393e-05 1.8485833359486940e-03 0.0000000000000000e+00  -9.1815967269799387e-05 1.8578846863639821e-03 0.0000000000000000e+00  -9.1753123098588574e-05 1.8671602363127336e-03 0.0000000000000000e+00  -9.1697551546075440e-05 1.8764097190049340e-03 0.0000000000000000e+00  -9.1649506919483091e-05 1.8856314742450313e-03 0.0000000000000000e+00  -9.1609618943623645e-05 1.8948225898684319e-03 0.0000000000000000e+00  -9.1578566530026365e-05 1.9039797197696008e-03 0.0000000000000000e+00  -9.0721950080974005e-05 1.9140011741859222e-03 0.0000000000000000e+00  -8.9909563724248931e-05 1.9238819283267775e-03 0.0000000000000000e+00  -8.9105122753994898e-05 1.9336509281779150e-03 0.0000000000000000e+00  -8.8286330962233505e-05 1.9433582461985204e-03 0.0000000000000000e+00  -8.7462554579006941e-05 1.9530599238551597e-03 0.0000000000000000e+00  -8.6635348446141027e-05 1.9627297110740333e-03 0.0000000000000000e+00  -8.5803619989907902e-05 1.9723629823788736e-03 0.0000000000000000e+00  -8.4972292426460609e-05 1.9819642509166222e-03 0.0000000000000000e+00  -8.4146224827589587e-05 1.9915252412966546e-03 0.0000000000000000e+00  -8.3327833640824595e-05 2.0010353120131631e-03 0.0000000000000000e+00  -8.2517843701959624e-05 2.0104855069597327e-03 0.0000000000000000e+00  -8.1715988220786628e-05 2.0198688423627674e-03 0.0000000000000000e+00  -8.0921205056377172e-05 2.0291799082570719e-03 0.0000000000000000e+00  -8.0131566737749269e-05 2.0384146791468448e-03 0.0000000000000000e+00  -7.9344272737246529e-05 2.0475708412650041e-03 0.0000000000000000e+00  -7.8555806014041693e-05 2.0566482481768574e-03 0.0000000000000000e+00  -7.7762220975012504e-05 2.0656492763221489e-03 0.0000000000000000e+00  -1.0111676045172818e-04 1.8393089690560724e-03 0.0000000000000000e+00  -1.0120219084896020e-04 1.8299616617972743e-03 0.0000000000000000e+00  -1.0103632199272136e-04 1.8486298083188024e-03 0.0000000000000000e+00  -1.0096144673523210e-04 1.8579256932988934e-03 0.0000000000000000e+00  -1.0089291108926971e-04 1.8671969283908720e-03 0.0000000000000000e+00  -1.0083153362054476e-04 1.8764428586480972e-03 0.0000000000000000e+00  -1.0077766254790436e-04 1.8856613562501109e-03 0.0000000000000000e+00  -1.0073123239857703e-04 1.8948503342543102e-03 0.0000000000000000e+00  -1.0069161556433783e-04 1.9040109822420421e-03 0.0000000000000000e+00  -1.0065630331522720e-04 1.9131400770218275e-03 0.0000000000000000e+00  -9.9887006233671715e-05 1.9230133461555824e-03 0.0000000000000000e+00  -9.9134284425769805e-05 1.9327266004074098e-03 0.0000000000000000e+00  -9.8340912764554867e-05 1.9423738069566116e-03 0.0000000000000000e+00  -9.7530227821479776e-05 1.9520688420828715e-03 0.0000000000000000e+00  -9.6705507280401716e-05 1.9617265246635760e-03 0.0000000000000000e+00  -9.5864402860811092e-05 1.9713476703485879e-03 0.0000000000000000e+00  -9.5018354883214074e-05 1.9809494220321341e-03 0.0000000000000000e+00  -9.4176236599410231e-05 1.9905161000392277e-03 0.0000000000000000e+00  -9.3341739794584628e-05 2.0000318531584560e-03 0.0000000000000000e+00  -9.2516273352825652e-05 2.0094854371331375e-03 0.0000000000000000e+00  -9.1700273309546659e-05 2.0188686613474291e-03 0.0000000000000000e+00  -9.0893319892867795e-05 2.0281750342845198e-03 0.0000000000000000e+00  -9.0093842412608305e-05 2.0373992616761179e-03 0.0000000000000000e+00  -8.9299043255065559e-05 2.0465378673151548e-03 0.0000000000000000e+00  -8.8505101673279097e-05 2.0555899174594734e-03 0.0000000000000000e+00  -8.7707518693105508e-05 2.0645575214284671e-03 0.0000000000000000e+00  -7.6959547132341975e-05 2.0745790591326016e-03 0.0000000000000000e+00  -8.6901588008061960e-05 2.0734462108136431e-03 0.0000000000000000e+00  -7.6144329342483211e-05 2.0834456138650545e-03 0.0000000000000000e+00  -8.6083107218907156e-05 2.0822652753462014e-03 0.0000000000000000e+00  -7.5314265030125468e-05 2.0922596893426498e-03 0.0000000000000000e+00  -8.5249227157199582e-05 2.0910277120287611e-03 0.0000000000000000e+00  -7.4469183485377928e-05 2.1010349654221471e-03 0.0000000000000000e+00  -8.4400424470615752e-05 2.0997513548004711e-03 0.0000000000000000e+00  -7.3611248650185887e-05 2.1097855725313555e-03 0.0000000000000000e+00  -8.3540001128301869e-05 2.1084541285748219e-03 0.0000000000000000e+00  -7.2744410756807277e-05 2.1185254941581415e-03 0.0000000000000000e+00  -8.2674661472157757e-05 2.1171520581583976e-03 0.0000000000000000e+00  -7.1876055409460631e-05 2.1272681415383833e-03 0.0000000000000000e+00  -8.1811028697081502e-05 2.1258665014284570e-03 0.0000000000000000e+00  -7.1014602159764212e-05 2.1360344377340987e-03 0.0000000000000000e+00  -8.0979294855312961e-05 2.1346150806474369e-03 0.0000000000000000e+00  -7.0194961924207374e-05 2.1448453000557114e-03 0.0000000000000000e+00  -8.0191143526380781e-05 2.1435057182724536e-03 0.0000000000000000e+00  -6.9438008073357204e-05 2.1538201154920277e-03 0.0000000000000000e+00  -7.9774633588857878e-05 2.1525827394609470e-03 0.0000000000000000e+00  -6.9069272554303398e-05 2.1630365305072446e-03 0.0000000000000000e+00  -7.9752340875029190e-05 2.1630500389500712e-03 0.0000000000000000e+00  -6.9053707872724797e-05 2.1735940926324794e-03 0.0000000000000000e+00  -7.9740167592119875e-05 2.1735853605290008e-03 0.0000000000000000e+00  -7.9734920479690441e-05 2.1841878337182305e-03 0.0000000000000000e+00  -1.1023957075017573e-04 1.8393697110367620e-03 0.0000000000000000e+00  -1.1032416822283105e-04 1.8300336703213687e-03 0.0000000000000000e+00  -1.1015693221218049e-04 1.8486819944501874e-03 0.0000000000000000e+00  -1.1007780897067399e-04 1.8579715459877521e-03 0.0000000000000000e+00  -1.1000381393782610e-04 1.8672383992062490e-03 0.0000000000000000e+00  -1.0993665637290661e-04 1.8764815122580788e-03 0.0000000000000000e+00  -1.0987714900980392e-04 1.8856975124821914e-03 0.0000000000000000e+00  -1.0982524863986503e-04 1.8948836895949436e-03 0.0000000000000000e+00  -1.0978030319679015e-04 1.9040397343639754e-03 0.0000000000000000e+00  -1.0974087250631984e-04 1.9131665713303149e-03 0.0000000000000000e+00  -1.0970256508544570e-04 1.9222640131863324e-03 0.0000000000000000e+00  -1.0909964732837295e-04 1.9318733576623173e-03 0.0000000000000000e+00  -1.0839935899151618e-04 1.9413892626828362e-03 0.0000000000000000e+00  -1.0761155167324899e-04 1.9510957421294123e-03 0.0000000000000000e+00  -1.0678938657431689e-04 1.9607311182841414e-03 0.0000000000000000e+00  -1.0593185716843347e-04 1.9703283649650477e-03 0.0000000000000000e+00  -1.0506356828177258e-04 1.9799339071543327e-03 0.0000000000000000e+00  -1.0419847784926377e-04 1.9895111763122879e-03 0.0000000000000000e+00  -1.0334084788329044e-04 1.9990366037445058e-03 0.0000000000000000e+00  -1.0249277638549452e-04 2.0084971228574952e-03 0.0000000000000000e+00  -1.0165578983786710e-04 2.0178837787749797e-03 0.0000000000000000e+00  -1.0083048293876735e-04 2.0271889766430495e-03 0.0000000000000000e+00  -1.0001578491516669e-04 2.0364056698671897e-03 0.0000000000000000e+00  -9.9208872975027433e-05 2.0455287295012407e-03 0.0000000000000000e+00  -9.8405529551133118e-05 2.0545560529534549e-03 0.0000000000000000e+00  -9.7600536737006878e-05 2.0634891589733800e-03 0.0000000000000000e+00  -9.6788140060430494e-05 2.0723337316980385e-03 0.0000000000000000e+00  -9.5962880489201135e-05 2.0811003939950863e-03 0.0000000000000000e+00  -9.5120792814552707e-05 2.0898046697077305e-03 0.0000000000000000e+00  -9.4263015914857636e-05 2.0984713597984486e-03 0.0000000000000000e+00  -9.3395882856648908e-05 2.1071219467048217e-03 0.0000000000000000e+00  -9.2525908291505213e-05 2.1157800137889676e-03 0.0000000000000000e+00  -9.1681710034725885e-05 2.1244627218551131e-03 0.0000000000000000e+00  -9.0873569395960024e-05 2.1332720712910892e-03 0.0000000000000000e+00  -9.0427701231623163e-05 2.1422423202231713e-03 0.0000000000000000e+00  -9.0396263731672697e-05 2.1526071655599928e-03 0.0000000000000000e+00  -9.0378091648283127e-05 2.1630480954613180e-03 0.0000000000000000e+00  -9.0367446100098292e-05 2.1735653100642825e-03 0.0000000000000000e+00  -9.0365080587715205e-05 2.1841447496063903e-03 0.0000000000000000e+00  -9.0370126805980867e-05 2.1947841465878581e-03 0.0000000000000000e+00  -1.1933425984186766e-04 1.8394384861845417e-03 0.0000000000000000e+00  -1.1941885877581472e-04 1.8301089867065773e-03 0.0000000000000000e+00  -1.1925060233108776e-04 1.8487398989391842e-03 0.0000000000000000e+00  -1.1916762399492398e-04 1.8580217647517776e-03 0.0000000000000000e+00  -1.1908782422792156e-04 1.8672839956545332e-03 0.0000000000000000e+00  -1.1901429759645847e-04 1.8765253756259351e-03 0.0000000000000000e+00  -1.1894854622334482e-04 1.8857399556166069e-03 0.0000000000000000e+00  -1.1889071478514628e-04 1.8949236546130514e-03 0.0000000000000000e+00  -1.1884032022668414e-04 1.9040750861994997e-03 0.0000000000000000e+00  -1.1879624528728527e-04 1.9131946335831731e-03 0.0000000000000000e+00  -1.1875541169230591e-04 1.9222856557553826e-03 0.0000000000000000e+00  -1.1872062503728894e-04 1.9313345051339872e-03 0.0000000000000000e+00  -1.1870796821683162e-04 1.9403204738116043e-03 0.0000000000000000e+00  -1.1776960514811764e-04 1.9501425831386953e-03 0.0000000000000000e+00  -1.1691174743614782e-04 1.9597389111905652e-03 0.0000000000000000e+00  -1.1602244768620355e-04 1.9692896062721839e-03 0.0000000000000000e+00  -1.1512101753724455e-04 1.9789095117405398e-03 0.0000000000000000e+00  -1.1422295639736439e-04 1.9885049148416307e-03 0.0000000000000000e+