<?xml version="1.0"?>
<VTKFile type="UnstructuredGrid"  version="0.1"  >
<UnstructuredGrid>
<Piece  NumberOfPoints="2380" NumberOfCells="4561">
<Points>
<DataArray  type="Float64"  NumberOfComponents="3"  format="ascii">2.288260869565217 0 0  2.296521739130434 0 0  2.296521739130434 0.008333333333333333 0  2.304782608695652 0 0  2.304782608695652 0.008333333333333333 0  2.31304347826087 0 0  2.31304347826087 0.008333333333333333 0  2.321304347826087 0 0  2.321304347826087 0.008333333333333333 0  2.329565217391304 0 0  2.329565217391304 0.008333333333333333 0  2.337826086956521 0 0  2.337826086956521 0.008333333333333333 0  2.346086956521739 0 0  2.346086956521739 0.008333333333333333 0  2.354347826086956 0 0  2.354347826086956 0.008333333333333333 0  2.362608695652174 0 0  2.362608695652174 0.008333333333333333 0  2.370869565217391 0 0  2.370869565217391 0.008333333333333333 0  2.379130434782609 0 0  2.379130434782609 0.008333333333333333 0  2.387391304347826 0 0  2.387391304347826 0.008333333333333333 0  2.395652173913044 0 0  2.395652173913044 0.008333333333333333 0  2.403913043478261 0 0  2.403913043478261 0.008333333333333333 0  2.412173913043478 0 0  2.412173913043478 0.008333333333333333 0  2.420434782608695 0 0  2.420434782608695 0.008333333333333333 0  2.428695652173913 0 0  2.428695652173913 0.008333333333333333 0  2.43695652173913 0 0  2.43695652173913 0.008333333333333333 0  2.445217391304348 0 0  2.445217391304348 0.008333333333333333 0  2.453478260869565 0 0  2.453478260869565 0.008333333333333333 0  2.461739130434782 0 0  2.461739130434782 0.008333333333333333 0  2.47 0 0  2.47 0.008333333333333333 0  2.478260869565217 0 0  2.478260869565217 0.008333333333333333 0  2.486521739130435 0 0  2.486521739130435 0.008333333333333333 0  2.494782608695652 0 0  2.494782608695652 0.008333333333333333 0  2.503043478260869 0 0  2.503043478260869 0.008333333333333333 0  2.511304347826087 0 0  2.511304347826087 0.008333333333333333 0  2.519565217391305 0 0  2.519565217391305 0.008333333333333333 0  2.527826086956522 0 0  2.527826086956522 0.008333333333333333 0  2.536086956521739 0 0  2.536086956521739 0.008333333333333333 0  2.544347826086956 0 0  2.544347826086956 0.008333333333333333 0  2.552608695652174 0 0  2.552608695652174 0.008333333333333333 0  2.560869565217391 0 0  2.560869565217391 0.008333333333333333 0  2.569130434782608 0 0  2.569130434782608 0.008333333333333333 0  2.577391304347826 0 0  2.577391304347826 0.008333333333333333 0  2.585652173913043 0 0  2.585652173913043 0.008333333333333333 0  2.593913043478261 0 0  2.593913043478261 0.008333333333333333 0  2.602173913043478 0 0  2.602173913043478 0.008333333333333333 0  2.610434782608696 0.008333333333333333 0  2.304782608695652 0.01666666666666667 0  2.31304347826087 0.01666666666666667 0  2.321304347826087 0.01666666666666667 0  2.329565217391304 0.01666666666666667 0  2.337826086956521 0.01666666666666667 0  2.346086956521739 0.01666666666666667 0  2.354347826086956 0.01666666666666667 0  2.362608695652174 0.01666666666666667 0  2.370869565217391 0.01666666666666667 0  2.379130434782609 0.01666666666666667 0  2.387391304347826 0.01666666666666667 0  2.395652173913044 0.01666666666666667 0  2.403913043478261 0.01666666666666667 0  2.412173913043478 0.01666666666666667 0  2.420434782608695 0.01666666666666667 0  2.428695652173913 0.01666666666666667 0  2.43695652173913 0.01666666666666667 0  2.445217391304348 0.01666666666666667 0  2.453478260869565 0.01666666666666667 0  2.461739130434782 0.01666666666666667 0  2.47 0.01666666666666667 0  2.478260869565217 0.01666666666666667 0  2.486521739130435 0.01666666666666667 0  2.494782608695652 0.01666666666666667 0  2.503043478260869 0.01666666666666667 0  2.511304347826087 0.01666666666666667 0  2.519565217391305 0.01666666666666667 0  2.527826086956522 0.01666666666666667 0  2.536086956521739 0.01666666666666667 0  2.544347826086956 0.01666666666666667 0  2.552608695652174 0.01666666666666667 0  2.560869565217391 0.01666666666666667 0  2.569130434782608 0.01666666666666667 0  2.577391304347826 0.01666666666666667 0  2.585652173913043 0.01666666666666667 0  2.593913043478261 0.01666666666666667 0  2.602173913043478 0.01666666666666667 0  2.610434782608696 0.01666666666666667 0  2.618695652173913 0.01666666666666667 0  2.31304347826087 0.025 0  2.321304347826087 0.025 0  2.329565217391304 0.025 0  2.337826086956521 0.025 0  2.346086956521739 0.025 0  2.354347826086956 0.025 0  2.362608695652174 0.025 0  2.370869565217391 0.025 0  2.379130434782609 0.025 0  2.387391304347826 0.025 0  2.395652173913044 0.025 0  2.403913043478261 0.025 0  2.412173913043478 0.025 0  2.420434782608695 0.025 0  2.428695652173913 0.025 0  2.43695652173913 0.025 0  2.445217391304348 0.025 0  2.453478260869565 0.025 0  2.461739130434782 0.025 0  2.47 0.025 0  2.478260869565217 0.025 0  2.486521739130435 0.025 0  2.494782608695652 0.025 0  2.503043478260869 0.025 0  2.511304347826087 0.025 0  2.519565217391305 0.025 0  2.527826086956522 0.025 0  2.536086956521739 0.025 0  2.544347826086956 0.025 0  2.552608695652174 0.025 0  2.560869565217391 0.025 0  2.569130434782608 0.025 0  2.577391304347826 0.025 0  2.585652173913043 0.025 0  2.593913043478261 0.025 0  2.602173913043478 0.025 0  2.610434782608696 0.025 0  2.618695652173913 0.025 0  2.62695652173913 0.025 0  2.321304347826087 0.03333333333333333 0  2.329565217391304 0.03333333333333333 0  2.337826086956521 0.03333333333333333 0  2.346086956521739 0.03333333333333333 0  2.354347826086956 0.03333333333333333 0  2.362608695652174 0.03333333333333333 0  2.370869565217391 0.03333333333333333 0  2.379130434782609 0.03333333333333333 0  2.387391304347826 0.03333333333333333 0  2.395652173913044 0.03333333333333333 0  2.403913043478261 0.03333333333333333 0  2.412173913043478 0.03333333333333333 0  2.420434782608695 0.03333333333333333 0  2.428695652173913 0.03333333333333333 0  2.43695652173913 0.03333333333333333 0  2.445217391304348 0.03333333333333333 0  2.453478260869565 0.03333333333333333 0  2.461739130434782 0.03333333333333333 0  2.47 0.03333333333333333 0  2.478260869565217 0.03333333333333333 0  2.486521739130435 0.03333333333333333 0  2.494782608695652 0.03333333333333333 0  2.503043478260869 0.03333333333333333 0  2.511304347826087 0.03333333333333333 0  2.519565217391305 0.03333333333333333 0  2.527826086956522 0.03333333333333333 0  2.536086956521739 0.03333333333333333 0  2.544347826086956 0.03333333333333333 0  2.552608695652174 0.03333333333333333 0  2.560869565217391 0.03333333333333333 0  2.569130434782608 0.03333333333333333 0  2.577391304347826 0.03333333333333333 0  2.585652173913043 0.03333333333333333 0  2.593913043478261 0.03333333333333333 0  2.602173913043478 0.03333333333333333 0  2.610434782608696 0.03333333333333333 0  2.618695652173913 0.03333333333333333 0  2.62695652173913 0.03333333333333333 0  2.635217391304348 0.03333333333333333 0  2.329565217391304 0.04166666666666666 0  2.337826086956521 0.04166666666666666 0  2.346086956521739 0.04166666666666666 0  2.354347826086956 0.04166666666666666 0  2.362608695652174 0.04166666666666666 0  2.370869565217391 0.04166666666666666 0  2.379130434782609 0.04166666666666666 0  2.387391304347826 0.04166666666666666 0  2.395652173913044 0.04166666666666666 0  2.403913043478261 0.04166666666666666 0  2.412173913043478 0.04166666666666666 0  2.420434782608695 0.04166666666666666 0  2.428695652173913 0.04166666666666666 0  2.43695652173913 0.04166666666666666 0  2.445217391304348 0.04166666666666666 0  2.453478260869565 0.04166666666666666 0  2.461739130434782 0.04166666666666666 0  2.47 0.04166666666666666 0  2.478260869565217 0.04166666666666666 0  2.486521739130435 0.04166666666666666 0  2.494782608695652 0.04166666666666666 0  2.503043478260869 0.04166666666666666 0  2.511304347826087 0.04166666666666666 0  2.519565217391305 0.04166666666666666 0  2.527826086956522 0.04166666666666666 0  2.536086956521739 0.04166666666666666 0  2.544347826086956 0.04166666666666666 0  2.552608695652174 0.04166666666666666 0  2.560869565217391 0.04166666666666666 0  2.569130434782608 0.04166666666666666 0  2.577391304347826 0.04166666666666666 0  2.585652173913043 0.04166666666666666 0  2.593913043478261 0.04166666666666666 0  2.602173913043478 0.04166666666666666 0  2.610434782608696 0.04166666666666666 0  2.618695652173913 0.04166666666666666 0  2.62695652173913 0.04166666666666666 0  2.635217391304348 0.04166666666666666 0  2.643478260869565 0.04166666666666666 0  2.337826086956521 0.05 0  2.346086956521739 0.05 0  2.354347826086956 0.05 0  2.362608695652174 0.05 0  2.370869565217391 0.05 0  2.379130434782609 0.05 0  2.387391304347826 0.05 0  2.395652173913044 0.05 0  2.403913043478261 0.05 0  2.412173913043478 0.05 0  2.420434782608695 0.05 0  2.428695652173913 0.05 0  2.43695652173913 0.05 0  2.445217391304348 0.05 0  2.453478260869565 0.05 0  2.461739130434782 0.05 0  2.47 0.05 0  2.478260869565217 0.05 0  2.486521739130435 0.05 0  2.494782608695652 0.05 0  2.503043478260869 0.05 0  2.511304347826087 0.05 0  2.519565217391305 0.05 0  2.527826086956522 0.05 0  2.536086956521739 0.05 0  2.544347826086956 0.05 0  2.552608695652174 0.05 0  2.560869565217391 0.05 0  2.569130434782608 0.05 0  2.577391304347826 0.05 0  2.585652173913043 0.05 0  2.593913043478261 0.05 0  2.602173913043478 0.05 0  2.610434782608696 0.05 0  2.618695652173913 0.05 0  2.62695652173913 0.05 0  2.635217391304348 0.05 0  2.643478260869565 0.05 0  2.651739130434783 0.05 0  2.346086956521739 0.05833333333333333 0  2.354347826086956 0.05833333333333333 0  2.362608695652174 0.05833333333333333 0  2.370869565217391 0.05833333333333333 0  2.379130434782609 0.05833333333333333 0  2.387391304347826 0.05833333333333333 0  2.395652173913044 0.05833333333333333 0  2.403913043478261 0.05833333333333333 0  2.412173913043478 0.05833333333333333 0  2.420434782608695 0.05833333333333333 0  2.428695652173913 0.05833333333333333 0  2.43695652173913 0.05833333333333333
[...]
<CellData  Scalars="rho_bar"> 
<DataArray  type="Float64"  Name="rho_bar"  format="ascii">9.9997858445986065e-01   9.9998037297625864e-01   9.9995506935641032e-01   9.9997978769677109e-01   9.9995582673674954e-01   9.9997623225742605e-01   9.9995044178943360e-01   9.9996820171667200e-01   9.9993624061241870e-01   9.9995305969021009e-01   9.9990777082239302e-01   9.9992867961440945e-01   9.9985798025069050e-01   9.9990129166596775e-01   9.9979001330559814e-01   9.9989507768141295e-01   9.9974460470304205e-01   9.9992927071583804e-01   9.9978737346924962e-01   9.9997531859936539e-01   9.9990035126831378e-01   9.9999627967224380e-01   9.9997841219515693e-01   9.9999977604023216e-01   9.9999814807226872e-01   9.9999999429582420e-01   9.9999993933532438e-01   9.9999999992741850e-01   9.9999999914001281e-01   9.9999999999939959e-01   9.9999999999313571e-01   9.9999999999999523e-01   9.9999999999995559e-01   9.9999999999999989e-01   9.9999999999999956e-01   9.9999999999999978e-01   9.9999999999999978e-01   1.0000000000000000e+00   1.0000000000000000e+00   9.9999999999999978e-01   9.9999999999999978e-01   9.9999999999999978e-01   9.9999999999999978e-01   9.9999999999999978e-01   9.9999999999999978e-01   1.0000000000000000e+00   1.0000000000000000e+00   9.9999999999999978e-01   9.9999999999999978e-01   9.9999999999999767e-01   9.9999999999999900e-01   9.9999999999939526e-01   9.9999999999975497e-01   9.9999999980933363e-01   9.9999999991784150e-01   9.9999995071159364e-01   9.9999997542217045e-01   9.9999294696837127e-01   9.9999560119224851e-01   9.9961100873808106e-01   9.9967438904673900e-01   9.9333906848546505e-01   9.9220262623928612e-01   9.6427871663289033e-01   9.4317173897592688e-01   9.2268374246984453e-01   8.4983351840515575e-01   9.0757857375537077e-01   7.9616030714892749e-01   9.2404360862399337e-01   8.1368699192433425e-01   9.5017111394131826e-01   8.6759095690500543e-01   9.7004308390923288e-01   9.1805622599250092e-01   9.5000181088575641e-01   9.9536605108756759e-01   9.9524955850928498e-01   9.6518069801760997e-01   9.9426706333555559e-01   9.6089714019310701e-01   9.9183356960745750e-01   9.4824279548476720e-01   9.8660235818501663e-01   9.2103486854992656e-01   9.7627092012345174e-01   8.6993594167503452e-01   9.6066423257699418e-01   7.9508132011157662e-01   9.4944933097177608e-01   7.2782880741366029e-01   9.5731957276494128e-01   7.1653975850359930e-01   9.8206933661195250e-01   7.9816316746706006e-01   9.9752685219063231e-01   9.3619144090032158e-01   9.9990505346624892e-01   9.9472257159422739e-01   9.9999879186534546e-01   9.9988752935860115e-01   9.9999999303824016e-01   9.9999917970985697e-01   9.9999999997252975e-01   9.9999999708424081e-01   9.9999999999988776e-01   9.9999999999192535e-01   9.9999999999999922e-01   9.9999999999997158e-01   9.9999999999999978e-01   9.9999999999999944e-01   1.0000000000000000e+00   1.0000000000000000e+00   9.9999999999999978e-01   9.9999999999999978e-01   9.9999999999999978e-01   9.9999999999999978e-01   9.9999999999999978e-01   9.9999999999999978e-01   1.0000000000000000e+00   1.0000000000000000e+00   9.9999999999999944e-01   9.9999999999999944e-01   9.9999999999987554e-01   9.9999999999988909e-01   9.9999999993028144e-01   9.9999999993334932e-01   9.9999995134890329e-01   9.9999994428757866e-01   9.9997308602931034e-01   9.9995977075148657e-01   9.9254834441903694e-01   9.8467820188824418e-01   7.7640938997720754e-01   6.0415000574891320e-01   5.7226010418425222e-01   2.8366023380639255e-01   3.4547650343287284e-01   8.9989556961439954e-02   2.1063351794576957e-01   3.2402281608243114e-02   1.8452251912332698e-01   2.2969837415871417e-02   2.2168833188188455e-01   2.7470939153821143e-02   3.0288742813509001e-01   4.3953654073492408e-02   4.0314623103985003e-01   7.6298416808044334e-02   4.9006114529990519e-01   1.2188927972187497e-01   1.6650127952373756e-01   2.5991721414969965e-01   2.3914027884556174e-01   1.9058334471236928e-02   1.9436087259767160e-01   1.4560094141559489e-02   1.3488509222400458e-01   8.9704748293345325e-03   7.8159982002246359e-02   4.4634965790475425e-03   4.0973363901155184e-02   1.9137121487581659e-03   2.4592628282917119e-02   8.7483874476839319e-04   2.1902225793953393e-02   5.6060828108348937e-04   3.8628914166315725e-02   6.5303054567722430e-04   1.5657633030309842e-01   2.0343306919030448e-03   5.2486170124815246e-01   2.4780839437997911e-02   8.6385506441302262e-01   2.9613600321016009e-01   9.9967812201240824e-01   8.2635354025269891e-01   9.9999973358162642e-01   9.9973192889756690e-01   9.9999999973996812e-01   9.9999985144823245e-01   9.9999999999954081e-01   9.9999999988176624e-01   9.9999999999999767e-01   9.9999999999978639e-01   9.9999999999999989e-01   9.9999999999999833e-01   1.0000000000000000e+00   9.9999999999999989e-01   9.9999999999999989e-01   9.9999999999999989e-01   1.0000000000000000e+00   9.9999999999999989e-01   9.9999999999999867e-01   9.9999999999999789e-01   9.9999999999967171e-01   9.9999999999954103e-01   9.9999999966436670e-01   9.9999999951756169e-01   9.9999909588854818e-01   9.9999845648990826e-01   9.9715972393048891e-01   9.9319369816046443e-01   6.7928720344902249e-01   5.1293494616938684e-01   3.0011400605003341e-01   1.3139906952578023e-01   6.4509926415567964e-03   6.1612037809346165e-04   1.4967346188602773e-04   7.8032324756320063e-06   2.0190976778152361e-05   6.1085784376172880e-07   1.0665885266556799e-05   2.3445573256915730e-07   1.2716326504819131e-05   2.4448470313058007e-07   2.3832435262910453e-05   4.5477858188573234e-07   5.5395400634946267e-05   1.1174166744491267e-06   1.3155152191498176e-04   2.9785675005611360e-06   2.7069750319038316e-04   7.1303502213367516e-06   4.4297556360804274e-04   1.3402564114806115e-05   1.9091116779806905e-05   4.7158994564977514e-07   3.0992268326701655e-07   4.2305874359271911e-09   1.5469852329696998e-07   2.2776180478671177e-09   5.8579592778403481e-08   9.3839772989194106e-10   1.8386954745800800e-08   3.0655807522113798e-10   6.5100301908464299e-09   9.9629610117446532e-11   3.6344383521254757e-09   4.8296413165023942e-11   4.4529927800684987e-09   4.3584358344617151e-11   2.2526379780026438e-08   1.1439844442110804e-10   8.1191602060067436e-07   1.5571966771599220e-09   2.1146213648511508e-04   1.5033353407504596e-07   1.4029094253736002e-01   9.1395987781841160e-05   8.0990866550747276e-01   1.3049109237605097e-01   9.9994949013294154e-01   8.4528878113673034e-01   9.9999998824457448e-01   9.9997407109397018e-01   9.9999999998913958e-01   9.9999999404489892e-01   9.9999999999993994e-01   9.9999999999265721e-01   9.9999999999999678e-01   9.9999999999991895e-01   9.9999999999999756e-01   9.9999999999998423e-01   9.9999999999997347e-01   9.9999999999992262e-01   9.9999999999602895e-01   9.9999999999210520e-01   9.9999999425193775e-01   9.9999998972973758e-01   9.9996090749903532e-01   9.9992070989598869e-01   8.0530724399409115e-01   7.4338319387140483e-01   3.5963403330132582e-01   2.5383430200913221e-01   9.9690053509440802e-04   1.9162544175748328e-04   4.9856723707830675e-07   6.8397090223030560e-08   1.0255616448665939e-09   9.4524388316585815e-11   1.3384608236558885e-11   7.3778020729757056e-13   1.3282430710859217e-12   3.7247982476173989e-14   7.5923526724845191e-13   1.0695148470555674e-14   1.3692288044116663e-12   1.1509312021947455e-14   4.1291322213273434e-12   2.7579790303396596e-14   1.4631573730383704e-11   8.7587344784386279e-14   4.9954364718847907e-11   3.0239699633227706e-13   1.3227489474113932e-10   9.1183542198317927e-13   2.4329611473620599e-10   1.9490427790221552e-12   3.1440091271169496e-10   2.8442988705042658e-12   2.9582910195576533e-12   1.4062824978585317e-15   6.7538567331363686e-16   0.0000000000000000e+00   2.6830389761774615e-16   0.0000000000000000e+00   1.0177044392397267e-16   0.0000000000000000e+00   4.6259292692714852e-17   0.0000000000000000e+00   3.7007434154171883e-17   0.0000000000000000e+00   7.4014868308343753e-17   0.0000000000000000e+00   4.8109664400423437e-16   0.0000000000000000e+00   2.0354088784794531e-14   7.4014868308343753e-17   5.8257472919838920e-12   7.5865240016052374e-15   9.8736623691901075e-09   4.2751543046411663e-12   7.3818231465294635e-05   1.2248274385469788e-08   2.7255557307502881e-01   1.4421259932430777e-04   9.8995257596819819e-01   4.1965366166033174e-01   9.9999909646041840e-01   9.9608038724955950e-01   9.9999999930456929e-01   9.9999953712434364e-01   9.9999999998915812e-01   9.9999999924548144e-01   9.9999999999370770e-01   9.9999999994120459e-01   9.9999999983434773e-01   9.9999999948160645e-01   9.9999987562011594e-01   9.9999973883267668e-01   9.9895652388069234e-01   9.9803269587553711e-01   6.2863822696589555e-01   5.2398612666367606e-01   3.1717038065414697e-02   1.5097114580757328e-02   1.7085358858248685e-06   6.5305437016438528e-07   1.7888584132504562e-10   5.8385564901305059e-11   7.2506815366561269e-14   1.9613940101711098e-14   1.2952601953960158e-16   2.7755575615628910e-17   0.0000000000000000e+00   0.0000000000000000e+00   0.0000000000000000e+00   0.0000000000000000e+00   0.0000000000000000e+00   0.0000000000000000e+00   0.0000000000000000e+00   0.0000000000000000e+00   0.0000000000000000e+00   0.0000000000000000e+00   0.0000000000000000e+00   0.0000000000000000e+00   0.0000000000000000e+00   0.0000000000000000e+00   0.0000000000000000e+00   0.0000000000000000e+00   0.0000000000000000e+00   0.0000000000000000e+00   0.0000000000000000e+00   0.0000000000000000e+00   0.0000000000000000e+00   0.0000000000000000e+00   0.0000000000000000e+00   0.0000000000000000e+00   0.0000000000000000e+00   0.0000000000000000e+00   0.0000000000000000e+00   0.0000000000000000e+00   0.0000000000000000e+00   0.0000000000000000e+00   0.0000000000000000e+00   0.0000000000000000e+00   0.0000000000000000e+00   0.0000000000000000e+00   0.0000000000000000e+00   0.0000000000000000e+00   0.0000000000000000e+00   0.0000000000000000e+00   0.0000000000000000e+00   0.0000000000000000e+00   4.0060547471891068e-15   0.0000000000000000e+00   1.5009687936995419e-11   1.0195548109474354e-14   2.2301253570685317e-07   5.8144082141590531e-11   7.4509545019725478e-03   1.1122369141062607e-06   7.6026989431607184e-01   3.7039325222596731e-02   9.9995690812068627e-01   9.1299210017902888e-01   9.9999990074433531e-01   9.9997660677363087e-01   9.9999996482660214e-01   9.9999959275992267e-01   9.9999769130794780e-01   9.9999394121602958e-01   9.9337625584263589e-01   9.8981867068161011e-01   4.8375297462697331e-01   4.4263083286188115e-01   1.6060792401987967e-03   1.3745979285507324e-03   4.3200385417089621e-08   3.6863972457945586e-08   2.2577772984533336e-12   1.8037145850987220e-12   3.9782991715734773e-16   2.6830389761774615e-16   0.0000000000000000e+00   0.0000000000000000e+00   0.0000000000000000e+00   0.0000000000000000e+00   0.0000000000000000e+00   0.0000000000000000e+00   0.0000000000000000e+00   0.0000000000000000e+00   0.0000000000000000e+00   0.0000000000000000e+00   0.0000000000000000e+00   0.0000000000000000e+00   0.0000000000000000e+00   0.0000000000000000e+00   0.0000000000000000e+00   0.0000000000000000e+00   0.0000000000000000e+00   0.0000000000000000e+00   0.0000000000000000e+00   0.0000000000000000e+00   0.0000000000000000e+00   0.0000000000000000e+00   0.0000000000000000e+00   0.0000000000000000e+00   0.0000000000000000e+00   0.0000000000000000e+00   0.0000000000000000e+00   0.0000000000000000e+00   0.0000000000000000e+00   0.0000000000000000e+00   0.0000000000000000e+00   0.0000000000000000e+00   0.0000000000000000e+00   0.0000000000000000e+00   0.0000000000000000e+00   0.0000000000000000e+00   0.0000000000000000e+00   0.0000000000000000e+00   0.0000000000000000e+00   0.0000000000000000e+00   0.0000000000000000e+00   0.0000000000000000e+00   0.0000000000000000e+00   0.0000000000000000e+00   0.0000000000000000e+00   0.0000000000000000e+00   2.5905203907920321e-16   0.0000000000000000e+00   1.7650325645490741e-12   4.0245584642661917e-15   2.8270132605238512e-08   4.1041919862649921e-11   8.2955080123855074e-04   8.1324917714879286e-07   5.6737426349628728e-01   1.9124466376907383e-02   9.9954069061367634e-01   9.1499056786264565e-01   9.9995296819201951e-01   9.9956223476662909e-01   9.9567028815454739e-01   9.9469852523382607e-01   4.4719739028874944e-01   5.5415836667295648e-01   1.1201265315193367e-03   2.2895942725066065e-03   3.6737368388125199e-08   7.9752497744722803e-08   1.6390592586882724e-12   3.3632818752238332e-12   1.7578531223231644e-16   3.2381504884900393e-16   0.0000000000000000e+00   0.0000000000000000e+00   0.0000000000000000e+00   0.0000000000000000e+00   0.0000000000000000e+00   0.0000000000000000e+00   0.0000000000000000e+00   0.0000000000000000e+00   0.0000000000000000e+00   0.0000000000000000e+00   0.0000000000000000e+00   0.0000000000000000e+00   0.0000000000000000e+00   0.0000000000000000e+00   0.0000000000000000e+00   0.0000000000000000e+00   0.0000000000000000e+00   0.0000000000000000e+00   0.0000000000000000e+00   0.0000000000000000e+00   0.0000000000000000e+00   0.0000000000000000e+00   0.0000000000000000e+00   0.0000000000000000e+00   0.0000000000000000e+00   0.0000000000000000e+00   0.0000000000000000e+00   0.0000000000000000e+00   0.0000000000000000e+00   0.0000000000000000e+00   0.0000000000000000e+00   0.0000000000000000e+00   0.0000000000000000e+00   0.0000000000000000e+00   0.0000000000000000e+00   0.0000000000000000e+00   0.0000000000000000e+00   0.0000000000000000e+00   0.0000000000000000e+00   0.0000000000000000e+00   0.0000000000000000e+00   0.0000000000000000e+00   0.0000000000000000e+00   0.0000000000000000e+00   0.0000000000000000e+00   0.0000000000000000e+00   0.0000000000000000e+00   0.0000000000000000e+00   0.0000000000000000e+00   0.0000000000000000e+00   2.4147350785597155e-15   6.4763009769800778e-17   3.0662343034985406e-11   7.5301801831055083e-13   7.2022768650888602e-07   1.9125376402954568e-08   1.6364842699714884e-02   5.8183990023631194e-04   8.8001011241763960e-01   4.6230085687225603e-01   9.9815960046616814e-01   9.9561309545568466e-01   9.2674669963331924e-01   9.8121458248441418e-01   4.1218741990170803e-02   2.6496869049179839e-01   2.8701404896728606e-06   3.1774869709113224e-05   1.2576957993578234e-10   1.1388352020672932e-09   8.5209617139980733e-15   6.1950444774083722e-14   0.0000000000000000e+00   0.0000000000000000e+00   0.0000000000000000e+00   0.0000000000000000e+00   0.0000000000000000e+00   0.0000000000000000e+00   0.0000000000000000e+00   0.0000000000000000e+00   0.0000000000000000e+00   0.0000000000000000e+00   0.0000000000000000e+00   0.0000000000000000e+00   0.0000000000000000e+00   0.0000000000000000e+00   0.0000000000000000e+00   0.0000000000000000e+00   0.0000000000000000e+00   0.0000000000000000e+00   0.0000000000000000e+00   0.0000000000000000e+00   0.0000000000000000e+00   0.0000000000000000e+00   0.0000000000000000e+00   0.0000000000000000e+00   0.0000000000000000e+00   0.0000000000000000e+00   0.0000000000000000e+00   0.0000000000000000e+00   0.0000000000000000e+00   0.0000000000000000e+00   0.0000000000000000e+00   0.0000000000000000e+00   0.0000000000000000e+00   0.0000000000000000e+00   0.0000000000000000e+00   0.0000000000000000e+00   0.0000000000000000e+00   0.0000000000000000e+00   0.0000000000000000e+00   0.0000000000000000e+00   0.0000000000000000e+00   0.0000000000000000e+00   0.0000000000000000e+00   0.0000000000000000e+00   0.0000000000000000e+00   0.0000000000000000e+00   0.0000000000000000e+00   0.0000000000000000e+00   0.0000000000000000e+00   0.0000000000000000e+00   0.0000000000000000e+00   0.0000000000000000e+00   7.7715611723760938e-16   1.2027416100105859e-16   1.8162416015599092e-11   2.9651281430176360e-12   9.2733683076939865e-07   1.6385865977963654e-07   3.0080485185750433e-02   6.8145464530872009e-03   8.1396020003222125e-01   6.6633085333446218e-01   9.9810527514966341e-01   9.9868497886764607e-01   9.7598162502942487e-01   9.9892494310654534e-01   8.9814642537440911e-02   6.7083026678857016e-01   4.4229919885877917e-06   1.0070203640158426e-03   1.2297925640799193e-10   1.6891509367159920e-08   6.1247303525154459e-15   4.4290497195712908e-13   0.0000000000000000e+00   2.7755575615628910e-17   0.0000000000000000e+00   0.0000000000000000e+00   0.0000000000000000e+00   0.0000000000000000e+00   0.0000000000000000e+00   0.0000000000000000e+00   0.0000000000000000e+00   0.0000000000000000e+00   0.0000000000000000e+00   0.0000000000000000e+00   0.0000000000000000e+00   0.0000000000000000e+00   0.0000000000000000e+00   0.0000000000000000e+00   0.0000000000000000e+00   0.0000000000000000e+00   0.0000000000000000e+00   0.0000000000000000e+00   0.0000000000000000e+00   0.0000000000000000e+00   0.0000000000000000e+00   0.0000000000000000e+00   0.0000000000000000e+00   0.0000000000000000e+00   0.0000000000000000e+00   0.0000000000000000e+00   0.0000000000000000e+00   0.0000000000000000e+00   0.0000000000000000e+00   0.0000000000000000e+00   0.0000000000000000e+00   0.0000000000000000e+00   0.0000000000000000e+00   0.0000000000000000e+00   0.0000000000000000e+00   0.0000000000000000e+00   0.0000000000000000e+00   0.0000000000000000e+00   0.0000000000000000e+00   0.0000000000000000e+00   0.0000000000000000e+00   0.0000000000000000e+00   0.0000000000000000e+00   0.0000000000000000e+00   0.0000000000000000e+00   0.0000000000000000e+00   0.0000000000000000e+00   0.0000000000000000e+00   0.0000000000000000e+00   0.0000000000000000e+00   5.3707038816241935e-14   2.1714111989960348e-14   3.0078438906233621e-09   1.2131385063174347e-09   2.0577842043785954e-04   8.2886386305760132e-05   4.2812515878258711e-01   2.9995726581211030e-01   9.8910961615553283e-01   9.8515107310276839e-01   9.9992699749499148e-01   9.9996128370225412e-01   9.9968762895847951e-01   9.9998212891145333e-01   7.8998799734416691e-01   9.9828156052082728e-01   2.5427062291060822e-03   3.3040996141535761e-01   3.4738836335312933e-08   6.0653442973457303e-05   6.7656065934803168e-13   8.2567393662931932e-10   3.7007434154171876e-17   1.7671049808617074e-14   0.0000000000000000e+00   0.0000000000000000e+00   0.0000000000000000e+00   0.0000000000000000e+00   0.0000000000000000e+00   0.0000000000000000e+00   0.0000000000000000e+00   0.0000000000000000e+00   0.0000000000000000e+00   0.0000000000000000e+00   0.0000000000000000e+00   0.0000000000000000e+00   0.0000000000000000e+00   0.0000000000000000e+00   0.0000000000000000e+00   0.0000000000000000e+00   0.0000000000000000e+00   0.0000000000000000e+00   0.0000000000000000e+00   0.0000000000000000e+00   0.0000000000000000e+00   0.0000000000000000e+00   0.0000000000000000e+00   0.0000000000000000e+00   0.0000000000000000e+00   0.0000000000000000e+00   0.0000000000000000e+00   0.0000000000000000e+00   0.0000000000000000e+00   0.0000000000000000e+00   0.0000000000000000e+00   0.0000000000000000e+00   0.0000000000000000e+00   0.0000000000000000e+00   0.0000000000000000e+00   0.0000000000000000e+00   0.0000000000000000e+00   0.0000000000000000e+00   0.0000000000000000e+00   0.0000000000000000e+00   0.0000000000000000e+00   0.0000000000000000e+00   0.0000000000000000e+00   0.0000000000000000e+00   0.0000000000000000e+00   0.0000000000000000e+00   0.0000000000000000e+00   0.0000000000000000e+00   5.6806411426653840e-15   4.5426625424245986e-15   2.4384239072361419e-10   1.9358309399919446e-10   1.2440767486678509e-05   9.0426645178072925e-06   1.4857751347385439e-01   1.1613073931686274e-01   8.8429407807070881e-01   8.5273803220320721e-01   9.9992932025439063e-01   9.9991782377768912e-01   9.9999860848769317e-01   9.9999917654777082e-01   9.9999692497245607e-01   9.9999958457499694e-01   9.9950653367405440e-01   9.9999148160710294e-01   6.4960755453240637e-01   9.9581832914398039e-01   6.8116424050733882e-04   2.3752874623199255e-01   1.2602680639813475e-08   4.4956469136908636e-05   2.3472890298137367e-13   1.0679118607933205e-09   0.0000000000000000e+00   2.32221649