<?xml version="1.0"?>
<VTKFile type="UnstructuredGrid"  version="0.1"  >
<UnstructuredGrid>
<Piece  NumberOfPoints="2444" NumberOfCells="4684">
<Points>
<DataArray  type="Float64"  NumberOfComponents="3"  format="ascii">2.940869565217391 0 0  2.949130434782608 0 0  2.949130434782608 0.008333333333333333 0  2.940869565217391 0.008333333333333333 0  2.957391304347826 0 0  2.957391304347826 0.008333333333333333 0  2.965652173913043 0 0  2.965652173913043 0.008333333333333333 0  2.973913043478261 0 0  2.973913043478261 0.008333333333333333 0  2.982173913043478 0 0  2.982173913043478 0.008333333333333333 0  2.990434782608696 0 0  2.990434782608696 0.008333333333333333 0  2.998695652173913 0 0  2.998695652173913 0.008333333333333333 0  3.006956521739131 0 0  3.006956521739131 0.008333333333333333 0  3.015217391304348 0 0  3.015217391304348 0.008333333333333333 0  3.023478260869565 0 0  3.023478260869565 0.008333333333333333 0  3.031739130434782 0 0  3.031739130434782 0.008333333333333333 0  3.04 0 0  3.04 0.008333333333333333 0  3.048260869565218 0 0  3.048260869565218 0.008333333333333333 0  3.056521739130435 0 0  3.056521739130435 0.008333333333333333 0  3.064782608695652 0 0  3.064782608695652 0.008333333333333333 0  3.073043478260869 0 0  3.073043478260869 0.008333333333333333 0  3.081304347826087 0 0  3.081304347826087 0.008333333333333333 0  3.089565217391304 0 0  3.089565217391304 0.008333333333333333 0  3.097826086956522 0 0  3.097826086956522 0.008333333333333333 0  3.106086956521739 0 0  3.106086956521739 0.008333333333333333 0  3.114347826086956 0 0  3.114347826086956 0.008333333333333333 0  3.122608695652174 0 0  3.122608695652174 0.008333333333333333 0  3.130869565217391 0 0  3.130869565217391 0.008333333333333333 0  3.139130434782609 0 0  3.139130434782609 0.008333333333333333 0  3.147391304347826 0 0  3.147391304347826 0.008333333333333333 0  3.155652173913043 0 0  3.155652173913043 0.008333333333333333 0  3.163913043478261 0 0  3.163913043478261 0.008333333333333333 0  3.172173913043478 0 0  3.172173913043478 0.008333333333333333 0  3.180434782608696 0 0  3.180434782608696 0.008333333333333333 0  3.188695652173913 0 0  3.188695652173913 0.008333333333333333 0  3.19695652173913 0 0  3.19695652173913 0.008333333333333333 0  3.205217391304347 0 0  3.205217391304347 0.008333333333333333 0  3.213478260869565 0 0  3.213478260869565 0.008333333333333333 0  3.221739130434782 0 0  3.221739130434782 0.008333333333333333 0  3.23 0 0  3.23 0.008333333333333333 0  3.238260869565217 0 0  3.238260869565217 0.008333333333333333 0  3.246521739130435 0 0  3.246521739130435 0.008333333333333333 0  3.254782608695652 0 0  3.254782608695652 0.008333333333333333 0  3.26304347826087 0 0  3.26304347826087 0.008333333333333333 0  3.271304347826087 0 0  3.271304347826087 0.008333333333333333 0  3.279565217391304 0 0  3.279565217391304 0.008333333333333333 0  3.287826086956521 0 0  3.287826086956521 0.008333333333333333 0  3.296086956521739 0 0  3.296086956521739 0.008333333333333333 0  3.304347826086957 0 0  3.304347826086957 0.008333333333333333 0  3.312608695652174 0 0  3.312608695652174 0.008333333333333333 0  3.320869565217391 0 0  3.320869565217391 0.008333333333333333 0  3.329130434782608 0 0  3.329130434782608 0.008333333333333333 0  3.337391304347826 0.008333333333333333 0  2.949130434782608 0.01666666666666667 0  2.957391304347826 0.01666666666666667 0  2.965652173913043 0.01666666666666667 0  2.973913043478261 0.01666666666666667 0  2.982173913043478 0.01666666666666667 0  2.990434782608696 0.01666666666666667 0  2.998695652173913 0.01666666666666667 0  3.006956521739131 0.01666666666666667 0  3.015217391304348 0.01666666666666667 0  3.023478260869565 0.01666666666666667 0  3.031739130434782 0.01666666666666667 0  3.04 0.01666666666666667 0  3.048260869565218 0.01666666666666667 0  3.056521739130435 0.01666666666666667 0  3.064782608695652 0.01666666666666667 0  3.073043478260869 0.01666666666666667 0  3.081304347826087 0.01666666666666667 0  3.089565217391304 0.01666666666666667 0  3.097826086956522 0.01666666666666667 0  3.106086956521739 0.01666666666666667 0  3.114347826086956 0.01666666666666667 0  3.122608695652174 0.01666666666666667 0  3.130869565217391 0.01666666666666667 0  3.139130434782609 0.01666666666666667 0  3.147391304347826 0.01666666666666667 0  3.155652173913043 0.01666666666666667 0  3.163913043478261 0.01666666666666667 0  3.172173913043478 0.01666666666666667 0  3.180434782608696 0.01666666666666667 0  3.188695652173913 0.01666666666666667 0  3.19695652173913 0.01666666666666667 0  3.205217391304347 0.01666666666666667 0  3.213478260869565 0.01666666666666667 0  3.221739130434782 0.01666666666666667 0  3.23 0.01666666666666667 0  3.238260869565217 0.01666666666666667 0  3.246521739130435 0.01666666666666667 0  3.254782608695652 0.01666666666666667 0  3.26304347826087 0.01666666666666667 0  3.271304347826087 0.01666666666666667 0  3.279565217391304 0.01666666666666667 0  3.287826086956521 0.01666666666666667 0  3.296086956521739 0.01666666666666667 0  3.304347826086957 0.01666666666666667 0  3.312608695652174 0.01666666666666667 0  3.320869565217391 0.01666666666666667 0  3.329130434782608 0.01666666666666667 0  3.337391304347826 0.01666666666666667 0  3.345652173913043 0.01666666666666667 0  2.957391304347826 0.025 0  2.965652173913043 0.025 0  2.973913043478261 0.025 0  2.982173913043478 0.025 0  2.990434782608696 0.025 0  2.998695652173913 0.025 0  3.006956521739131 0.025 0  3.015217391304348 0.025 0  3.023478260869565 0.025 0  3.031739130434782 0.025 0  3.04 0.025 0  3.048260869565218 0.025 0  3.056521739130435 0.025 0  3.064782608695652 0.025 0  3.073043478260869 0.025 0  3.081304347826087 0.025 0  3.089565217391304 0.025 0  3.097826086956522 0.025 0  3.106086956521739 0.025 0  3.114347826086956 0.025 0  3.122608695652174 0.025 0  3.130869565217391 0.025 0  3.139130434782609 0.025 0  3.147391304347826 0.025 0  3.155652173913043 0.025 0  3.163913043478261 0.025 0  3.172173913043478 0.025 0  3.180434782608696 0.025 0  3.188695652173913 0.025 0  3.19695652173913 0.025 0  3.205217391304347 0.025 0  3.213478260869565 0.025 0  3.221739130434782 0.025 0  3.23 0.025 0  3.238260869565217 0.025 0  3.246521739130435 0.025 0  3.254782608695652 0.025 0  3.26304347826087 0.025 0  3.271304347826087 0.025 0  3.279565217391304 0.025 0  3.287826086956521 0.025 0  3.296086956521739 0.025 0  3.304347826086957 0.025 0  3.312608695652174 0.025 0  3.320869565217391 0.025 0  3.329130434782608 0.025 0  3.337391304347826 0.025 0  3.345652173913043 0.025 0  3.353913043478261 0.025 0  2.965652173913043 0.03333333333333333 0  2.973913043478261 0.03333333333333333 0  2.982173913043478 0.03333333333333333 0  2.990434782608696 0.03333333333333333 0  2.998695652173913 0.03333333333333333 0  3.006956521739131 0.03333333333333333 0  3.015217391304348 0.03333333333333333 0  3.023478260869565 0.03333333333333333 0  3.031739130434782 0.03333333333333333 0  3.04 0.03333333333333333 0  3.048260869565218 0.03333333333333333 0  3.056521739130435 0.03333333333333333 0  3.064782608695652 0.03333333333333333 0  3.073043478260869 0.03333333333333333 0  3.081304347826087 0.03333333333333333 0  3.089565217391304 0.03333333333333333 0  3.097826086956522 0.03333333333333333 0  3.106086956521739 0.03333333333333333 0  3.114347826086956 0.03333333333333333 0  3.122608695652174 0.03333333333333333 0  3.130869565217391 0.03333333333333333 0  3.139130434782609 0.03333333333333333 0  3.147391304347826 0.03333333333333333 0  3.155652173913043 0.03333333333333333 0  3.163913043478261 0.03333333333333333 0  3.172173913043478 0.03333333333333333 0  3.180434782608696 0.03333333333333333 0  3.188695652173913 0.03333333333333333 0  3.19695652173913 0.03333333333333333 0  3.205217391304347 0.03333333333333333 0  3.213478260869565 0.03333333333333333 0  3.221739130434782 0.03333333333333333 0  3.23 0.03333333333333333 0  3.238260869565217 0.03333333333333333 0  3.246521739130435 0.03333333333333333 0  3.254782608695652 0.03333333333333333 0  3.26304347826087 0.03333333333333333 0  3.271304347826087 0.03333333333333333 0  3.279565217391304 0.03333333333333333 0  3.287826086956521 0.03333333333333333 0  3.296086956521739 0.03333333333333333 0  3.304347826086957 0.03333333333333333 0  3.312608695652174 0.03333333333333333 0  3.320869565217391 0.03333333333333333 0  3.329130434782608 0.03333333333333333 0  3.337391304347826 0.03333333333333333 0  3.345652173913043 0.03333333333333333 0  3.353913043478261 0.03333333333333333 0  3.362173913043478 0.03333333333333333 0  2.973913043478261 0.04166666666666666 0  2.982173913043478 0.04166666666666666 0  2.990434782608696 0.04166666666666666 0  2.998695652173913 0.04166666666666666 0  3.006956521739131 0.04166666666666666 0  3.015217391304348 0.04166666666666666 0  3.023478260869565 0.04166666666666666 0  3.031739130434782 0.04166666666666666 0  3.04 0.04166666666666666 0  3.048260869565218 0.04166666666666666 0  3.056521739130435 0.04166666666666666 0  3.064782608695652 0.04166666666666666 0  3.073043478260869 0.04166666666666666 0  3.081304347826087 0.04166666666666666 0  3.089565217391304 0.04166666666666666 0  3.097826086956522 0.04166666666666666 0  3.106086956521739 0.04166666666666666 0  3.114347826086956 0.04166666666666666 0  3.122608695652174 0.04166666666666666 0  3.130869565217391 0.04166666666666666 0  3.139130434782609 0.04166666666666666 0  3.147391304347826 0.04166666666666666 0  3.155652173913043 0.04166666666666666 0  3.163913043478261 0.04166666666666666 0  3.172173913043478 0.04166666666666666 0  3.180434782608696 0.04166666666666666 0  3.188695652173913 0.04166666666666666 0  3.19695652173913 0.04166666666666666 0  3.205217391304347 0.04166666666666666 0  3.213478260869565 0.04166666666666666 0  3.221739130434782 0.04166666666666666 0  3.23 0.04166666666666666 0  3.238260869565217 0.04166666666666666 0  3.246521739130435 0.04166666666666666 0  3.254782608695652 0.04166666666666666 0  3.2630434
[...]
<CellData  Scalars="rho_bar"> 
<DataArray  type="Float64"  Name="rho_bar"  format="ascii">9.9999376908988025e-01   9.9999018668286377e-01   9.9999417870997753e-01   9.9999092054057614e-01   9.9999440992342659e-01   9.9999137025526152e-01   9.9999447298975863e-01   9.9999155357740210e-01   9.9999437736696384e-01   9.9999148403360827e-01   9.9999413895953593e-01   9.9999117800142756e-01   9.9999379984631875e-01   9.9999067940967501e-01   9.9999345387065808e-01   9.9999009770739233e-01   9.9999326731329941e-01   9.9998965123536365e-01   9.9999345242201221e-01   9.9998966164928049e-01   9.9999416958043319e-01   9.9999044373732437e-01   9.9999538523919640e-01   9.9999208583046195e-01   9.9999682003325452e-01   9.9999428203712926e-01   9.9999809351990099e-01   9.9999643923020454e-01   9.9999896890637918e-01   9.9999805583273893e-01   9.9999944597526647e-01   9.9999900287609766e-01   9.9999964539542407e-01   9.9999944283348763e-01   9.9999964136732256e-01   9.9999956401702694e-01   9.9999917543514238e-01   9.9999932137451186e-01   9.9999382841356477e-01   9.9999690683800047e-01   9.9981632310881274e-01   9.9994566319475564e-01   9.8172478228537996e-01   9.9645749110498949e-01   3.5128086442569401e-01   7.2836335058561741e-01   4.7429243443630840e-03   2.8891513161612783e-02   3.8860051236239146e-05   2.1478775633764399e-04   5.8362688853027156e-07   2.7760253634527090e-06   1.4743486894304898e-08   6.2080725069894413e-08   5.4153244851325622e-10   2.0850062417328741e-09   2.5504690951786792e-11   9.2192818194429067e-11   1.4012772423891795e-12   4.8453093389374162e-12   8.4247423851972287e-14   2.8158956647909389e-13   5.3383223767392946e-15   1.7319479184152442e-14   3.5157062446463289e-16   1.1194748831636994e-15   1.8503717077085938e-17   8.3266726846886753e-17   0.0000000000000000e+00   0.0000000000000000e+00   0.0000000000000000e+00   0.0000000000000000e+00   0.0000000000000000e+00   0.0000000000000000e+00   0.0000000000000000e+00   0.0000000000000000e+00   0.0000000000000000e+00   0.0000000000000000e+00   0.0000000000000000e+00   0.0000000000000000e+00   0.0000000000000000e+00   0.0000000000000000e+00   0.0000000000000000e+00   0.0000000000000000e+00   0.0000000000000000e+00   0.0000000000000000e+00   0.0000000000000000e+00   0.0000000000000000e+00   0.0000000000000000e+00   0.0000000000000000e+00   0.0000000000000000e+00   0.0000000000000000e+00   0.0000000000000000e+00   0.0000000000000000e+00   0.0000000000000000e+00   9.9991985491729274e-01   9.9992545446635228e-01   9.9974796830124035e-01   9.9992848851603877e-01   9.9976148244137697e-01   9.9992907590848801e-01   9.9976651370288883e-01   9.9992722272045398e-01   9.9976315079168432e-01   9.9992291808220313e-01   9.9975115812437210e-01   9.9991644382768841e-01   9.9973066485267215e-01   9.9990898106532122e-01   9.9970395129863709e-01   9.9990315711995514e-01   9.9967780795213501e-01   9.9990295263270279e-01   9.9966480336099861e-01   9.9991202919962707e-01   9.9968006515115748e-01   9.9993084703456980e-01   9.9973201573982151e-01   9.9995470475246440e-01   9.9981179150748478e-01   9.9997593631908344e-01   9.9989358503337034e-01   9.9998947241950886e-01   9.9995230548579295e-01   9.9999583098500155e-01   9.9998225710132460e-01   9.9999817744447084e-01   9.9999365867889101e-01   9.9999881139429914e-01   9.9999715628008112e-01   9.9999832807610989e-01   9.9999768578954373e-01   9.9999276509742951e-01   9.9999494744578055e-01   9.9988029239847920e-01   9.9996087671607070e-01   9.9300466454037872e-01   9.9889086718624098e-01   6.0862006986579587e-01   9.2504157189731395e-01   1.9014550163356830e-02   1.6543765891761861e-01   1.7963814503691813e-04   2.0841689918576949e-03   2.8713907061587536e-06   2.9936198402709845e-05   7.4857530970214484e-08   6.8978921998382359e-07   2.7565136562213151e-09   2.2977790272345661e-08   1.2639413589828524e-10   9.7641365363424870e-10   6.5690416069704335e-12   4.7780779333095318e-11   3.6397736676481906e-13   2.5031735943296476e-12   2.0881444721491484e-14   1.3483658634072526e-13   1.2304971856262150e-15   7.3922349722958350e-15   8.3266726846886716e-17   4.2558549277297664e-16   0.0000000000000000e+00   1.8503717077085938e-17   0.0000000000000000e+00   0.0000000000000000e+00   0.0000000000000000e+00   0.0000000000000000e+00   0.0000000000000000e+00   0.0000000000000000e+00   0.0000000000000000e+00   0.0000000000000000e+00   0.0000000000000000e+00   0.0000000000000000e+00   0.0000000000000000e+00   0.0000000000000000e+00   0.0000000000000000e+00   0.0000000000000000e+00   0.0000000000000000e+00   0.0000000000000000e+00   0.0000000000000000e+00   0.0000000000000000e+00   0.0000000000000000e+00   0.0000000000000000e+00   0.0000000000000000e+00   0.0000000000000000e+00   0.0000000000000000e+00   0.0000000000000000e+00   0.0000000000000000e+00   0.0000000000000000e+00   0.0000000000000000e+00   9.8148596740212335e-01   9.8231265161593695e-01   8.9931868394660341e-01   9.8242934938902859e-01   9.0137553439774076e-01   9.8178500044968986e-01   8.9963685320873232e-01   9.8023928685097461e-01   8.9354783967330076e-01   9.7767254759509903e-01   8.8246343516723680e-01   9.7426575091580891e-01   8.6673277550991434e-01   9.7088086484258496e-01   8.4929359355284262e-01   9.6923517902185796e-01   8.3661099384243376e-01   9.7134723055303185e-01   8.3764982638817997e-01   9.7800267283180020e-01   8.6020364629084722e-01   9.8715550660066154e-01   9.0396967663067662e-01   9.9473120459659525e-01   9.5296055267490731e-01   9.9852573206180995e-01   9.8502716313388294e-01   9.9969428852469633e-01   9.9687563222761788e-01   9.9994104387714944e-01   9.9950252603672063e-01   9.9998490469500334e-01   9.9991833758955928e-01   9.9999224282256882e-01   9.9997884773778467e-01   9.9998836918368805e-01   9.9998648543302326e-01   9.9993570770898343e-01   9.9997080963330931e-01   9.9869789358512839e-01   9.9976966360638475e-01   9.3751896203925544e-01   9.9446335651075202e-01   2.8730393414479444e-01   7.9567399696552032e-01   6.8763158185087452e-03   1.0781819740113663e-01   1.3804439933215448e-04   2.7653131270256592e-03   3.8832694645255881e-06   7.3753776685373917e-05   1.4120892768051027e-07   2.4872619116729959e-06   5.9775703738681082e-09   9.8660468896468359e-08   2.6914489155889965e-10   4.2215869966444322e-09   1.2152168160639576e-11   1.8103243903944135e-10   5.4336165196862873e-13   7.5029057041338855e-12   2.4434158400291985e-14   3.0347021192274793e-13   1.1379786002407853e-15   1.2341979290416322e-14   4.6259292692714852e-17   5.1810407815840622e-16   0.0000000000000000e+00   1.8503717077085944e-17   0.0000000000000000e+00   0.0000000000000000e+00   0.0000000000000000e+00   0.0000000000000000e+00   0.0000000000000000e+00   0.0000000000000000e+00   0.0000000000000000e+00   0.0000000000000000e+00   0.0000000000000000e+00   0.0000000000000000e+00   0.0000000000000000e+00   0.0000000000000000e+00   0.0000000000000000e+00   0.0000000000000000e+00   0.0000000000000000e+00   0.0000000000000000e+00   0.0000000000000000e+00   0.0000000000000000e+00   0.0000000000000000e+00   0.0000000000000000e+00   0.0000000000000000e+00   0.0000000000000000e+00   0.0000000000000000e+00   0.0000000000000000e+00   0.0000000000000000e+00   0.0000000000000000e+00   0.0000000000000000e+00   1.9470606110908337e-01   1.9804708555277978e-01   2.3919463509207962e-02   1.9537794319608567e-01   2.4102541031695051e-02   1.8627939137019298e-01   2.3250484964333681e-02   1.7139904380151028e-01   2.1431207043186604e-02   1.5365284279125518e-01   1.9055893120241332e-02   1.3807033958823012e-01   1.6868233795792682e-02   1.3050675687293997e-01   1.5701648185796373e-02   1.3779968976924620e-01   1.6487086534177943e-02   1.7191570975130502e-01   2.1078479822998535e-02   2.5832759399618777e-01   3.5271996452636276e-02   4.3043833970280598e-01   7.9940703849565281e-02   6.7922517853370867e-01   2.1793917163492818e-01   9.2846641238450034e-01   5.4892940718390248e-01   9.9411994283674565e-01   9.1837681498355239e-01   9.9953941341945718e-01   9.9503818825462698e-01   9.9993621717244074e-01   9.9966793027053980e-01   9.9997562418398422e-01   9.9995062996146833e-01   9.9996663958550525e-01   9.9997528355622967e-01   9.9983285365821062e-01   9.9995348996184552e-01   9.9754496730209086e-01   9.9971536158640240e-01   9.3704274739578375e-01   9.9579196149997695e-01   4.5937342082838856e-01   9.0967598984229237e-01   4.6675832243886252e-02   4.1163677755226330e-01   1.9989418484588442e-03   4.8042094684911274e-02   8.2272277233822800e-05   2.3845695647053680e-03   3.3120195356191782e-06   1.0335916255433766e-04   1.2128146069841545e-07   4.0018106169196566e-06   3.8722868152725925e-09   1.3082597127844761e-07   1.1281299968265064e-10   3.6019144241302330e-09   3.1929089002365641e-12   9.0063882277983469e-11   9.1796940419423339e-14   2.1974274252064175e-12   2.8495724298712353e-15   5.5427884504410940e-14   9.2518585385429691e-17   1.5635640930137618e-15   0.0000000000000000e+00   4.6259292692714852e-17   0.0000000000000000e+00   0.0000000000000000e+00   0.0000000000000000e+00   0.0000000000000000e+00   0.0000000000000000e+00   0.0000000000000000e+00   0.0000000000000000e+00   0.0000000000000000e+00   0.0000000000000000e+00   0.0000000000000000e+00   0.0000000000000000e+00   0.0000000000000000e+00   0.0000000000000000e+00   0.0000000000000000e+00   0.0000000000000000e+00   0.0000000000000000e+00   0.0000000000000000e+00   0.0000000000000000e+00   0.0000000000000000e+00   0.0000000000000000e+00   0.0000000000000000e+00   0.0000000000000000e+00   0.0000000000000000e+00   0.0000000000000000e+00   0.0000000000000000e+00   0.0000000000000000e+00   0.0000000000000000e+00   1.8969389683802050e-05   1.9936948048276951e-05   1.4882637614140512e-06   2.0251291153091280e-05   1.6094620501153991e-06   2.0036806951987767e-05   1.7080777129918621e-06   1.9822687256985473e-05   1.8121189884201527e-06   2.0640574282175066e-05   2.0033903095998768e-06   2.4319139503338933e-05   2.4604061200824328e-06   3.5307626937042251e-05   3.6316787652146401e-06   6.9283619505653801e-05   7.0270047114369856e-06   2.0265116812302286e-04   1.9565830906490923e-05   9.7512527019744111e-04   8.6652722224883614e-05   8.3055810921990603e-03   6.7553214059135047e-04   1.0916386434205767e-01   9.9276390528952319e-03   6.8505762940467940e-01   2.0487951834095255e-01   9.8564576495873202e-01   8.6439205619243331e-01   9.9942252488227867e-01   9.9625111024492308e-01   9.9994401434967872e-01   9.9984261213598469e-01   9.9998105680195626e-01   9.9997811939367764e-01   9.9997654803949332e-01   9.9998828487207525e-01   9.9991300933321747e-01   9.9997944458190491e-01   9.9929815658040111e-01   9.9991127568786131e-01   9.9120233956917936e-01   9.9930042452651247e-01   8.8856395645380370e-01   9.9225231069319186e-01   4.8000071647760717e-01   9.1316601856635604e-01   1.1529832354108405e-01   5.8741652343499762e-01   8.9004702259910702e-03   1.7577297015163026e-01   3.9352025525911838e-04   1.4625884630745526e-02   1.1622944739534770e-05   5.9280593272172577e-04   2.3110863376733329e-07   1.4843440966046579e-05   3.4508315741958264e-09   2.4096333940219295e-07   4.8193254942319179e-11   2.9425734071608640e-09   7.6026222354622998e-13   3.4750359996967469e-11   1.4164595422509290e-14   4.7930178344775720e-13   3.2381504884900393e-16   8.0398650699938393e-15   0.0000000000000000e+00   1.8503717077085946e-16   0.0000000000000000e+00   0.0000000000000000e+00   0.0000000000000000e+00   0.0000000000000000e+00   0.0000000000000000e+00   0.0000000000000000e+00   0.0000000000000000e+00   0.0000000000000000e+00   0.0000000000000000e+00   0.0000000000000000e+00   0.0000000000000000e+00   0.0000000000000000e+00   0.0000000000000000e+00   0.0000000000000000e+00   0.0000000000000000e+00   0.0000000000000000e+00   0.0000000000000000e+00   0.0000000000000000e+00   0.0000000000000000e+00   0.0000000000000000e+00   0.0000000000000000e+00   0.0000000000000000e+00   0.0000000000000000e+00   0.0000000000000000e+00   0.0000000000000000e+00   0.0000000000000000e+00   0.0000000000000000e+00   1.1261204653963592e-09   1.4684492788408221e-09   1.6133249366075594e-10   1.9822907019554723e-09   2.2978050018274127e-10   2.8652630638485261e-09   3.4914643398664675e-10   4.6650880658471988e-09   5.9143351327506366e-10   9.1252115215952508e-09   1.1852705483761383e-09   2.3084468919742918e-08   3.0164985601969594e-09   8.1863249234981339e-08   1.0561420118089986e-08   4.4382907613919415e-07   5.5630970876204458e-08   4.0279881580821781e-06   4.8679240843840777e-07   6.6753524472773496e-05   7.8521363353993099e-06   2.1401418003993327e-03   2.5515225399587910e-04   1.0856042050050010e-01   1.6327224652270163e-02   8.5227416584701776e-01   5.0521791552049133e-01   9.9701014890199946e-01   9.8567278105527156e-01   9.9989987017108084e-01   9.9972526323796052e-01   9.9998828785616301e-01   9.9998276384694429e-01   9.9999484728942201e-01   9.9999581166987872e-01   9.9999328572575386e-01   9.9999677309040502e-01   9.9998128206508896e-01   9.9999426995448226e-01   9.9991547531255998e-01   9.9998235218925013e-01   9.9948680907695098e-01   9.9992274056097474e-01   9.9618557222529736e-01   9.9957081534878223e-01   9.6704244579348764e-01   9.9709792623972959e-01   7.6052639845991110e-01   9.7639186035328795e-01   3.2322307370173897e-01   8.2077666685329720e-01   4.0434260384654724e-02   4.0670312734346264e-01   1.3488217890851859e-03   5.2381920899678414e-02   2.1146488223618604e-05   1.5358780160890744e-03   1.8739386667410152e-07   1.9991286315357289e-05   1.2889951883643391e-09   1.4762038867225749e-07   9.9916834065775609e-12   8.7373714744802068e-10   1.0525839459300337e-13   6.0026798346749883e-12   1.5173048003210470e-15   5.7972145602510253e-14   2.7755575615628910e-17   7.7715611723760958e-16   0.0000000000000000e+00   1.8503717077085941e-17   0.0000000000000000e+00   0.0000000000000000e+00   0.0000000000000000e+00   0.0000000000000000e+00   0.0000000000000000e+00   0.0000000000000000e+00   0.0000000000000000e+00   0.0000000000000000e+00   0.0000000000000000e+00   0.0000000000000000e+00   0.0000000000000000e+00   0.0000000000000000e+00   0.0000000000000000e+00   0.0000000000000000e+00   0.0000000000000000e+00   0.0000000000000000e+00   0.0000000000000000e+00   0.0000000000000000e+00   0.0000000000000000e+00   0.0000000000000000e+00   0.0000000000000000e+00   0.0000000000000000e+00   0.0000000000000000e+00   0.0000000000000000e+00   8.3028954082446163e-13   1.5823453658470046e-12   2.4316659796852491e-13   3.4193943972600968e-12   5.4362070400770780e-13   8.7893488783426684e-12   1.4388212843385870e-12   2.8504217504850733e-11   4.7762534668057307e-12   1.2488369597699980e-10   2.1318752319032793e-11   7.9806021976066199e-10   1.3872232991947916e-10   8.0906854086718969e-09   1.4415930023788564e-09   1.4229891912946138e-07   2.6389935385099740e-08   4.7480379779899868e-06   9.3665017806647077e-07   3.2038453473907474e-04   6.8748135926240600e-05   3.8324451667065967e-02   9.4317337475152124e-03   7.2887657932164696e-01   4.3678303345569852e-01   9.9502509838499831e-01   9.8493909793572998e-01   9.9989916337755091e-01   9.9977409599307931e-01   9.9999233014170286e-01   9.9998779810422400e-01   9.9999775663698964e-01   9.9999742557604021e-01   9.9999818478816693e-01   9.9999842071802980e-01   9.9999719911665574e-01   9.9999807784422723e-01   9.9999365603418289e-01   9.9999653730846993e-01   9.9998168859364422e-01   9.9999215903061700e-01   9.9993635815886983e-01   9.9997910455001171e-01   9.9973302982988543e-01   9.9993471387921651e-01   9.9858340180810179e-01   9.9975122500139824e-01   9.8977415290284165e-01   9.9875825385723083e-01   9.0282402104485659e-01   9.9114600118354745e-01   4.8008635057714644e-01   9.1178120973002486e-01   5.9106804085054310e-02   4.8576350015853631e-01   1.1776992581955614e-03   5.3931339168608566e-02   9.3021039242006457e-06   9.2226126867698622e-04   4.1047344939704196e-08   6.2468714700410670e-06   1.6586146345254349e-10   2.4277491748418235e-08   9.6173994694008026e-13   9.0280847612570866e-11   8.5579691481522478e-15   4.8919202022545960e-13   1.1102230246251563e-16   4.1818400594214219e-15   0.0000000000000000e+00   4.6259292692714852e-17   0.0000000000000000e+00   0.0000000000000000e+00   0.0000000000000000e+00   0.0000000000000000e+00   0.0000000000000000e+00   0.0000000000000000e+00   0.0000000000000000e+00   0.0000000000000000e+00   0.0000000000000000e+00   0.0000000000000000e+00   0.0000000000000000e+00   0.0000000000000000e+00   0.0000000000000000e+00   0.0000000000000000e+00   0.0000000000000000e+00   0.0000000000000000e+00   0.0000000000000000e+00   0.0000000000000000e+00   0.0000000000000000e+00   0.0000000000000000e+00   0.0000000000000000e+00   0.0000000000000000e+00   0.0000000000000000e+00   8.4839542798439051e-15   2.7329990122855936e-14   5.6806411426653840e-15   1.1053195395997287e-13   2.3832787595286693e-14   5.9509804491616103e-13   1.3373561517463864e-13   4.5670504415321976e-12   1.0782671052330288e-12   5.3980782806680353e-11   1.3541806564987270e-11   1.0711082946516604e-09   2.8933055951085857e-10   3.9167809884332876e-08   1.1528011415832632e-08   2.8901508068538782e-06   9.3239084678990248e-07   4.3519444255597323e-04   1.5296810859007542e-04   8.4380803923001846e-02   3.4309346911786956e-02   8.1278324708635930e-01   6.5126930009822359e-01   9.9746255052144994e-01   9.9465894011905298e-01   9.9993838005602997e-01   9.9988642600308941e-01   9.9999337827050516e-01   9.9998928704000833e-01   9.9999731423114302e-01   9.9999604681825105e-01   9.9999746716964499e-01   9.9999640308812199e-01   9.9999647831007754e-01   9.9999504212412127e-01   9.9999443035186963e-01   9.9999246712330025e-01   9.9999078640754380e-01   9.9998885660653414e-01   9.9998393102284988e-01   9.9998396436012515e-01   9.9996888164726161e-01   9.9997625002731982e-01   9.9992770578359524e-01   9.9996055118616123e-01   9.9977842534204697e-01   9.9991862225182326e-01   9.9900164227241173e-01   9.9976722960918896e-01   9.9260129733994873e-01   9.9896591989998085e-01   9.1120302017722588e-01   9.9204914269374800e-01   4.3435306018547759e-01   8.9831586839083100e-01   2.7811232834582221e-02   3.6883636208853671e-01   2.7741542631487542e-04   1.8720643281382430e-02   1.0992093874192159e-06   1.5810514457590774e-04   2.8743974700429224e-09   5.5429973734126103e-07   9.3178427936398569e-12   1.3598271767871020e-09   5.2282252601306326e-14   4.2626180363214425e-12   4.9034850254277741e-16   2.3582987414746032e-14   0.0000000000000000e+00   2.2204460492503131e-16   0.0000000000000000e+00   0.0000000000000000e+00   0.0000000000000000e+00   0.0000000000000000e+00   0.0000000000000000e+00   0.0000000000000000e+00   0.0000000000000000e+00   0.0000000000000000e+00   0.0000000000000000e+00   0.0000000000000000e+00   0.0000000000000000e+00   0.0000000000000000e+00   0.0000000000000000e+00   0.0000000000000000e+00   0.0000000000000000e+00   0.0000000000000000e+00   0.0000000000000000e+00   0.0000000000000000e+00   0.0000000000000000e+00   0.0000000000000000e+00   0.0000000000000000e+00   0.0000000000000000e+00   1.1472304587793283e-15   7.4384942649885488e-15   2.1741867565575985e-15   6.8500760619372171e-14   2.1344037648418631e-14   9.5911241911513392e-13   3.2207569944375786e-13   2.2112682055800786e-11   8.0720892932835860e-12   9.1845310061048703e-10   3.6557245193987359e-10   7.5750626900757581e-08   3.2755154163085124e-08   1.3160071171127347e-05   6.1084681445925746e-06   3.7982108216761960e-03   1.8640969075414127e-03   3.6050689278611880e-01   2.3145415140375375e-01   9.5398105967764879e-01   9.2232592079203812e-01   9.9933575914071060e-01   9.9888957107545850e-01   9.9995971542220385e-01   9.9993482677104450e-01   9.9998695011129468e-01   9.9997905961167566e-01   9.9998510407301044e-01   9.9997450847350666e-01   9.9997020886332444e-01   9.9993999166263814e-01   9.9994233502223273e-01   9.9985535332564535e-01   9.9991838680236245e-01   9.9975315725851877e-01   9.99915299