<?xml version="1.0"?>
<VTKFile type="UnstructuredGrid"  version="0.1"  >
<UnstructuredGrid>
<Piece  NumberOfPoints="2396" NumberOfCells="4572">
<Points>
<DataArray  type="Float64"  NumberOfComponents="3"  format="ascii">0.3056521739130434 0 0  0.3139130434782609 0 0  0.3139130434782609 0.008333333333333333 0  0.3056521739130434 0.008333333333333333 0  0.3221739130434783 0 0  0.3221739130434783 0.008333333333333333 0  0.3304347826086956 0 0  0.3304347826086956 0.008333333333333333 0  0.338695652173913 0 0  0.338695652173913 0.008333333333333333 0  0.3469565217391304 0 0  0.3469565217391304 0.008333333333333333 0  0.3552173913043478 0 0  0.3552173913043478 0.008333333333333333 0  0.3634782608695652 0 0  0.3634782608695652 0.008333333333333333 0  0.3717391304347826 0 0  0.3717391304347826 0.008333333333333333 0  0.3799999999999999 0 0  0.3799999999999999 0.008333333333333333 0  0.3882608695652174 0 0  0.3882608695652174 0.008333333333333333 0  0.3965217391304348 0 0  0.3965217391304348 0.008333333333333333 0  0.4047826086956521 0 0  0.4047826086956521 0.008333333333333333 0  0.4130434782608696 0 0  0.4130434782608696 0.008333333333333333 0  0.4213043478260869 0 0  0.4213043478260869 0.008333333333333333 0  0.4295652173913043 0 0  0.4295652173913043 0.008333333333333333 0  0.4378260869565217 0 0  0.4378260869565217 0.008333333333333333 0  0.4460869565217391 0 0  0.4460869565217391 0.008333333333333333 0  0.4543478260869565 0 0  0.4543478260869565 0.008333333333333333 0  0.4626086956521739 0 0  0.4626086956521739 0.008333333333333333 0  0.4708695652173913 0 0  0.4708695652173913 0.008333333333333333 0  0.4791304347826086 0 0  0.4791304347826086 0.008333333333333333 0  0.4873913043478261 0 0  0.4873913043478261 0.008333333333333333 0  0.4956521739130435 0 0  0.4956521739130435 0.008333333333333333 0  0.5039130434782608 0 0  0.5039130434782608 0.008333333333333333 0  0.5121739130434783 0 0  0.5121739130434783 0.008333333333333333 0  0.5204347826086956 0 0  0.5204347826086956 0.008333333333333333 0  0.528695652173913 0 0  0.528695652173913 0.008333333333333333 0  0.5369565217391304 0 0  0.5369565217391304 0.008333333333333333 0  0.5452173913043478 0 0  0.5452173913043478 0.008333333333333333 0  0.5534782608695652 0 0  0.5534782608695652 0.008333333333333333 0  0.5617391304347825 0 0  0.5617391304347825 0.008333333333333333 0  0.57 0 0  0.57 0.008333333333333333 0  0.5782608695652174 0 0  0.5782608695652174 0.008333333333333333 0  0.5865217391304348 0 0  0.5865217391304348 0.008333333333333333 0  0.5947826086956521 0 0  0.5947826086956521 0.008333333333333333 0  0.6030434782608696 0 0  0.6030434782608696 0.008333333333333333 0  0.6113043478260869 0 0  0.6113043478260869 0.008333333333333333 0  0.6195652173913043 0 0  0.6195652173913043 0.008333333333333333 0  0.6278260869565218 0 0  0.6278260869565218 0.008333333333333333 0  0.6360869565217391 0 0  0.6360869565217391 0.008333333333333333 0  0.6443478260869565 0 0  0.6443478260869565 0.008333333333333333 0  0.6526086956521739 0 0  0.6526086956521739 0.008333333333333333 0  0.6608695652173913 0 0  0.6608695652173913 0.008333333333333333 0  0.6691304347826087 0 0  0.6691304347826087 0.008333333333333333 0  0.677391304347826 0 0  0.677391304347826 0.008333333333333333 0  0.6856521739130435 0 0  0.6856521739130435 0.008333333333333333 0  0.6939130434782609 0 0  0.6939130434782609 0.008333333333333333 0  0.7021739130434783 0 0  0.7021739130434783 0.008333333333333333 0  0.7104347826086956 0 0  0.7104347826086956 0.008333333333333333 0  0.718695652173913 0 0  0.718695652173913 0.008333333333333333 0  0.3139130434782609 0.01666666666666667 0  0.3221739130434783 0.01666666666666667 0  0.3304347826086956 0.01666666666666667 0  0.338695652173913 0.01666666666666667 0  0.3469565217391304 0.01666666666666667 0  0.3552173913043478 0.01666666666666667 0  0.3634782608695652 0.01666666666666667 0  0.3717391304347826 0.01666666666666667 0  0.3799999999999999 0.01666666666666667 0  0.3882608695652174 0.01666666666666667 0  0.3965217391304348 0.01666666666666667 0  0.4047826086956521 0.01666666666666667 0  0.4130434782608696 0.01666666666666667 0  0.4213043478260869 0.01666666666666667 0  0.4295652173913043 0.01666666666666667 0  0.4378260869565217 0.01666666666666667 0  0.4460869565217391 0.01666666666666667 0  0.4543478260869565 0.01666666666666667 0  0.4626086956521739 0.01666666666666667 0  0.4708695652173913 0.01666666666666667 0  0.4791304347826086 0.01666666666666667 0  0.4873913043478261 0.01666666666666667 0  0.4956521739130435 0.01666666666666667 0  0.5039130434782608 0.01666666666666667 0  0.5121739130434783 0.01666666666666667 0  0.5204347826086956 0.01666666666666667 0  0.528695652173913 0.01666666666666667 0  0.5369565217391304 0.01666666666666667 0  0.5452173913043478 0.01666666666666667 0  0.5534782608695652 0.01666666666666667 0  0.5617391304347825 0.01666666666666667 0  0.57 0.01666666666666667 0  0.5782608695652174 0.01666666666666667 0  0.5865217391304348 0.01666666666666667 0  0.5947826086956521 0.01666666666666667 0  0.6030434782608696 0.01666666666666667 0  0.6113043478260869 0.01666666666666667 0  0.6195652173913043 0.01666666666666667 0  0.6278260869565218 0.01666666666666667 0  0.6360869565217391 0.01666666666666667 0  0.6443478260869565 0.01666666666666667 0  0.6526086956521739 0.01666666666666667 0  0.6608695652173913 0.01666666666666667 0  0.6691304347826087 0.01666666666666667 0  0.677391304347826 0.01666666666666667 0  0.6856521739130435 0.01666666666666667 0  0.6939130434782609 0.01666666666666667 0  0.7021739130434783 0.01666666666666667 0  0.7104347826086956 0.01666666666666667 0  0.718695652173913 0.01666666666666667 0  0.3304347826086956 0.025 0  0.338695652173913 0.025 0  0.3469565217391304 0.025 0  0.3552173913043478 0.025 0  0.3634782608695652 0.025 0  0.3717391304347826 0.025 0  0.3799999999999999 0.025 0  0.3882608695652174 0.025 0  0.3965217391304348 0.025 0  0.4047826086956521 0.025 0  0.4130434782608696 0.025 0  0.4213043478260869 0.025 0  0.4295652173913043 0.025 0  0.4378260869565217 0.025 0  0.4460869565217391 0.025 0  0.4543478260869565 0.025 0  0.4626086956521739 0.025 0  0.4708695652173913 0.025 0  0.4791304347826086 0.025 0  0.4873913043478261 0.025 0  0.4956521739130435 0.025 0  0.5039130434782608 0.025 0  0.5121739130434783 0.025 0  0.5204347826086956 0.025 0  0.528695652173913 0.025 0  0.5369565217391304 0.025 0  0.5452173913043478 0.025 0  0.5534782608695652 0.025 0  0.5617391304347825 0.025 0  0.57 0.025 0  0.5782608695652174 0.025 0  0.5865217391304348 0.025 0  0.5947826086956521 0.025 0  0.6030434782608696 0.025 0  0.6113043478260869 0.025 0  0.6195652173913043 0.025 0  0.6278260869565218 0.025 0  0.6360869565217391 0.025 0  0.6443478260869565 0.025 0  0.6526086956521739 0.025 0  0.6608695652173913 0.025 0  0.6691304347826087 0.025 0  0.677391304347826 0.025 0  0.6856521739130435 0.025 0  0.6939130434782609 0.025 0  0.7021739130434783 0.025 0  0.7104347826086956 0.025 0  0.718695652173913 0.025 0  0.7269565217391304 0.025 0  0.3469565217391304 0.03333333333333333 0  0.3552173913043478 0.03333333333333333 0  0.3634782608695652 0.03333333333333333 0  0.3717391304347826 0.03333333333333333 0  0.3799999999999999 0.03333333333333333 0  0.3882608695652174 0.03333333333333333 0  0.3965217391304348 0.03333333333333333 0  0.4047826086956521 0.03333333333333333 0  0.4130434782608696 0.03333333333333333 0  0.4213043478260869 0.03333333333333333 0  0.4295652173913043 0.03333333333333333 0  0.4378260869565217 0.03333333333333333 0  0.4460869565217391 0.03333333333333333 0  0.4543478260869565 0.03333333333333333 0  0.4626086956521739 0.03333333333333333 0  0.4708695652173913 0.03333333333333333 0  0.4791304347826086 0.03333333333333333 0  0.4873913043478261 0.03333333333333333 0  0.4956521739130435 0.03333333333333333 0  0.5039130434782608 0.03333333333333333 0  0.5121739130434783 0.03333333333333333 0  0.5204347826086956 0.03333333333333333 0  0.528695652173913 0.03333333333333333 0  0.5369565217391304 0.03333333333333333 0  0.5452173913043478 0.03333333333333333 0  0.5534782608695652 0.03333333333333333 0  0.5617391304347825 0.03333333333333333 0  0.57 0.03333333333333333 0  0.5782608695652174 0.03333333333333333 0  0.5865217391304348 0.03333333333333333 0  0.5947826086956521 0.03333333333333333 0  0.6030434782608696 0.03333333333333333 0  0.6113043478260869 0.03333333333333333 0  0.6195652173913043 0.03333333333333333 0  0.6278260869565218 0.03333333333333333 0  0.6360869565217391 0.03333333333333333 0  0.6443478260869565 0.03333333333333333 0  0.6526086956521739 0.03333333333333333 0  0.6608695652173913 0.03333333333333333 0  0.6691304347826087 0.03333333333333333 0  0.677391304347826 0.03333333333333333 0  0.6856521739130435 0.03333333333333333 0  0.6939130434782609 0.03333333333333333 0  0.7021739130434783 0.03333333333333333 0  0.7104347826086956 0.03333333333333333 0  0.718695652173913 0.03333333333333333 0  0.7269565217391304 0.03333333333333333 0  0.7352173913043478 0.03333333333333333 0  0.3634782608695652 0.04166666666666666 0  0.3717391304347826 0.04166666666666666 0  0.3799999999999999 0.04166666666666666 0  0.3882608695652174 0.04166666666666666 0  0.3965217391304348 0.04166666666666666 0  0.4047826086956521 0.04166666666666666 0  0.4130434782608696 0.04166666666666666 0  0.4213043478260869 0.04166666666666666 0  0.4295652173913043 0.04166666666666666 0  0.4378260869565217 0.04166666666666666 0  0.4460869565217391 0.04166666666666666 0  0.4543478260869565 0.04166666666666666 0  0.4626086956521739 0.04166666666666666 0  0.4708695652173913 0.04166666666666666 0  0.4791304347826086 0.04166666666666666 0  0.4873913043478261 0.04166666666666666 0  0.4956521739130435 0.04166666666666666 0  0.5039130434782608 0.04166666666666666 0  0.5121739130434783 0.04166666666666666 0  0.5204347826086956 0.04166666666666666 0  0.528695652173913 0.04166666666666666 0  0.5369565217391304 0.04166666666666666 0  0.5452173913043478 0.04166666666666666 0 
[...]
<CellData  Scalars="rho_bar"> 
<DataArray  type="Float64"  Name="rho_bar"  format="ascii">1.0000000000000000e+00   1.0000000000000000e+00   1.0000000000000000e+00   1.0000000000000000e+00   1.0000000000000000e+00   1.0000000000000000e+00   1.0000000000000000e+00   1.0000000000000000e+00   1.0000000000000000e+00   1.0000000000000000e+00   1.0000000000000000e+00   1.0000000000000000e+00   1.0000000000000000e+00   1.0000000000000000e+00   1.0000000000000000e+00   1.0000000000000000e+00   9.9999999999999989e-01   9.9999999999999989e-01   1.0000000000000000e+00   1.0000000000000000e+00   1.0000000000000000e+00   1.0000000000000000e+00   1.0000000000000000e+00   1.0000000000000000e+00   1.0000000000000000e+00   1.0000000000000000e+00   1.0000000000000000e+00   1.0000000000000000e+00   1.0000000000000000e+00   1.0000000000000000e+00   1.0000000000000000e+00   1.0000000000000000e+00   1.0000000000000000e+00   1.0000000000000000e+00   1.0000000000000000e+00   1.0000000000000000e+00   1.0000000000000000e+00   1.0000000000000000e+00   9.9999999999999956e-01   9.9999999999999967e-01   9.9999999999998013e-01   9.9999999999998324e-01   9.9999999999969158e-01   9.9999999999964628e-01   9.9999999999817357e-01   9.9999999999729783e-01   9.9999999999476741e-01   9.9999999999052158e-01   9.9999999999119171e-01   9.9999999998148981e-01   9.9999999998971956e-01   9.9999999997622158e-01   9.9999999999035016e-01   9.9999999997662681e-01   9.9999999999181588e-01   9.9999999997995981e-01   9.9999999999322864e-01   9.9999999998355693e-01   9.9999999999427525e-01   9.9999999998634903e-01   9.9999999999492561e-01   9.9999999998816969e-01   9.9999999999522804e-01   9.9999999998912947e-01   9.9999999999523737e-01   9.9999999998936984e-01   9.9999999999499400e-01   9.9999999998899924e-01   9.9999999999453604e-01   9.9999999998810263e-01   9.9999999999391120e-01   9.9999999998677669e-01   9.9999999999319367e-01   9.9999999998516687e-01   9.9999999999248357e-01   9.9999999998348610e-01   9.9999999999189226e-01   9.9999999998199207e-01   9.9999999999150646e-01   9.9999999998091682e-01   9.9999999999136024e-01   9.9999999998038924e-01   9.9999999999142886e-01   9.9999999998039624e-01   9.9999999999165012e-01   9.9999999998081490e-01   9.9999999999194666e-01   9.9999999998146849e-01   9.9999999999225375e-01   9.9999999998219136e-01   9.9999999999252343e-01   9.9999999998285805e-01   9.9999999999273081e-01   9.9999999998339295e-01   9.9999999999286304e-01   9.9999999998375944e-01   9.9999999999292066e-01   9.9999999998395139e-01   9.9999999999290501e-01   9.9999999998397315e-01   1.0000000000000000e+00   1.0000000000000000e+00   1.0000000000000000e+00   1.0000000000000000e+00   1.0000000000000000e+00   1.0000000000000000e+00   1.0000000000000000e+00   1.0000000000000000e+00   1.0000000000000000e+00   1.0000000000000000e+00   1.0000000000000000e+00   1.0000000000000000e+00   1.0000000000000000e+00   1.0000000000000000e+00   1.0000000000000000e+00   9.9999999999999989e-01   9.9999999999999989e-01   1.0000000000000000e+00   1.0000000000000000e+00   1.0000000000000000e+00   1.0000000000000000e+00   1.0000000000000000e+00   1.0000000000000000e+00   1.0000000000000000e+00   1.0000000000000000e+00   1.0000000000000000e+00   1.0000000000000000e+00   1.0000000000000000e+00   1.0000000000000000e+00   1.0000000000000000e+00   1.0000000000000000e+00   1.0000000000000000e+00   1.0000000000000000e+00   1.0000000000000000e+00   1.0000000000000000e+00   9.9999999999999845e-01   9.9999999999999822e-01   9.9999999999952660e-01   9.9999999999890299e-01   9.9999999997798206e-01   9.9999999991830846e-01   9.9999999973593379e-01   9.9999999866471123e-01   9.9999999875850032e-01   9.9999999217001978e-01   9.9999999715901311e-01   9.9999997839555532e-01   9.9999999613787149e-01   9.9999996641266586e-01   9.9999999632770131e-01   9.9999996533573809e-01   9.9999999706463327e-01   9.9999997193398615e-01   9.9999999775686343e-01   9.9999997910729288e-01   9.9999999825508901e-01   9.9999998431555681e-01   9.9999999857354183e-01   9.9999998764423681e-01   9.9999999875135270e-01   9.9999998957653591e-01   9.9999999882119361e-01   9.9999999048628196e-01   9.9999999880344081e-01   9.9999999060447076e-01   9.9999999871019096e-01   9.9999999005869011e-01   9.9999999855018895e-01   9.9999998892359787e-01   9.9999999833722686e-01   9.9999998728560935e-01   9.9999999809527851e-01   9.9999998530435952e-01   9.9999999786112215e-01   9.9999998325043515e-01   9.9999999767483694e-01   9.9999998146943514e-01   9.9999999756690672e-01   9.9999998027394910e-01   9.9999999754426849e-01   9.9999997981299249e-01   9.9999999759265368e-01   9.9999998002842361e-01   9.9999999768466974e-01   9.9999998071320140e-01   9.9999999779328697e-01   9.9999998162106296e-01   9.9999999789675187e-01   9.9999998254275613e-01   9.9999999798239680e-01   9.9999998334087581e-01   9.9999999804409145e-01   9.9999998394554490e-01   9.9999999808136353e-01   9.9999998433926773e-01   9.9999999809501261e-01   9.9999998452919026e-01   9.9999999808668383e-01   9.9999998452923433e-01   1.0000000000000000e+00   1.0000000000000000e+00   1.0000000000000000e+00   9.9999999999999989e-01   9.9999999999999989e-01   1.0000000000000000e+00   1.0000000000000000e+00   1.0000000000000000e+00   1.0000000000000000e+00   9.9999999999999989e-01   9.9999999999999989e-01   9.9999999999999989e-01   9.9999999999999989e-01   9.9999999999999989e-01   9.9999999999999989e-01   1.0000000000000000e+00   1.0000000000000000e+00   1.0000000000000000e+00   1.0000000000000000e+00   9.9999999999999989e-01   9.9999999999999989e-01   1.0000000000000000e+00   1.0000000000000000e+00   1.0000000000000000e+00   1.0000000000000000e+00   1.0000000000000000e+00   1.0000000000000000e+00   9.9999999999999989e-01   9.9999999999999989e-01   9.9999999999999134e-01   9.9999999999999456e-01   9.9999999980671317e-01   9.9999999964515407e-01   9.9999980493250995e-01   9.9999902233716476e-01   9.9998598534210936e-01   9.9984558873233753e-01   9.9984356464109958e-01   9.9701562285360246e-01   9.9947071979403013e-01   9.8608661598532932e-01   9.9915583174254330e-01   9.7393834296986470e-01   9.9918157164971089e-01   9.7224951174558516e-01   9.9946291629622652e-01   9.8016505605734250e-01   9.9967739305835579e-01   9.8864809095277117e-01   9.9979203436561237e-01   9.9333679059038427e-01   9.9985388944531628e-01   9.9563532655725462e-01   9.9988767120318633e-01   9.9682968522744975e-01   9.9990444376242449e-01   9.9744201921532105e-01   9.9990965420812794e-01   9.9769164506449115e-01   9.9990585639783702e-01   9.9767859152080829e-01   9.9989393103596258e-01   9.9744089914667977e-01   9.9987418284252350e-01   9.9698702344476575e-01   9.9984748390890343e-01   9.9632707027265310e-01   9.9981662315326347e-01   9.9551059303747924e-01   9.9978669006730136e-01   9.9465343370743098e-01   9.9976392190612329e-01   9.9392540531047091e-01   9.9975273962198596e-01   9.9348210047973240e-01   9.9975370510226880e-01   9.9338691845229055e-01   9.9976360029231492e-01   9.9358587164121992e-01   9.9977798410175611e-01   9.9395804500178409e-01   9.9979303110197215e-01   9.9438359197704163e-01   9.9980622709522571e-01   9.9477749483908007e-01   9.9981626854997385e-01   9.9509180915986561e-01   9.9982300216838216e-01   9.9531197788816050e-01   9.9982678073464470e-01   9.9544500168615457e-01   9.9982795560664706e-01   9.9550315695375668e-01   9.9982669326977325e-01   9.9549388993899290e-01   9.9542191793632384e-01   9.9999999999999989e-01   1.0000000000000000e+00   1.0000000000000000e+00   1.0000000000000000e+00   1.0000000000000000e+00   9.9999999999999989e-01   9.9999999999999989e-01   1.0000000000000000e+00   1.0000000000000000e+00   9.9999999999999989e-01   9.9999999999999989e-01   1.0000000000000000e+00   1.0000000000000000e+00   1.0000000000000000e+00   1.0000000000000000e+00   9.9999999999999989e-01   9.9999999999999989e-01   1.0000000000000000e+00   1.0000000000000000e+00   1.0000000000000000e+00   1.0000000000000000e+00   1.0000000000000000e+00   1.0000000000000000e+00   9.9999999999999989e-01   9.9999999999999989e-01   9.9999999975879605e-01   9.9999999991911592e-01   9.9996629330177522e-01   9.9996742211176670e-01   8.8972895740889724e-01   8.1754765601245749e-01   6.1917513175782757e-01   3.2727793307600284e-01   3.4659881751356397e-01   5.7517366139886415e-02   1.5147147633459304e-01   5.7348457210521691e-03   9.6242747826807487e-02   1.8378590569727567e-03   9.5303117815075944e-02   1.3224748090616321e-03   1.3053759392956493e-01   1.5911326069582752e-03   1.9375791143982207e-01   2.8157679230677302e-03   2.5882229573363080e-01   5.1955657667275461e-03   3.1190259429932360e-01   8.5316945421022496e-03   3.5175760436152803e-01   1.2467185190313545e-02   3.7711462688142849e-01   1.6192222055651184e-02   3.8722744823899136e-01   1.8502784223609705e-02   3.8315454934867876e-01   1.8650327478897628e-02   3.6756127081079348e-01   1.6867967829501240e-02   3.4411979914013729e-01   1.4059042517263401e-02   3.1708772894541193e-01   1.1165561618907313e-02   2.9074299557373001e-01   8.7675874896441606e-03   2.6875706356865636e-01   7.0594553326295819e-03   2.5359442885013606e-01   5.9986781890600440e-03   2.4618548326055192e-01   5.4681523570289286e-03   2.4596405699125723e-01   5.3505940976434994e-03   2.5123236961163414e-01   5.5483877932957964e-03   2.5982684775095333e-01   5.9701704219216056e-03   2.6973288214950869e-01   6.5316407985496578e-03   2.7921513979560791e-01   7.1440588280643662e-03   2.8697234789401593e-01   7.7107993166840487e-03   2.9244473020528378e-01   8.1520994319757272e-03   2.9571453868336817e-01   8.4421813000833765e-03   2.9697895259309443e-01   8.5865083638035061e-03   2.9636235854149623e-01   8.5913889811062485e-03   2.9399966746422662e-01   8.4623780581221022e-03   8.2193061137428771e-03   1.0000000000000000e+00   9.9999999999999989e-01   9.9999999999999989e-01   1.0000000000000000e+00   1.0000000000000000e+00   9.9999999999999989e-01   9.9999999999999989e-01   1.0000000000000000e+00   1.0000000000000000e+00   1.0000000000000000e+00   1.0000000000000000e+00   9.9999999999999989e-01   9.9999999999999989e-01   1.0000000000000000e+00   1.0000000000000000e+00   1.0000000000000000e+00   1.0000000000000000e+00   1.0000000000000000e+00   1.0000000000000000e+00   9.9999999999992273e-01   9.9999999999999101e-01   9.9999901327801943e-01   9.9999985581392958e-01   8.0992100072435547e-01   8.7518985675077265e-01   9.2790861476412592e-02   9.0185969980309991e-02   5.3795844072131630e-05   2.1586929419994034e-05   2.6855122261156456e-07   4.7829208908260292e-08   1.0292231659529231e-08   8.2478248305169655e-10   1.8950997160427363e-09   7.3384455919385986e-11   9.5413830540162304e-10   2.0901354721066429e-11   9.1843085914256051e-10   1.2180173536435744e-11   1.3232138533029549e-09   1.2311429653522053e-11   2.1419314932824571e-09   1.6231442116302713e-11   3.3522921198218345e-09   2.2544790108843426e-11   4.8068293604745333e-09   3.0460291696362177e-11   6.0579074071901813e-09   3.7964289119803617e-11   6.5321695460103984e-09   4.1462416833226718e-11   6.0490652672070171e-09   3.9120845451989794e-11   4.9446622814771270e-09   3.2400619224641033e-11   3.7138949693371615e-09   2.4398020640840436e-11   2.6831813807840868e-09   1.7425792290618840e-11   1.9560984776401114e-09   1.2365553025972529e-11   1.5029332870823235e-09   9.1173642709681709e-12   1.2557927753231721e-09   7.2420680563567422e-12   1.1559521950754712e-09   6.3229884291378832e-12   1.1639279262620759e-09   6.0742337086120796e-12   1.2514635254016564e-09   6.3100450790424621e-12   1.3936859999397200e-09   6.8816989144219552e-12   1.5673443098940254e-09   7.6564125410053910e-12   1.7462118973021747e-09   8.5131438935330087e-12   1.8990280274226263e-09   9.3011339371192500e-12   2.0047948208941810e-09   9.8760444267043113e-12   2.0636840847298998e-09   1.0200470098216858e-11   2.0822588098212687e-09   1.0320374184876375e-11   2.0625194977845021e-09   1.0256730649989739e-11   2.0067441597326763e-09   1.0016237839138853e-11   1.9218878063072728e-09   9.6214702871577629e-12   9.1218144149252128e-12   9.9999999999999978e-01   9.9999999999999989e-01   9.9999999999999989e-01   9.9999999999999978e-01   9.9999999999999978e-01   9.9999999999999967e-01   9.9999999999999967e-01   9.9999999999999967e-01   9.9999999999999967e-01   9.9999999999999978e-01   9.9999999999999978e-01   9.9999999999999967e-01   9.9999999999999967e-01   9.9999999999999967e-01   9.9999999999999967e-01   9.9999999999999967e-01   9.9999999999999967e-01   9.9999999999073397e-01   9.9999999999941325e-01   9.9967374642274298e-01   9.9997846501630394e-01   3.1452665377536254e-01   5.7000817974148699e-01   1.9500626916404046e-05   4.5671983742538266e-05   1.9369389240668036e-09   2.0182343296593071e-09   2.2310856865696378e-12   1.1214547808909476e-12   1.8605487521009910e-14   4.7647071473496299e-15   7.3089682454489459e-16   1.0177044392397265e-16   8.3266726846886728e-17   0.0000000000000000e+00   1.8503717077085941e-17   0.0000000000000000e+00   9.2518585385429707e-18   0.0000000000000000e+00   0.0000000000000000e+00   0.0000000000000000e+00   0.0000000000000000e+00   0.0000000000000000e+00   0.0000000000000000e+00   0.0000000000000000e+00   0.0000000000000000e+00   0.0000000000000000e+00   0.0000000000000000e+00   0.0000000000000000e+00   0.0000000000000000e+00   0.0000000000000000e+00   0.0000000000000000e+00   0.0000000000000000e+00   0.0000000000000000e+00   0.0000000000000000e+00   0.0000000000000000e+00   0.0000000000000000e+00   0.0000000000000000e+00   0.0000000000000000e+00   0.0000000000000000e+00   0.0000000000000000e+00   0.0000000000000000e+00   0.0000000000000000e+00   0.0000000000000000e+00   0.0000000000000000e+00   0.0000000000000000e+00   0.0000000000000000e+00   0.0000000000000000e+00   0.0000000000000000e+00   0.0000000000000000e+00   0.0000000000000000e+00   0.0000000000000000e+00   0.0000000000000000e+00   0.0000000000000000e+00   0.0000000000000000e+00   0.0000000000000000e+00   0.0000000000000000e+00   0.0000000000000000e+00   0.0000000000000000e+00   0.0000000000000000e+00   0.0000000000000000e+00   0.0000000000000000e+00   0.0000000000000000e+00   0.0000000000000000e+00   0.0000000000000000e+00   0.0000000000000000e+00   0.0000000000000000e+00   0.0000000000000000e+00   0.0000000000000000e+00   0.0000000000000000e+00   0.0000000000000000e+00   0.0000000000000000e+00   9.9999999999999911e-01   9.9999999999999989e-01   9.9999999999999933e-01   1.0000000000000000e+00   1.0000000000000000e+00   1.0000000000000000e+00   1.0000000000000000e+00   9.9999999999999989e-01   9.9999999999999989e-01   1.0000000000000000e+00   1.0000000000000000e+00   1.0000000000000000e+00   1.0000000000000000e+00   1.0000000000000000e+00   1.0000000000000000e+00   9.9999999986012267e-01   9.9999999999461986e-01   9.9141725592702745e-01   9.9974695722945517e-01   2.6521739146579265e-02   2.1181882278399905e-01   4.8561903711237989e-08   2.7925486705456437e-07   1.4638660654024229e-12   3.7012245120611924e-12   4.7184478546569153e-16   6.0137080500529316e-16   0.0000000000000000e+00   0.0000000000000000e+00   0.0000000000000000e+00   0.0000000000000000e+00   0.0000000000000000e+00   0.0000000000000000e+00   0.0000000000000000e+00   0.0000000000000000e+00   0.0000000000000000e+00   0.0000000000000000e+00   0.0000000000000000e+00   0.0000000000000000e+00   0.0000000000000000e+00   0.0000000000000000e+00   0.0000000000000000e+00   0.0000000000000000e+00   0.0000000000000000e+00   0.0000000000000000e+00   0.0000000000000000e+00   0.0000000000000000e+00   0.0000000000000000e+00   0.0000000000000000e+00   0.0000000000000000e+00   0.0000000000000000e+00   0.0000000000000000e+00   0.0000000000000000e+00   0.0000000000000000e+00   0.0000000000000000e+00   0.0000000000000000e+00   0.0000000000000000e+00   0.0000000000000000e+00   0.0000000000000000e+00   0.0000000000000000e+00   0.0000000000000000e+00   0.0000000000000000e+00   0.0000000000000000e+00   0.0000000000000000e+00   0.0000000000000000e+00   0.0000000000000000e+00   0.0000000000000000e+00   0.0000000000000000e+00   0.0000000000000000e+00   0.0000000000000000e+00   0.0000000000000000e+00   0.0000000000000000e+00   0.0000000000000000e+00   0.0000000000000000e+00   0.0000000000000000e+00   0.0000000000000000e+00   0.0000000000000000e+00   0.0000000000000000e+00   0.0000000000000000e+00   0.0000000000000000e+00   0.0000000000000000e+00   0.0000000000000000e+00   0.0000000000000000e+00   0.0000000000000000e+00   0.0000000000000000e+00   0.0000000000000000e+00   0.0000000000000000e+00   0.0000000000000000e+00   0.0000000000000000e+00   0.0000000000000000e+00   0.0000000000000000e+00   0.0000000000000000e+00   1.0000000000000000e+00   1.0000000000000000e+00   1.0000000000000000e+00   9.9999999999999989e-01   9.9999999999999989e-01   1.0000000000000000e+00   1.0000000000000000e+00   1.0000000000000000e+00   1.0000000000000000e+00   9.9999999999999978e-01   1.0000000000000000e+00   9.9999999967739184e-01   9.9999999999150457e-01   9.8011978067432415e-01   9.9977737333119221e-01   3.1306120909009396e-03   1.1808065232432087e-01   1.8048488722074059e-09   2.9867204191328746e-08   1.7578531223231643e-14   1.1485257189747244e-13   0.0000000000000000e+00   0.0000000000000000e+00   0.0000000000000000e+00   0.0000000000000000e+00   0.0000000000000000e+00   0.0000000000000000e+00   0.0000000000000000e+00   0.0000000000000000e+00   0.0000000000000000e+00   0.0000000000000000e+00   0.0000000000000000e+00   0.0000000000000000e+00   0.0000000000000000e+00   0.0000000000000000e+00   0.0000000000000000e+00   0.0000000000000000e+00   0.0000000000000000e+00   0.0000000000000000e+00   0.0000000000000000e+00   0.0000000000000000e+00   0.0000000000000000e+00   0.0000000000000000e+00   0.0000000000000000e+00   0.0000000000000000e+00   0.0000000000000000e+00   0.0000000000000000e+00   0.0000000000000000e+00   0.0000000000000000e+00   0.0000000000000000e+00   0.0000000000000000e+00   0.0000000000000000e+00   0.0000000000000000e+00   0.0000000000000000e+00   0.0000000000000000e+00   0.0000000000000000e+00   0.0000000000000000e+00   0.0000000000000000e+00   0.0000000000000000e+00   0.0000000000000000e+00   0.0000000000000000e+00   0.0000000000000000e+00   0.0000000000000000e+00   0.0000000000000000e+00   0.0000000000000000e+00   0.0000000000000000e+00   0.0000000000000000e+00   0.0000000000000000e+00   0.0000000000000000e+00   0.0000000000000000e+00   0.0000000000000000e+00   0.0000000000000000e+00   0.0000000000000000e+00   0.0000000000000000e+00   0.0000000000000000e+00   0.0000000000000000e+00   0.0000000000000000e+00   0.0000000000000000e+00   0.0000000000000000e+00   0.0000000000000000e+00   0.0000000000000000e+00   0.0000000000000000e+00   0.0000000000000000e+00   0.0000000000000000e+00   0.0000000000000000e+00   0.0000000000000000e+00   0.0000000000000000e+00   0.0000000000000000e+00   0.0000000000000000e+00   0.0000000000000000e+00   9.9999999999999989e-01   1.0000000000000000e+00   1.0000000000000000e+00   1.0000000000000000e+00   1.0000000000000000e+00   9.9999999999999911e-01   9.9999999999999978e-01   9.9999999982242704e-01   9.9999999999534628e-01   9.9491116766815768e-01   9.9997786396842148e-01   5.3359796491185283e-03   3.2726829943035296e-01   9.0614213354989193e-10   5.5493431914503212e-08   2.7663057030243485e-15   5.6575114963190273e-14   0.0000000000000000e+00   0.0000000000000000e+00   0.0000000000000000e+00   0.0000000000000000e+00   0.0000000000000000e+00   0.0000000000000000e+00   0.0000000000000000e+00   0.0000000000000000e+00   0.0000000000000000e+00   0.0000000000000000e+00   0.0000000000000000e+00   0.0000000000000000e+00   0.0000000000000000e+00   0.0000000000000000e+00   0.0000000000000000e+00   0.0000000000000000e+00   0.0000000000000000e+00   0.0000000000000000e+00   0.0000000000000000e+00   0.0000000000000000e+00   0.0000000000000000e+00   0.0000000000000000e+00   0.0000000000000000e+00   0.0000000000000000e+00   0.00000000