<?xml version="1.0"?>
<VTKFile type="UnstructuredGrid"  version="0.1"  >
<UnstructuredGrid>
<Piece  NumberOfPoints="2428" NumberOfCells="4656">
<Points>
<DataArray  type="Float64"  NumberOfComponents="3"  format="ascii">2.602173913043478 0 0  2.610434782608696 0 0  2.610434782608696 0.008333333333333333 0  2.618695652173913 0 0  2.618695652173913 0.008333333333333333 0  2.62695652173913 0 0  2.62695652173913 0.008333333333333333 0  2.635217391304348 0 0  2.635217391304348 0.008333333333333333 0  2.643478260869565 0 0  2.643478260869565 0.008333333333333333 0  2.651739130434783 0 0  2.651739130434783 0.008333333333333333 0  2.66 0 0  2.66 0.008333333333333333 0  2.668260869565217 0 0  2.668260869565217 0.008333333333333333 0  2.676521739130435 0 0  2.676521739130435 0.008333333333333333 0  2.684782608695652 0 0  2.684782608695652 0.008333333333333333 0  2.693043478260869 0 0  2.693043478260869 0.008333333333333333 0  2.701304347826087 0 0  2.701304347826087 0.008333333333333333 0  2.709565217391304 0 0  2.709565217391304 0.008333333333333333 0  2.717826086956522 0 0  2.717826086956522 0.008333333333333333 0  2.726086956521739 0 0  2.726086956521739 0.008333333333333333 0  2.734347826086956 0 0  2.734347826086956 0.008333333333333333 0  2.742608695652174 0 0  2.742608695652174 0.008333333333333333 0  2.750869565217391 0 0  2.750869565217391 0.008333333333333333 0  2.759130434782609 0 0  2.759130434782609 0.008333333333333333 0  2.767391304347826 0 0  2.767391304347826 0.008333333333333333 0  2.775652173913044 0 0  2.775652173913044 0.008333333333333333 0  2.783913043478261 0 0  2.783913043478261 0.008333333333333333 0  2.792173913043478 0 0  2.792173913043478 0.008333333333333333 0  2.800434782608696 0 0  2.800434782608696 0.008333333333333333 0  2.808695652173913 0 0  2.808695652173913 0.008333333333333333 0  2.81695652173913 0 0  2.81695652173913 0.008333333333333333 0  2.825217391304347 0 0  2.825217391304347 0.008333333333333333 0  2.833478260869565 0 0  2.833478260869565 0.008333333333333333 0  2.841739130434783 0 0  2.841739130434783 0.008333333333333333 0  2.85 0 0  2.85 0.008333333333333333 0  2.858260869565217 0 0  2.858260869565217 0.008333333333333333 0  2.866521739130435 0 0  2.866521739130435 0.008333333333333333 0  2.874782608695652 0 0  2.874782608695652 0.008333333333333333 0  2.88304347826087 0 0  2.88304347826087 0.008333333333333333 0  2.891304347826087 0 0  2.891304347826087 0.008333333333333333 0  2.899565217391304 0 0  2.899565217391304 0.008333333333333333 0  2.907826086956522 0 0  2.907826086956522 0.008333333333333333 0  2.916086956521739 0 0  2.916086956521739 0.008333333333333333 0  2.924347826086957 0 0  2.924347826086957 0.008333333333333333 0  2.932608695652174 0 0  2.932608695652174 0.008333333333333333 0  2.940869565217391 0 0  2.940869565217391 0.008333333333333333 0  2.618695652173913 0.01666666666666667 0  2.62695652173913 0.01666666666666667 0  2.635217391304348 0.01666666666666667 0  2.643478260869565 0.01666666666666667 0  2.651739130434783 0.01666666666666667 0  2.66 0.01666666666666667 0  2.668260869565217 0.01666666666666667 0  2.676521739130435 0.01666666666666667 0  2.684782608695652 0.01666666666666667 0  2.693043478260869 0.01666666666666667 0  2.701304347826087 0.01666666666666667 0  2.709565217391304 0.01666666666666667 0  2.717826086956522 0.01666666666666667 0  2.726086956521739 0.01666666666666667 0  2.734347826086956 0.01666666666666667 0  2.742608695652174 0.01666666666666667 0  2.750869565217391 0.01666666666666667 0  2.759130434782609 0.01666666666666667 0  2.767391304347826 0.01666666666666667 0  2.775652173913044 0.01666666666666667 0  2.783913043478261 0.01666666666666667 0  2.792173913043478 0.01666666666666667 0  2.800434782608696 0.01666666666666667 0  2.808695652173913 0.01666666666666667 0  2.81695652173913 0.01666666666666667 0  2.825217391304347 0.01666666666666667 0  2.833478260869565 0.01666666666666667 0  2.841739130434783 0.01666666666666667 0  2.85 0.01666666666666667 0  2.858260869565217 0.01666666666666667 0  2.866521739130435 0.01666666666666667 0  2.874782608695652 0.01666666666666667 0  2.88304347826087 0.01666666666666667 0  2.891304347826087 0.01666666666666667 0  2.899565217391304 0.01666666666666667 0  2.907826086956522 0.01666666666666667 0  2.916086956521739 0.01666666666666667 0  2.924347826086957 0.01666666666666667 0  2.932608695652174 0.01666666666666667 0  2.940869565217391 0.01666666666666667 0  2.949130434782608 0.01666666666666667 0  2.62695652173913 0.025 0  2.635217391304348 0.025 0  2.643478260869565 0.025 0  2.651739130434783 0.025 0  2.66 0.025 0  2.668260869565217 0.025 0  2.676521739130435 0.025 0  2.684782608695652 0.025 0  2.693043478260869 0.025 0  2.701304347826087 0.025 0  2.709565217391304 0.025 0  2.717826086956522 0.025 0  2.726086956521739 0.025 0  2.734347826086956 0.025 0  2.742608695652174 0.025 0  2.750869565217391 0.025 0  2.759130434782609 0.025 0  2.767391304347826 0.025 0  2.775652173913044 0.025 0  2.783913043478261 0.025 0  2.792173913043478 0.025 0  2.800434782608696 0.025 0  2.808695652173913 0.025 0  2.81695652173913 0.025 0  2.825217391304347 0.025 0  2.833478260869565 0.025 0  2.841739130434783 0.025 0  2.85 0.025 0  2.858260869565217 0.025 0  2.866521739130435 0.025 0  2.874782608695652 0.025 0  2.88304347826087 0.025 0  2.891304347826087 0.025 0  2.899565217391304 0.025 0  2.907826086956522 0.025 0  2.916086956521739 0.025 0  2.924347826086957 0.025 0  2.932608695652174 0.025 0  2.940869565217391 0.025 0  2.949130434782608 0.025 0  2.957391304347826 0.025 0  2.635217391304348 0.03333333333333333 0  2.643478260869565 0.03333333333333333 0  2.651739130434783 0.03333333333333333 0  2.66 0.03333333333333333 0  2.668260869565217 0.03333333333333333 0  2.676521739130435 0.03333333333333333 0  2.684782608695652 0.03333333333333333 0  2.693043478260869 0.03333333333333333 0  2.701304347826087 0.03333333333333333 0  2.709565217391304 0.03333333333333333 0  2.717826086956522 0.03333333333333333 0  2.726086956521739 0.03333333333333333 0  2.734347826086956 0.03333333333333333 0  2.742608695652174 0.03333333333333333 0  2.750869565217391 0.03333333333333333 0  2.759130434782609 0.03333333333333333 0  2.767391304347826 0.03333333333333333 0  2.775652173913044 0.03333333333333333 0  2.783913043478261 0.03333333333333333 0  2.792173913043478 0.03333333333333333 0  2.800434782608696 0.03333333333333333 0  2.808695652173913 0.03333333333333333 0  2.81695652173913 0.03333333333333333 0  2.825217391304347 0.03333333333333333 0  2.833478260869565 0.03333333333333333 0  2.841739130434783 0.03333333333333333 0  2.85 0.03333333333333333 0  2.858260869565217 0.03333333333333333 0  2.866521739130435 0.03333333333333333 0  2.874782608695652 0.03333333333333333 0  2.88304347826087 0.03333333333333333 0  2.891304347826087 0.03333333333333333 0  2.899565217391304 0.03333333333333333 0  2.907826086956522 0.03333333333333333 0  2.916086956521739 0.03333333333333333 0  2.924347826086957 0.03333333333333333 0  2.932608695652174 0.03333333333333333 0  2.940869565217391 0.03333333333333333 0  2.949130434782608 0.03333333333333333 0  2.957391304347826 0.03333333333333333 0  2.965652173913043 0.03333333333333333 0  2.643478260869565 0.04166666666666666 0  2.651739130434783 0.04166666666666666 0  2.66 0.04166666666666666 0  2.668260869565217 0.04166666666666666 0  2.676521739130435 0.04166666666666666 0  2.684782608695652 0.04166666666666666 0  2.693043478260869 0.04166666666666666 0  2.701304347826087 0.04166666666666666 0  2.709565217391304 0.04166666666666666 0  2.717826086956522 0.04166666666666666 0  2.726086956521739 0.04166666666666666 0  2.734347826086956 0.04166666666666666 0  2.742608695652174 0.04166666666666666 0  2.750869565217391 0.04166666666666666 0  2.759130434782609 0.04166666666666666 0  2.767391304347826 0.04166666666666666 0  2.775652173913044 0.04166666666666666 0  2.783913043478261 0.04166666666666666 0  2.792173913043478 0.04166666666666666 0  2.800434782608696 0.04166666666666666 0  2.808695652173913 0.04166666666666666 0  2.81695652173913 0.04166666666666666 0  2.825217391304347 0.04166666666666666 0  2.833478260869565 0.04166666666666666 0  2.841739130434783 0.04166666666666666 0  2.85 0.04166666666666666 0  2.858260869565217 0.04166666666666666 0  2.866521739130435 0.04166666666666666 0  2.874782608695652 0.04166666666666666 0  2.88304347826087 0.04166666666666666 0  2.891304347826087 0.04166666666666666 0  2.899565217391304 0.04166666666666666 0  2.907826086956522 0.04166666666666666 0  2.916086956521739 0.04166666666666666 0  2.924347826086957 0.04166666666666666 0  2.932608695652174 0.04166666666666666 0  2.940869565217391 0.04166666666666666 0  2.949130434782608 0.04166666666666666 0  2.957391304347826 0.04166666666666666 0  2.965652173913043 0.04166666666666666 0  2.973913043478261 0.04166666666666666 0  2.651739130434783 0.05 0  2.66 0.05 0  2.668260869565217 0.05 0  2.676521739130435 0.05 0  2.684782608695652 0.05 0  2.693043478260869 0.05 0  2.701304347826087 0.05 0  2.709565217391304 0.05 0  2.717826086956522 0.05 0  2.726086956521739 0.05 0  2.734347826086956 0.05 0  2.742608695652174 0.05 0  2.750869565217391 0.05 0  2.759130434782609 0.05 0  2.767391304347826 0.05 0  2.775652173913044 0.05 0  2.783913043478261 0.05 0  2.792173913043478 0.05 0  2.800434782608696 0.05 0  2.808695652173913 0.05 0  2.81695652173913 0.05 0  2.825217391304347 0.05 0  2.833478260869565 0.05 0  2.841739130434783 0.05 0  2.85 0.05 0  2.858260869565217 0.05 0  2.866521739130435 0.05 0  2.874782608695652 0.05 0  2.88304347826087 0.05 0  2.891304347826087 0.05 0  2.899565217391304 0.05 0  2.907826086956522 0.05 0  2.916086956521739 0.05 0  2.924347826086957 0.05 0  2.932608695652174 0.05 0  2.940869565217391 0.05 0  2.949130434782608 0.05 0  2.957391304347826 0.05 0  2.965652173913043 0.05 0  2.973913043478261 0.05 0  2.982173913043478 0.05 0  2.66 0.05833333333333333 0  2.668260869565217 0.05833333333333333 0  2.67652
[...]
<CellData  Scalars="sigma_m"> 
<DataArray  type="Float64"  Name="sigma_m"  format="ascii">2.0937105339411233e+07   1.9889754704030443e+07   8.1777923937841170e+06   1.9093526443094227e+07   7.9810218509993693e+06   1.8460131376613937e+07   7.9448036305084135e+06   1.7946715895332761e+07   8.0654902258127909e+06   1.7536912195051834e+07   8.3550049762707530e+06   1.7228881077688992e+07   8.8328461039036680e+06   1.7016512112180077e+07   9.5133741275997534e+06   1.6864809738799371e+07   1.0386401485718006e+07   1.6701831493394325e+07   1.1399709588423459e+07   1.6438221524729222e+07   1.2453257971582374e+07   1.6004664441367799e+07   1.3416350160058143e+07   1.5379463142200079e+07   1.4168368384001162e+07   1.4593426394906417e+07   1.4643583407523457e+07   1.3709536335040193e+07   1.4848789499613173e+07   1.2796425218596490e+07   1.4847170489327839e+07   1.1907157977522593e+07   1.4722425353457855e+07   1.1073030143327571e+07   1.4548766322317306e+07   1.0306298842614228e+07   1.4375969290247925e+07   9.6079254478772953e+06   1.4229267785888530e+07   8.9735113446402475e+06   1.4116175755399924e+07   8.3970670685962681e+06   1.4033839855160767e+07   7.8721618134140335e+06   1.3974250931082519e+07   7.3923596767829685e+06   1.3925827408570787e+07   6.9513079272857131e+06   1.3874332555118557e+07   6.5430698928705817e+06   1.3803435660943735e+07   6.1621352467945023e+06   1.3697330208957538e+07   5.8033114455442065e+06   1.3541607059202420e+07   5.4613485948307682e+06   1.3325007324563250e+07   5.1308442939290078e+06   1.3038538656187149e+07   4.8067534334082948e+06   1.2676347648476483e+07   4.4863790258621294e+06   1.2235587897534898e+07   4.1719655357499518e+06   1.1720750728606986e+07   3.8717992089860281e+06   1.1145995773087861e+07   3.5977620930947065e+06   1.0536549125471825e+07   3.3603390254576956e+06   9.9240106933120191e+06   3.1643899369432619e+06   9.3408651073905658e+06   3.0087407459523934e+06   8.8133113185673933e+06   2.8895265972956466e+06   8.3579854515146594e+06   2.8043814662914113e+06   7.9819005466450416e+06   2.7547353365909001e+06   7.6858582232415108e+06   3.7052178954589535e+06   4.0940070927699357e+06   7.1924721070874799e+06   4.5215800407579616e+06   6.6436128828510111e+06   4.9914813699825294e+06   5.8367475816715127e+06   5.5081554799250150e+06   4.8252614364872193e+06   6.0755870076440331e+06   3.7035262221484673e+06   6.6891959997148495e+06   2.6749805337590370e+06   7.3365830700307535e+06   2.0140629156760105e+06   8.0056681927906265e+06   1.8621473983851769e+06   8.6811263707209844e+06   2.0747865579704016e+06   9.3381679859331418e+06   2.4551370533514107e+06   9.9458772780069727e+06   2.9224224426080380e+06   1.0479086778526310e+07   3.4672667121727308e+06   1.0925439699303886e+07   4.1049010894638565e+06   1.1287222255467458e+07   4.8562406644460177e+06   1.1575729974284928e+07   5.7326979865008481e+06   1.1807110042709718e+07   6.7277548686118238e+06   1.1997431945871156e+07   7.8137439875338320e+06   1.2160082752158387e+07   8.9503566010869201e+06   1.2303885935021376e+07   1.0095238967121894e+07   1.2433488693674322e+07   1.1213711113983726e+07   1.2550146248648347e+07   1.2284855825056119e+07   1.2651999672876496e+07   1.3298632040578272e+07   1.2734019215813754e+07   1.4251050375606189e+07   1.2787892454814157e+07   1.5133920542914251e+07   1.2803677488355191e+07   1.5936371808139138e+07   1.2770761753255086e+07   1.6642325509925691e+07   1.2679684509453576e+07   1.7235413485258695e+07   1.2521994177012783e+07   1.7694002393019058e+07   1.2291169145492539e+07   1.7993018983460460e+07   1.1982310611789700e+07   1.8098636831507500e+07   1.1595587214045472e+07   1.7979830006287958e+07   1.1139136428805456e+07   1.7624171423124418e+07   1.0632457937453732e+07   1.7061510312455494e+07   1.0104283707409659e+07   1.6363807481687818e+07   9.5879630177105032e+06   1.5628623285813391e+07   9.1132109956946075e+06   1.4945738949830774e+07   8.7007916614193693e+06   1.4376273607363297e+07   8.3610885731315669e+06   1.3947900460604694e+07   8.0971337073922297e+06   1.3669246235560931e+07   1.3538100065819571e+07   4.0996265097414178e+05   4.2436169142689416e+05   1.5754908155020643e+04   3.6190144177320553e+05   1.3980602865268987e+04   2.6712701695186424e+05   1.0401437216992785e+04   1.8129256513000757e+05   6.9086934986158594e+03   1.2072810509216711e+05   4.4004898409127309e+03   8.3642632529647512e+04   2.8799994063991403e+03   6.2720596128479578e+04   2.0384969217302778e+03   5.1714062404786928e+04   1.5985114644219873e+03   4.6848387386268550e+04   1.3897076670802342e+03   4.6295706255225436e+04   1.3285098861829626e+03   4.9453691624304178e+04   1.3824974295091695e+03   5.6520891103866954e+04   1.5502916540760204e+03   6.8287832757589669e+04   1.8510363223168663e+03   8.5984946167571266e+04   2.3207245101835679e+03   1.1112642264885714e+05   3.0051637554841782e+03   1.4546518814281476e+05   3.9583470446861088e+03   1.9100716954910950e+05   5.2415136818014507e+03   2.5002484174301507e+05   6.9281173158877154e+03   3.2495891734600771e+05   9.0984446552098616e+03   4.1834741151431063e+05   1.1839592277188654e+04   5.3323651996398030e+05   1.5242524473908552e+04   6.7455826543124241e+05   1.9450979842043871e+04   8.5022912524382700e+05   2.4710697175811030e+04   1.0712051556976945e+06   3.1408639089233402e+04   1.3504030927924195e+06   4.0041881888905795e+04   1.7007845005396567e+06   5.1217055837876891e+04   2.1316841781171365e+06   6.5588866483015780e+04   2.6416076628703061e+06   8.3860451684619693e+04   3.2007901952516991e+06   1.0658996899940513e+05   3.7166984027710562e+06   1.3363143698779042e+05   4.0018927699301047e+06   1.6217331386556366e+05   3.8500921697718925e+06   1.8347165122334182e+05   3.3074178470695755e+06   1.8252716444027933e+05   2.8058148309783046e+06   1.5429615407113591e+05   2.7184744032682609e+06   1.3147484745845076e+05   2.9723091137812594e+06   1.5495358720382105e+05   3.3769588135372051e+06   2.0606664245582410e+05   3.8355470312742083e+06   2.6699342429463111e+05   4.2975654984090878e+06   3.3487176414218143e+05   4.0675613744943083e+05   2.2205829118755691e-01   1.6873317841322516e-01   1.7781065375256056e-03   1.0706516982256827e-01   1.1471087801116064e-03   6.1471334284858480e-02   6.4789790050280224e-04   3.4947322002503292e-02   3.5135202802327753e-04   2.1365238412409865e-02   2.0028187102966849e-04   1.4813403925349184e-02   1.2854372511215281e-04   1.1788128584201661e-02   9.5459781651485408e-05   1.0616705231447256e-02   8.1213984564308360e-05   1.0631368883959484e-02   7.7528605796060350e-05   1.1670312760981398e-02   8.1697700791162365e-05   1.3861770670885953e-02   9.3819133438348754e-05   1.7559583983340579e-02   1.1584566993083505e-04   2.3301646311279699e-02   1.5140418726530540e-04   3.1738935654179165e-02   2.0528029524056413e-04   4.3605812760934642e-02   2.8297695562081338e-04   5.9767376161039498e-02   3.9107144811301859e-04   8.1246259634316184e-02   5.3752449380098713e-04   1.0915783903730421e-01   7.3159424883827737e-04   1.4450545195446957e-01   9.8207838442740760e-04   1.8829185598391912e-01   1.2961934187467219e-03   2.4263486270155768e-01   1.6852154355150922e-03   3.1185450022552025e-01   2.1789933979693560e-03   4.0242181585591891e-01   2.8284730521343326e-03   5.2270185931463675e-01   3.7031634699779522e-03   6.8289987409077535e-01   4.8881401796168379e-03   8.9625307269406396e-01   6.4898898697028180e-03   1.1834507947415258e+00   8.6552871801543110e-03   1.5836481302899166e+00   1.1638362177681272e-02   2.1733224737602010e+00   1.5908265585611793e-02   3.0869086211223005e+00   2.2297779957711764e-02   4.5026903021349032e+00   3.2113203874821611e-02   6.5499677606988378e+00   4.7110466469928045e-02   9.2778362443009144e+00   6.9087264295806486e-02   1.2808298562785671e+01   9.9498588309102617e-02   1.7364048834196115e+01   1.3962794312691817e-01   2.3155114922400980e+01   1.9131561883014658e-01   3.0233950547022555e+01   2.5639382397282301e-01   3.8305652117151375e+01   3.3432809020191523e-01   4.6591152848822212e+01   4.2016778275388939e-01   5.0372309090679113e-01   0.0000000000000000e+00   0.0000000000000000e+00   0.0000000000000000e+00   0.0000000000000000e+00   0.0000000000000000e+00   0.0000000000000000e+00   0.0000000000000000e+00   0.0000000000000000e+00   0.0000000000000000e+00   0.0000000000000000e+00   0.0000000000000000e+00   0.0000000000000000e+00   0.0000000000000000e+00   0.0000000000000000e+00   0.0000000000000000e+00   0.0000000000000000e+00   0.0000000000000000e+00   0.0000000000000000e+00   0.0000000000000000e+00   0.0000000000000000e+00   0.0000000000000000e+00   0.0000000000000000e+00   0.0000000000000000e+00   0.0000000000000000e+00   0.0000000000000000e+00   0.0000000000000000e+00   0.0000000000000000e+00   0.0000000000000000e+00   0.0000000000000000e+00   0.0000000000000000e+00   0.0000000000000000e+00   0.0000000000000000e+00   0.0000000000000000e+00   0.0000000000000000e+00   0.0000000000000000e+00   0.0000000000000000e+00   0.0000000000000000e+00   0.0000000000000000e+00   0.0000000000000000e+00   0.0000000000000000e+00   0.0000000000000000e+00   0.0000000000000000e+00   0.0000000000000000e+00   0.0000000000000000e+00   0.0000000000000000e+00   0.0000000000000000e+00   0.0000000000000000e+00   0.0000000000000000e+00   0.0000000000000000e+00   0.0000000000000000e+00   0.0000000000000000e+00   0.0000000000000000e+00   0.0000000000000000e+00   0.0000000000000000e+00   0.0000000000000000e+00   0.0000000000000000e+00   0.0000000000000000e+00   0.0000000000000000e+00   0.0000000000000000e+00   6.0763902532374431e-09   0.0000000000000000e+00   1.2266109851140978e-08   0.0000000000000000e+00   1.2171152314421283e-08   0.0000000000000000e+00   2.3932260446877638e-08   0.0000000000000000e+00   2.9433196480534754e-08   0.0000000000000000e+00   4.0657172941889163e-08   0.0000000000000000e+00   6.3125913338459709e-08   0.0000000000000000e+00   9.6440773156085944e-08   0.0000000000000000e+00   1.1776587600791539e-07   0.0000000000000000e+00   1.4958020747054176e-07   0.0000000000000000e+00   0.0000000000000000e+00   0.0000000000000000e+00   0.0000000000000000e+00   0.0000000000000000e+00   0.0000000000000000e+00   0.0000000000000000e+00   0.0000000000000000e+00   0.0000000000000000e+00   0.0000000000000000e+00   0.0000000000000000e+00   0.0000000000000000e+00   0.0000000000000000e+00   0.0000000000000000e+00   0.0000000000000000e+00   0.0000000000000000e+00   0.0000000000000000e+00   0.0000000000000000e+00   0.0000000000000000e+00   0.0000000000000000e+00   0.0000000000000000e+00   0.0000000000000000e+00   0.0000000000000000e+00   0.0000000000000000e+00   0.0000000000000000e+00   0.0000000000000000e+00   0.0000000000000000e+00   0.0000000000000000e+00   0.0000000000000000e+00   0.0000000000000000e+00   0.0000000000000000e+00   0.0000000000000000e+00   0.0000000000000000e+00   0.0000000000000000e+00   0.0000000000000000e+00   0.0000000000000000e+00   0.0000000000000000e+00   0.0000000000000000e+00   0.0000000000000000e+00   0.0000000000000000e+00   0.0000000000000000e+00   0.0000000000000000e+00   0.0000000000000000e+00   0.0000000000000000e+00   0.0000000000000000e+00   0.0000000000000000e+00   0.0000000000000000e+00   0.0000000000000000e+00   0.0000000000000000e+00   0.0000000000000000e+00   0.0000000000000000e+00   0.0000000000000000e+00   0.0000000000000000e+00   0.0000000000000000e+00   0.0000000000000000e+00   0.0000000000000000e+00   0.0000000000000000e+00   0.0000000000000000e+00   0.0000000000000000e+00   0.0000000000000000e+00   0.0000000000000000e+00   0.0000000000000000e+00   0.0000000000000000e+00   0.0000000000000000e+00   0.0000000000000000e+00   0.0000000000000000e+00   0.0000000000000000e+00   0.0000000000000000e+00   0.0000000000000000e+00   0.0000000000000000e+00   0.0000000000000000e+00   0.0000000000000000e+00   0.0000000000000000e+00   0.0000000000000000e+00   0.0000000000000000e+00   0.0000000000000000e+00   0.0000000000000000e+00   0.0000000000000000e+00   0.0000000000000000e+00   0.0000000000000000e+00   0.0000000000000000e+00   0.0000000000000000e+00   0.0000000000000000e+00   0.0000000000000000e+00   0.0000000000000000e+00   0.0000000000000000e+00   0.0000000000000000e+00   0.0000000000000000e+00   0.0000000000000000e+00   0.0000000000000000e+00   0.0000000000000000e+00   0.0000000000000000e+00   0.0000000000000000e+00   0.0000000000000000e+00   0.0000000000000000e+00   0.0000000000000000e+00   0.0000000000000000e+00   0.0000000000000000e+00   0.0000000000000000e+00   0.0000000000000000e+00   0.0000000000000000e+00   0.0000000000000000e+00   0.0000000000000000e+00   0.0000000000000000e+00   0.0000000000000000e+00   0.0000000000000000e+00   0.0000000000000000e+00   0.0000000000000000e+00   0.0000000000000000e+00   0.0000000000000000e+00   0.0000000000000000e+00   0.0000000000000000e+00   0.0000000000000000e+00   0.0000000000000000e+00   0.0000000000000000e+00   0.0000000000000000e+00   0.0000000000000000e+00   0.0000000000000000e+00   0.0000000000000000e+00   0.0000000000000000e+00   0.0000000000000000e+00   0.0000000000000000e+00   0.0000000000000000e+00   0.0000000000000000e+00   0.0000000000000000e+00   0.0000000000000000e+00   0.0000000000000000e+00   0.0000000000000000e+00   0.0000000000000000e+00   0.0000000000000000e+00   0.0000000000000000e+00   0.0000000000000000e+00   0.0000000000000000e+00   0.0000000000000000e+00   0.0000000000000000e+00   0.0000000000000000e+00   0.0000000000000000e+00   0.0000000000000000e+00   0.0000000000000000e+00   0.0000000000000000e+00   0.0000000000000000e+00   0.0000000000000000e+00   0.0000000000000000e+00   0.0000000000000000e+00   0.0000000000000000e+00   0.0000000000000000e+00   0.0000000000000000e+00   0.0000000000000000e+00   0.0000000000000000e+00   0.0000000000000000e+00   0.0000000000000000e+00   0.0000000000000000e+00   0.0000000000000000e+00   0.0000000000000000e+00   0.0000000000000000e+00   0.0000000000000000e+00   0.0000000000000000e+00   0.0000000000000000e+00   0.0000000000000000e+00   0.0000000000000000e+00   0.0000000000000000e+00   0.0000000000000000e+00   0.0000000000000000e+00   0.0000000000000000e+00   0.0000000000000000e+00   0.0000000000000000e+00   0.0000000000000000e+00   0.0000000000000000e+00   0.0000000000000000e+00   0.0000000000000000e+00   0.0000000000000000e+00   0.0000000000000000e+00   0.0000000000000000e+00   0.0000000000000000e+00   0.0000000000000000e+00   0.0000000000000000e+00   0.0000000000000000e+00   0.0000000000000000e+00   0.0000000000000000e+00   0.0000000000000000e+00   0.0000000000000000e+00   0.0000000000000000e+00   0.0000000000000000e+00   0.0000000000000000e+00   0.0000000000000000e+00   0.0000000000000000e+00   0.0000000000000000e+00   0.0000000000000000e+00   0.0000000000000000e+00   0.0000000000000000e+00   0.0000000000000000e+00   0.0000000000000000e+00   0.0000000000000000e+00   0.0000000000000000e+00   0.0000000000000000e+00   0.0000000000000000e+00   0.0000000000000000e+00   0.0000000000000000e+00   0.0000000000000000e+00   0.0000000000000000e+00   0.0000000000000000e+00   0.0000000000000000e+00   0.0000000000000000e+00   0.0000000000000000e+00   0.0000000000000000e+00   0.0000000000000000e+00   0.0000000000000000e+00   0.0000000000000000e+00   0.0000000000000000e+00   0.0000000000000000e+00   0.0000000000000000e+00   0.0000000000000000e+00   0.0000000000000000e+00   0.0000000000000000e+00   0.0000000000000000e+00   0.0000000000000000e+00   0.0000000000000000e+00   0.0000000000000000e+00   0.0000000000000000e+00   0.0000000000000000e+00   0.0000000000000000e+00   0.0000000000000000e+00   0.0000000000000000e+00   0.0000000000000000e+00   0.0000000000000000e+00   0.0000000000000000e+00   0.0000000000000000e+00   0.0000000000000000e+00   0.0000000000000000e+00   0.0000000000000000e+00   0.0000000000000000e+00   0.0000000000000000e+00   0.0000000000000000e+00   0.0000000000000000e+00   0.0000000000000000e+00   0.0000000000000000e+00   0.0000000000000000e+00   0.0000000000000000e+00   0.0000000000000000e+00   0.0000000000000000e+00   0.0000000000000000e+00   0.0000000000000000e+00   0.0000000000000000e+00   0.0000000000000000e+00   0.0000000000000000e+00   0.0000000000000000e+00   0.0000000000000000e+00   0.0000000000000000e+00   0.0000000000000000e+00   0.0000000000000000e+00   0.0000000000000000e+00   0.0000000000000000e+00   0.0000000000000000e+00   0.0000000000000000e+00   0.0000000000000000e+00   0.0000000000000000e+00   0.0000000000000000e+00   0.0000000000000000e+00   0.0000000000000000e+00   0.0000000000000000e+00   0.0000000000000000e+00   0.0000000000000000e+00   0.0000000000000000e+00   0.0000000000000000e+00   0.0000000000000000e+00   0.0000000000000000e+00   0.0000000000000000e+00   0.0000000000000000e+00   0.0000000000000000e+00   0.0000000000000000e+00   0.0000000000000000e+00   0.0000000000000000e+00   0.0000000000000000e+00   0.0000000000000000e+00   0.0000000000000000e+00   0.0000000000000000e+00   0.0000000000000000e+00   0.0000000000000000e+00   0.0000000000000000e+00   0.0000000000000000e+00   0.0000000000000000e+00   0.0000000000000000e+00   0.0000000000000000e+00   0.0000000000000000e+00   0.0000000000000000e+00   0.0000000000000000e+00   0.0000000000000000e+00   0.0000000000000000e+00   0.0000000000000000e+00   0.0000000000000000e+00   0.0000000000000000e+00   0.0000000000000000e+00   0.0000000000000000e+00   0.0000000000000000e+00   0.0000000000000000e+00   0.0000000000000000e+00   0.0000000000000000e+00   0.0000000000000000e+00   0.0000000000000000e+00   0.0000000000000000e+00   0.0000000000000000e+00   0.0000000000000000e+00   0.0000000000000000e+00   0.0000000000000000e+00   0.0000000000000000e+00   0.0000000000000000e+00   0.0000000000000000e+00   0.0000000000000000e+00   0.0000000000000000e+00   0.0000000000000000e+00   0.0000000000000000e+00   0.0000000000000000e+00   0.0000000000000000e+00   0.0000000000000000e+00   0.0000000000000000e+00   0.0000000000000000e+00   0.0000000000000000e+00   0.0000000000000000e+00   0.0000000000000000e+00   0.0000000000000000e+00   0.0000000000000000e+00   0.0000000000000000e+00   0.0000000000000000e+00   0.0000000000000000e+00   0.0000000000000000e+00   0.0000000000000000e+00   0.0000000000000000e+00   0.0000000000000000e+00   0.0000000000000000e+00   0.0000000000000000e+00   0.0000000000000000e+00   0.0000000000000000e+00   0.0000000000000000e+00   0.0000000000000000e+00   0.0000000000000000e+00   0.0000000000000000e+00   0.0000000000000000e+00   0.0000000000000000e+00   0.0000000000000000e+00   0.0000000000000000e+00   0.0000000000000000e+00   0.0000000000000000e+00   0.0000000000000000e+00   0.0000000000000000e+00   0.0000000000000000e+00   0.0000000000000000e+00   0.0000000000000000e+00   0.0000000000000000e+00   0.0000000000000000e+00   0.0000000000000000e+00   0.0000000000000000e+00   0.0000000000000000e+00   0.0000000000000000e+00   0.0000000000000000e+00   0.0000000000000000e+00   0.0000000000000000e+00   0.0000000000000000e+00   0.0000000000000000e+00   0.0000000000000000e+00   0.0000000000000000e+00   0.0000000000000000e+00   0.0000000000000000e+00   0.0000000000000000e+00   0.0000000000000000e+00   0.0000000000000000e+00   0.0000000000000000e+00   0.0000000000000000e+00   0.0000000000000000e+00   0.0000000000000000e+00   0.0000000000000000e+00   0.0000000000000000e+00   0.0000000000000000e+00   0.0000000000000000e+00   0.0000000000000000e+00   0.0000000000000000e+00   0.0000000000000000e+00   0.0000000000000000e+00   0.0000000000000000e+00   0.0000000000000000e+00   0.0000000000000000e+00   0.0000000000000000e+00   0.0000000000000000e+00   0.0000000000000000e+00   0.0000000000000000e+00   0.0000000000000000e+00   0.0000000000000000e+00   0.0000000000000000e+00   0.0000000000000000e+00   0.0000000000000000e+00   0.0000000000000000e+00   0.0000000000000000e+00   0.0000000000000000e+00   0.0000000000000000e+00   0.0000000000000000e+00   0.0000000000000000e+00   0.0000000000000000e+00   0.0000000000000000e+00   0.00000000