<?xml version="1.0"?>
<VTKFile type="UnstructuredGrid"  version="0.1"  >
<UnstructuredGrid>
<Piece  NumberOfPoints="2401" NumberOfCells="4583">
<Points>
<DataArray  type="Float64"  NumberOfComponents="3"  format="ascii">0.6939130434782609 0 0  0.7021739130434783 0 0  0.7021739130434783 0.008333333333333333 0  0.6939130434782609 0.008333333333333333 0  0.7104347826086956 0 0  0.7104347826086956 0.008333333333333333 0  0.718695652173913 0 0  0.718695652173913 0.008333333333333333 0  0.7269565217391304 0 0  0.7269565217391304 0.008333333333333333 0  0.7352173913043478 0 0  0.7352173913043478 0.008333333333333333 0  0.7434782608695653 0 0  0.7434782608695653 0.008333333333333333 0  0.7517391304347827 0 0  0.7517391304347827 0.008333333333333333 0  0.7599999999999999 0 0  0.7599999999999999 0.008333333333333333 0  0.7682608695652173 0 0  0.7682608695652173 0.008333333333333333 0  0.7765217391304348 0 0  0.7765217391304348 0.008333333333333333 0  0.7847826086956522 0 0  0.7847826086956522 0.008333333333333333 0  0.7930434782608695 0 0  0.7930434782608695 0.008333333333333333 0  0.8013043478260868 0 0  0.8013043478260868 0.008333333333333333 0  0.8095652173913043 0 0  0.8095652173913043 0.008333333333333333 0  0.8178260869565217 0 0  0.8178260869565217 0.008333333333333333 0  0.8260869565217391 0 0  0.8260869565217391 0.008333333333333333 0  0.8343478260869565 0 0  0.8343478260869565 0.008333333333333333 0  0.8426086956521739 0 0  0.8426086956521739 0.008333333333333333 0  0.8508695652173912 0 0  0.8508695652173912 0.008333333333333333 0  0.8591304347826086 0 0  0.8591304347826086 0.008333333333333333 0  0.8673913043478261 0 0  0.8673913043478261 0.008333333333333333 0  0.8756521739130434 0 0  0.8756521739130434 0.008333333333333333 0  0.8839130434782608 0 0  0.8839130434782608 0.008333333333333333 0  0.8921739130434783 0 0  0.8921739130434783 0.008333333333333333 0  0.9004347826086956 0 0  0.9004347826086956 0.008333333333333333 0  0.908695652173913 0 0  0.908695652173913 0.008333333333333333 0  0.9169565217391303 0 0  0.9169565217391303 0.008333333333333333 0  0.9252173913043478 0 0  0.9252173913043478 0.008333333333333333 0  0.9334782608695652 0 0  0.9334782608695652 0.008333333333333333 0  0.9417391304347826 0 0  0.9417391304347826 0.008333333333333333 0  0.95 0 0  0.95 0.008333333333333333 0  0.9582608695652173 0 0  0.9582608695652173 0.008333333333333333 0  0.9665217391304347 0 0  0.9665217391304347 0.008333333333333333 0  0.9747826086956521 0 0  0.9747826086956521 0.008333333333333333 0  0.9830434782608696 0 0  0.9830434782608696 0.008333333333333333 0  0.991304347826087 0 0  0.991304347826087 0.008333333333333333 0  0.9995652173913042 0 0  0.9995652173913042 0.008333333333333333 0  1.007826086956522 0 0  1.007826086956522 0.008333333333333333 0  1.016086956521739 0 0  1.016086956521739 0.008333333333333333 0  1.024347826086957 0 0  1.024347826086957 0.008333333333333333 0  1.032608695652174 0 0  1.032608695652174 0.008333333333333333 0  1.040869565217391 0 0  1.040869565217391 0.008333333333333333 0  1.049130434782609 0 0  1.049130434782609 0.008333333333333333 0  1.057391304347826 0 0  1.057391304347826 0.008333333333333333 0  1.065652173913043 0 0  1.065652173913043 0.008333333333333333 0  1.073913043478261 0 0  1.073913043478261 0.008333333333333333 0  1.082173913043478 0 0  1.082173913043478 0.008333333333333333 0  1.090434782608696 0 0  1.090434782608696 0.008333333333333333 0  1.098695652173913 0 0  1.098695652173913 0.008333333333333333 0  1.10695652173913 0 0  1.10695652173913 0.008333333333333333 0  1.115217391304348 0 0  1.115217391304348 0.008333333333333333 0  1.123478260869565 0 0  1.123478260869565 0.008333333333333333 0  1.131739130434783 0 0  1.131739130434783 0.008333333333333333 0  1.14 0 0  1.14 0.008333333333333333 0  1.148260869565217 0 0  1.148260869565217 0.008333333333333333 0  1.156521739130435 0 0  1.156521739130435 0.008333333333333333 0  1.164782608695652 0 0  1.164782608695652 0.008333333333333333 0  1.17304347826087 0 0  1.17304347826087 0.008333333333333333 0  1.181304347826087 0 0  1.181304347826087 0.008333333333333333 0  1.189565217391304 0 0  1.189565217391304 0.008333333333333333 0  1.197826086956522 0 0  1.197826086956522 0.008333333333333333 0  1.206086956521739 0 0  1.206086956521739 0.008333333333333333 0  1.214347826086956 0 0  1.214347826086956 0.008333333333333333 0  1.222608695652174 0 0  1.222608695652174 0.008333333333333333 0  1.230869565217391 0 0  1.230869565217391 0.008333333333333333 0  1.239130434782609 0 0  1.239130434782609 0.008333333333333333 0  1.247391304347826 0 0  1.247391304347826 0.008333333333333333 0  1.255652173913044 0 0  1.255652173913044 0.008333333333333333 0  1.263913043478261 0 0  1.263913043478261 0.008333333333333333 0  1.272173913043478 0 0  1.272173913043478 0.008333333333333333 0  1.280434782608696 0 0  1.280434782608696 0.008333333333333333 0  1.288695652173913 0 0  1.288695652173913 0.008333333333333333 0  1.296956521739131 0 0  1.296956521739131 0.008333333333333333 0  1.305217391304348 0 0  1.305217391304348 0.008333333333333333 0  1.313478260869565 0 0  1.313478260869565 0.008333333333333333 0  1.321739130434783 0 0  1.321739130434783 0.008333333333333333 0  1.33 0 0  1.33 0.008333333333333333 0  1.338260869565217 0 0  1.338260869565217 0.008333333333333333 0  0.7021739130434783 0.01666666666666667 0  0.6939130434782609 0.01666666666666667 0  0.7104347826086956 0.01666666666666667 0  0.718695652173913 0.01666666666666667 0  0.7269565217391304 0.01666666666666667 0  0.7352173913043478 0.01666666666666667 0  0.7434782608695653 0.01666666666666667 0  0.7517391304347827 0.01666666666666667 0  0.7599999999999999 0.01666666666666667 0  0.7682608695652173 0.01666666666666667 0  0.7765217391304348 0.01666666666666667 0  0.7847826086956522 0.01666666666666667 0  0.7930434782608695 0.01666666666666667 0  0.8013043478260868 0.01666666666666667 0  0.8095652173913043 0.01666666666666667 0  0.8178260869565217 0.01666666666666667 0  0.8260869565217391 0.01666666666666667 0  0.8343478260869565 0.01666666666666667 0  0.8426086956521739 0.01666666666666667 0  0.8508695652173912 0.01666666666666667 0  0.8591304347826086 0.01666666666666667 0  0.8673913043478261 0.01666666666666667 0  0.8756521739130434 0.01666666666666667 0  0.8839130434782608 0.01666666666666667 0  0.8921739130434783 0.01666666666666667 0  0.9004347826086956 0.01666666666666667 0  0.908695652173913 0.01666666666666667 0  0.9169565217391303 0.01666666666666667 0  0.9252173913043478 0.01666666666666667 0  0.9334782608695652 0.01666666666666667 0  0.9417391304347826 0.01666666666666667 0  0.95 0.01666666666666667 0  0.9582608695652173 0.01666666666666667 0  0.9665217391304347 0.01666666666666667 0  0.9747826086956521 0.01666666666666667 0  0.9830434782608696 0.01666666666666667 0  0.991304347826087 0.01666666666666667 0  0.9995652173913042 0.01666666666666667 0  1.007826086956522 0.01666666666666667 0  1.016086956521739 0.01666666666666667 0  1.024347826086957 0.01666666666666667 0  1.032608695652174 0.01666666666666667 0  1.040869565217391 0.01666666666666667 0  1.049130434782609 0.01666666666666667 0  1.057391304347826 0.01666666666666667 0  1.065652173913043 0.01666666666666667 0  1.073913043478261 0.01666666666666667 0  1.082173913043478 0.01666666666666667 0  1.090434782608696 0.01666666666666667 0  1.098695652173913 0.01666666666666667 0  1.10695652173913 0.01666666666666667 0  1.115217391304348 0.01666666666666667 0  1.123478260869565 0.01666666666666667 0  1.131739130434783 0.01666666666666667 0  1.14 0.01666666666666667 0  1.148260869565217 0.01666666666666667 0  1.156521739130435 0.01666666666666667 0  1.164782608695652 0.01666666666666667 0  1.17304347826087 0.01666666666666667 0  1.181304347826087 0.01666666666666667 0  1.189565217391304 0.01666666666666667 0  1.197826086956522 0.01666666666666667 0  1.206086956521739 0.01666666666666667 0  1.214347826086956 0.01666666666666667 0  1.222608695652174 0.01666666666666667 0  1.230869565217391 0.01666666666666667 0  1.239130434782609 0.01666666666666667 0  1.247391304347826 0.01666666666666667 0  1.255652173913044 0.01666666666666667 0  1.263913043478261 0.01666666666666667 0  1.272173913043478 0.01666666666666667 0  1.280434782608696 0.01666666666666667 0  1.288695652173913 0.01666666666666667 0  1.296956521739131 0.01666666666666667 0  1.305217391304348 0.01666666666666667 0  1.313478260869565 0.01666666666666667 0  1.321739130434783 0.01666666666666667 0  1.33 0.01666666666666667 0  1.338260869565217 0.01666666666666667 0  1.346521739130435 0.01666666666666667 0  0.7021739130434783 0.025 0  0.7104347826086956 0.025 0  0.718695652173913 0.025 0  0.7269565217391304 0.025 0  0.7352173913043478 0.025 0  0.7434782608695653 0.025 0  0.7517391304347827 0.025 0  0.7599999999999999 0.025 0  0.7682608695652173 0.025 0  0.7765217391304348 0.025 0  0.7847826086956522 0.025 0  0.7930434782608695 0.025 0  0.8013043478260868 0.025 0  0.8095652173913043 0.025 0  0.8178260869565217 0.025 0  0.8260869565217391 0.025 0  0.8343478260869565 0.025 0  0.8426086956521739 0.025 0  0.8508695652173912 0.025 0  0.8591304347826086 0.025 0  0.8673913043478261 0.025 0  0.8756521739130434 0.025 0  0.8839130434782608 0.025 0  0.8921739130434783 0.025 0  0.9004347826086956 0.025 0  0.908695652173913 0.025 0  0.9169565217391303 0.025 0  0.9252173913043478 0.025 0  0.9334782608695652 0.025 0  0.9417391304347826 0.025 0  0.95 0.025 0  0.9582608695652173 0.025 0  0.9665217391304347 0.025 0  0.9747826086956521 0.025 0  0.9830434782608696 0.025 0  0.991304347826087 0.025 0  0.9995652173913042 0.025 0  1.007826086956522 0.025 0  1.016086956521739 0.025 0  1.024347826086957 0.025 0  1.032608695652174 0.025 0  1.040869565217391 0.025 0  1.049130434782609 0.025 0  1.057391304347826 0.025 0  1.065652173913043 0.025 0  1.073913043478261 0.025 0  1.082173913043478 0.025 0  1.090434782608696 0.025 0  1.098695652173913 0.025 0  1.10695652173913 0.025 0  1.115217391304348
[...]
<PointData  Vectors="Displacement"> 
<DataArray  type="Float64"  Name="Displacement"  NumberOfComponents="3" format="ascii">1.3539124350939982e+00 4.4278766766743982e-01 0.0000000000000000e+00  1.3539142779024034e+00 4.8644274193501558e-01 0.0000000000000000e+00  1.3098759487828886e+00 4.8644186476422768e-01 0.0000000000000000e+00  1.3098743455341950e+00 4.4278684852439998e-01 0.0000000000000000e+00  1.3539162554440400e+00 5.3009808364660260e-01 0.0000000000000000e+00  1.3098776435407129e+00 5.3009714616313597e-01 0.0000000000000000e+00  1.3539183538867838e+00 5.7375376363620467e-01 0.0000000000000000e+00  1.3098794264185907e+00 5.7375276921308915e-01 0.0000000000000000e+00  1.3539205300049413e+00 6.1740985533873560e-01 0.0000000000000000e+00  1.3098812819958103e+00 6.1740882012772991e-01 0.0000000000000000e+00  1.3539226930748200e+00 6.6106641389370191e-01 0.0000000000000000e+00  1.3098831713199690e+00 6.6106537789119801e-01 0.0000000000000000e+00  1.3539246875329405e+00 7.0472343458241049e-01 0.0000000000000000e+00  1.3098850156491921e+00 7.0472247674514199e-01 0.0000000000000000e+00  1.3539262869390938e+00 7.4838079159510007e-01 0.0000000000000000e+00  1.3098866724338067e+00 7.4838004773891675e-01 0.0000000000000000e+00  1.3539272536466533e+00 7.9203814821021012e-01 0.0000000000000000e+00  1.3098879218421677e+00 7.9203778668193237e-01 0.0000000000000000e+00  1.3539275702401699e+00 8.3569509715202739e-01 0.0000000000000000e+00  1.3098884917523652e+00 8.3569508967224049e-01 0.0000000000000000e+00  1.3539276060097925e+00 8.7935141356298463e-01 0.0000000000000000e+00  1.3098885317808222e+00 8.7935144385405106e-01 0.0000000000000000e+00  1.3570805732316360e+00 9.2464000896972953e-01 0.0000000000000000e+00  1.3119463893156234e+00 9.2334458570931865e-01 0.0000000000000000e+00  1.3602901387225146e+00 9.6927053116230499e-01 0.0000000000000000e+00  1.3146239361270795e+00 9.6775046563075517e-01 0.0000000000000000e+00  1.3638770252517209e+00 1.0142484976504635e+00 0.0000000000000000e+00  1.3176443485138465e+00 1.0125344921224504e+00 0.0000000000000000e+00  1.3675414041764664e+00 1.0598212651799828e+00 0.0000000000000000e+00  1.3208724769509783e+00 1.0583801037544971e+00 0.0000000000000000e+00  1.3717488436028378e+00 1.1054391487923265e+00 0.0000000000000000e+00  1.3236977695338807e+00 1.1037179966812540e+00 0.0000000000000000e+00  1.3775747474484452e+00 1.1535079842105038e+00 0.0000000000000000e+00  1.3266336106799514e+00 1.1501361835285682e+00 0.0000000000000000e+00  1.3838657116793049e+00 1.2051073904482259e+00 0.0000000000000000e+00  1.3326743663407741e+00 1.2015584960338133e+00 0.0000000000000000e+00  1.3905494591514793e+00 1.2566006325783265e+00 0.0000000000000000e+00  1.3402595488761266e+00 1.2519767094291776e+00 0.0000000000000000e+00  1.3941442988321209e+00 1.3034936117052458e+00 0.0000000000000000e+00  1.3509326870659599e+00 1.3034935905450200e+00 0.0000000000000000e+00  1.3936974241422500e+00 1.3463294898493230e+00 0.0000000000000000e+00  1.3509327279373813e+00 1.3463294611771219e+00 0.0000000000000000e+00  1.3912540763002041e+00 1.3887223232150019e+00 0.0000000000000000e+00  1.3509327850628821e+00 1.3887222979528888e+00 0.0000000000000000e+00  1.3877952199431218e+00 1.4256814301420100e+00 0.0000000000000000e+00  1.3509328393919122e+00 1.4286929650356825e+00 0.0000000000000000e+00  1.3877952267022953e+00 1.4554073967840440e+00 0.0000000000000000e+00  1.3578084762237019e+00 1.4554073837155550e+00 0.0000000000000000e+00  1.3959534427392890e+00 1.4916419200334732e+00 0.0000000000000000e+00  1.3611357288503381e+00 1.4889374069169856e+00 0.0000000000000000e+00  1.4024670518845470e+00 1.5271792284834869e+00 0.0000000000000000e+00  1.3653901340574897e+00 1.5257655639567287e+00 0.0000000000000000e+00  1.4082765693634887e+00 1.5683660887860706e+00 0.0000000000000000e+00  1.3648843671958488e+00 1.5668110325767408e+00 0.0000000000000000e+00  1.4155921480173488e+00 1.6097800679008920e+00 0.0000000000000000e+00  1.3675907957042135e+00 1.6073550189868759e+00 0.0000000000000000e+00  1.4264794799550089e+00 1.6548990782020656e+00 0.0000000000000000e+00  1.3716360628612749e+00 1.6505817652093417e+00 0.0000000000000000e+00  1.4454036607668350e+00 1.7101592607141705e+00 0.0000000000000000e+00  1.3788761877622353e+00 1.6978184085639070e+00 0.0000000000000000e+00  1.4659030672278162e+00 1.7770586621898776e+00 0.0000000000000000e+00  1.4021498669671981e+00 1.7658995351063811e+00 0.0000000000000000e+00  1.4887820798763214e+00 1.8333373565119795e+00 0.0000000000000000e+00  1.4296882436337119e+00 1.8200562344885731e+00 0.0000000000000000e+00  1.5150691976220390e+00 1.8858986579788577e+00 0.0000000000000000e+00  1.4600846149867366e+00 1.8708394005961893e+00 0.0000000000000000e+00  1.5431164530581316e+00 1.9376429283209320e+00 0.0000000000000000e+00  1.4925592750782650e+00 1.9218048926446039e+00 0.0000000000000000e+00  1.5694080301300251e+00 1.9858170821703032e+00 0.0000000000000000e+00  1.5262885505385384e+00 1.9724599624328090e+00 0.0000000000000000e+00  1.5946050801251941e+00 2.0266880455618410e+00 0.0000000000000000e+00  1.5554937748025035e+00 2.0136013965035842e+00 0.0000000000000000e+00  1.6107858645340445e+00 2.0711543701975668e+00 0.0000000000000000e+00  1.5778992863290544e+00 2.0676052405319361e+00 0.0000000000000000e+00  1.6191786791691483e+00 2.1176904468657081e+00 0.0000000000000000e+00  1.5787925943111512e+00 2.1158963364688019e+00 0.0000000000000000e+00  1.6231862889927793e+00 2.1659436736563737e+00 0.0000000000000000e+00  1.5787933769164122e+00 2.1650726529484929e+00 0.0000000000000000e+00  1.6245762718793384e+00 2.2146101808294367e+00 0.0000000000000000e+00  1.5787932376211982e+00 2.2142495222595913e+00 0.0000000000000000e+00  1.6234536161033981e+00 2.2622844161118802e+00 0.0000000000000000e+00  1.5787926378568842e+00 2.2634261216629441e+00 0.0000000000000000e+00  1.6195451351162300e+00 2.3100330430134606e+00 0.0000000000000000e+00  1.5751460279395491e+00 2.3126021097712397e+00 0.0000000000000000e+00  1.6139002989075004e+00 2.3547595973881399e+00 0.0000000000000000e+00  1.5700176704524855e+00 2.3581630873273416e+00 0.0000000000000000e+00  1.6091800983837234e+00 2.3962039621824847e+00 0.0000000000000000e+00  1.5642220906922588e+00 2.3986401667210964e+00 0.0000000000000000e+00  1.6091676340833174e+00 2.4339023251122431e+00 0.0000000000000000e+00  1.5621457440904996e+00 2.4333719057127730e+00 0.0000000000000000e+00  1.6170482961508041e+00 2.4709682081508637e+00 0.0000000000000000e+00  1.5664594880506373e+00 2.4660452196505269e+00 0.0000000000000000e+00  1.6362904020311326e+00 2.5176477270968087e+00 0.0000000000000000e+00  1.5775821407740231e+00 2.5029946761031248e+00 0.0000000000000000e+00  1.6491734552614770e+00 2.5695486325094756e+00 0.0000000000000000e+00  1.6064004419024989e+00 2.5695485876975495e+00 0.0000000000000000e+00  1.6493389378956087e+00 2.6119497419238482e+00 0.0000000000000000e+00  1.6064005242321486e+00 2.6119497028719429e+00 0.0000000000000000e+00  1.6601032721918134e+00 2.6640237033532945e+00 0.0000000000000000e+00  1.6064006031830207e+00 2.6545147155093960e+00 0.0000000000000000e+00  1.6760268829358866e+00 2.7001371808417396e+00 0.0000000000000000e+00  1.6354468228452441e+00 2.6898706579081795e+00 0.0000000000000000e+00  1.6970826117114424e+00 2.7283090455611907e+00 0.0000000000000000e+00  1.6620950482316021e+00 2.7166026324205697e+00 0.0000000000000000e+00  1.7234248712814566e+00 2.7540730736304537e+00 0.0000000000000000e+00  1.6890808581150485e+00 2.7404670259359571e+00 0.0000000000000000e+00  1.7523013110003771e+00 2.7866727745578457e+00 0.0000000000000000e+00  1.7153155681902610e+00 2.7729483211834647e+00 0.0000000000000000e+00  1.7812975006146732e+00 2.8256996818457130e+00 0.0000000000000000e+00  1.7403730990291808e+00 2.8123919160374151e+00 0.0000000000000000e+00  1.8097239789142474e+00 2.8693765164878027e+00 0.0000000000000000e+00  1.7646604565638269e+00 2.8563061935039662e+00 0.0000000000000000e+00  1.8385254102723461e+00 2.9157212902809344e+00 0.0000000000000000e+00  1.7895002814686718e+00 2.9019135086190775e+00 0.0000000000000000e+00  1.8692681526551982e+00 2.9649607918892502e+00 0.0000000000000000e+00  1.8166341018338104e+00 2.9490773807670232e+00 0.0000000000000000e+00  1.9031086083284219e+00 3.0182917544885997e+00 0.0000000000000000e+00  1.8486437367202300e+00 2.9988269651366477e+00 0.0000000000000000e+00  1.9265858238894389e+00 3.0568958141424423e+00 0.0000000000000000e+00  1.8910543798520512e+00 3.0568957320385999e+00 0.0000000000000000e+00  1.9355219577777965e+00 3.0921183613277243e+00 0.0000000000000000e+00  1.8910545279818101e+00 3.0921182614275309e+00 0.0000000000000000e+00  1.9370250185189219e+00 3.1361991641735090e+00 0.0000000000000000e+00  1.8910547162806595e+00 3.1361990563311961e+00 0.0000000000000000e+00  1.9340142627563115e+00 3.1817697422972309e+00 0.0000000000000000e+00  1.8910549295011594e+00 3.1817696362464165e+00 0.0000000000000000e+00  1.9327145944128610e+00 3.2243553821441790e+00 0.0000000000000000e+00  1.8910551468366559e+00 3.2243554002940620e+00 0.0000000000000000e+00  1.9327133171602850e+00 3.2656525793199815e+00 0.0000000000000000e+00  1.8910551122758865e+00 3.2656525853538851e+00 0.0000000000000000e+00  1.9296975436559696e+00 3.3045138104273435e+00 0.0000000000000000e+00  1.8910550998453499e+00 3.3069485522358071e+00 0.0000000000000000e+00  1.9249366158410017e+00 3.3440605692294452e+00 0.0000000000000000e+00  1.8847233029519126e+00 3.3482439818031704e+00 0.0000000000000000e+00  1.9236334496303087e+00 3.3835010894264035e+00 0.0000000000000000e+00  1.8763448227800232e+00 3.3832620524233112e+00 0.0000000000000000e+00  1.9419337028095325e+00 3.4361432964504584e+00 0.0000000000000000e+00  1.8795341001536883e+00 3.4099737706035942e+00 0.0000000000000000e+00  1.9414274099685906e+00 3.4693930321797173e+00 0.0000000000000000e+00  1.9434595364616172e+00 3.4815048351067794e+00 0.0000000000000000e+00  1.9693493191205789e+00 3.4374792032005299e+00 0.0000000000000000e+00  1.9434597241465841e+00 3.4093390211405783e+00 0.0000000000000000e+00  2.0006076690365684e+00 3.4662841921445389e+00 0.0000000000000000e+00  1.9895935131025300e+00 3.4521428055419037e+00 0.0000000000000000e+00  2.0225400236447788e+00 3.4828202594021840e+00 0.0000000000000000e+00  2.0181973879220085e+00 3.4732938676038825e+00 0.0000000000000000e+00  2.0446096859720506e+00 3.4781245877423550e+00 0.0000000000000000e+00  2.0438165567040674e+00 3.4673141692271234e+00 0.0000000000000000e+00  2.0792074748127232e+00 3.4542107984027752e+00 0.0000000000000000e+00  2.0763252968457899e+00 3.4367272847593120e+00 0.0000000000000000e+00  2.1408165387638882e+00 3.4167357753720515e+00 0.0000000000000000e+00  2.1255374778753402e+00 3.3855546869072581e+00 0.0000000000000000e+00  2.2490079138954688e+00 3.3775491575438550e+00 0.0000000000000000e+00  2.2050862723543290e+00 3.3197645991774629e+00 0.0000000000000000e+00  2.3976419720844073e+00 3.3163313542363957e+00 0.0000000000000000e+00  2.3452878396338579e+00 3.2676227305250687e+00 0.0000000000000000e+00  2.6120382521116841e+00 3.0766326570503209e+00 0.0000000000000000e+00  2.5107039006323033e+00 3.0766325095109619e+00 0.0000000000000000e+00  1.2658374343885224e+00 4.8644109946956859e-01 0.0000000000000000e+00  1.2658360516128806e+00 4.4278613389574711e-01 0.0000000000000000e+00  1.2658388895954076e+00 5.3009631639184662e-01 0.0000000000000000e+00  1.2658404347379950e+00 5.7375185726978362e-01 0.0000000000000000e+00  1.2658420932561651e+00 6.1740781186550986e-01 0.0000000000000000e+00  1.2658438838460278e+00 6.6106427922893751e-01 0.0000000000000000e+00  1.2658457972197934e+00 7.0472134259287844e-01 0.0000000000000000e+00  1.2658477486772297e+00 7.4837903678225048e-01 0.0000000000000000e+00  1.2658495351045342e+00 7.9203719746476309e-01 0.0000000000000000e+00  1.2658507262622791e+00 8.3569531809917508e-01 0.0000000000000000e+00  1.2658505370910289e+00 8.7935186569779344e-01 0.0000000000000000e+00  1.2670337870388828e+00 9.2278467483137572e-01 0.0000000000000000e+00  1.2685692871574050e+00 9.6666130761614333e-01 0.0000000000000000e+00  1.2707175328179592e+00 1.0110048829227121e+00 0.0000000000000000e+00  1.2732940403162449e+00 1.0569507824045996e+00 0.0000000000000000e+00  1.2768724051265554e+00 1.1037179899239962e+00 0.0000000000000000e+00  1.2768724172180101e+00 1.1501361747638947e+00 0.0000000000000000e+00  1.2768724296162803e+00 1.1994646461808387e+00 0.0000000000000000e+00  1.2815309869194074e+00 1.2489925212209108e+00 0.0000000000000000e+00  1.2861927658514003e+00 1.2989245009013095e+00 0.0000000000000000e+00  1.2919551920274845e+00 1.3433048860352290e+00 0.0000000000000000e+00  1.3010130720766235e+00 1.3821610468286827e+00 0.0000000000000000e+00  1.3239842235981474e+00 1.4286929253637353e+00 0.0000000000000000e+00  1.3239843323222031e+00 1.4554072891445735e+00 0.0000000000000000e+00  1.3239844906572349e+00 1.4889373252515679e+00 0.0000000000000000e+00  1.3239846544724287e+00 1.5257655144080515e+00 0.0000000000000000e+00  1.3239847467796180e+00 1.5668109889802921e+00 0.0000000000000000e+00  1.3239848424548810e+00 1.6073549304557229e+00 0.0000000000000000e+00  1.3239850211999464e+00 1.6505816847015224e+00 0.0000000000000000e+00  1.3239851830244806e+00 1.6978183353806997e+00 0.0000000000000000e+00  1.3239853119427691e+00 1.7522319402696171e+00 0.0000000000000000e+00  1.3649653196945861e+00 1.8033917738602008e+00 0.0000000000000000e+00  1.4020049534480166e+00 1.8523648157959562e+00 0.0000000000000000e+00  1.4393187762352433e+00 1.9015761236866837e+00 0.0000000000000000e+00  1.4804984278376352e+00 1.9514268997077677e+00 0.0000000000000000e+00  1.5291846183649482e+00 2.0041184756191739e+00 0.0000000000000000e+00  1.5291847847333602e+00 2.0676051704215741e+00 0.0000000000000000e+00  1.5291849094142151e+00 2.1158962420390699e+00 0.0000000000000000e+00  1.5291851026903385e+00 2.1650725759808744e+00 0.0000000000000000e+00  1.5291852601632001e+00 2.2142494815416143e+00 0.0000000000000000e+00  1.5291853427680622e+00 2.2634260913685242e+00 0.0000000000000000e+00  1.5291854011111894e+00 2.3126020530532063e+00 0.0000000000000000e+00  1.5291855211961611e+00 2.3581630329368464e+00 0.0000000000000000e+00  1.5291856400853765e+00 2.3986401168290317e+00 0.0000000000000000e+00  1.5291857547617898e+00 2.4333718562489035e+00 0.0000000000000000e+00  1.5291858639825813e+00 2.4660451670100310e+00 0.0000000000000000e+00  1.5291859679255022e+00 2.5029946049874248e+00 0.0000000000000000e+00  1.5291860772707793e+00 2.5509698636594336e+00 0.0000000000000000e+00  1.5599049908773917e+00 2.6120923044452229e+00 0.0000000000000000e+00  1.5819612189118164e+00 2.6498253979418016e+00 0.0000000000000000e+00  1.6058469363057284e+00 2.6773856433198908e+00 0.0000000000000000e+00  1.6311821492821414e+00 2.7039565597106234e+00 0.0000000000000000e+00  1.6570389119941984e+00 2.7256015025717968e+00 0.0000000000000000e+00  1.6800652230507886e+00 2.7604612439248868e+00 0.0000000000000000e+00  1.6997012585476494e+00 2.8020359499160143e+00 0.0000000000000000e+00  1.7170185100572171e+00 2.8474454619545866e+00 0.0000000000000000e+00  1.7336524880435584e+00 2.8930598159557706e+00 0.0000000000000000e+00  1.7505186646505289e+00 2.9393583791620990e+00 0.0000000000000000e+00  1.7679865537345001e+00 2.9870894123658949e+00 0.0000000000000000e+00  1.7859924345084972e+00 3.0382762359299695e+00 0.0000000000000000e+00  1.8022316211648026e+00 3.0880206625725921e+00 0.0000000000000000e+00  1.8130467185111685e+00 3.1325071773830468e+00 0.0000000000000000e+00  1.8273171885751802e+00 3.1778358479738169e+00 0.0000000000000000e+00  1.8493966879651136e+00 3.2243553220115402e+00 0.0000000000000000e+00  1.8493968451243521e+00 3.2656522873451084e+00 0.0000000000000000e+00  1.8493974375008826e+00 3.3069482514877224e+00 0.0000000000000000e+00  1.8493980422108673e+00 3.3482436847464618e+00 0.0000000000000000e+00  1.8493986531310362e+00 3.3832617707470543e+00 0.0000000000000000e+00  1.8493992432698620e+00 3.4099735065722738e+00 0.0000000000000000e+00  1.8493997425017692e+00 3.4398459731016984e+00 0.0000000000000000e+00  2.0162586013713297e+00 3.4093388756146936e+00 0.0000000000000000e+00  2.0162592411975333e+00 3.4487593766322946e+00 0.0000000000000000e+00  2.0162600653278666e+00 3.4779044015288321e+00 0.0000000000000000e+00  2.0162609545000074e+00 3.4737574970950948e+00 0.0000000000000000e+00  2.0162619014355183e+00 3.4438688566689999e+00 0.0000000000000000e+00  2.0162628505164153e+00 3.3927565678201090e+00 0.0000000000000000e+00  2.0162637452156584e+00 3.3220099396690070e+00 0.0000000000000000e+00  2.0162645224492177e+00 3.2301720345798919e+00 0.0000000000000000e+00  2.2554492844563736e+00 3.1484373626626319e+00 0.0000000000000000e+00  2.4093690949411100e+00 3.1770850804229593e+00 0.0000000000000000e+00  1.2217988175561241e+00 4.8644043650447388e-01 0.0000000000000000e+00  1.2218000489613321e+00 5.3009557732639812e-01 0.0000000000000000e+00  1.2218013704548292e+00 5.7375099797477724e-01 0.0000000000000000e+00  1.2218028430418990e+00 6.1740677717108050e-01 0.0000000000000000e+00  1.2218045491724947e+00 6.6106302523568616e-01 0.0000000000000000e+00  1.2218065651122838e+00 7.0471987886893950e-01 0.0000000000000000e+00  1.2218088903727011e+00 7.4837751480901660e-01 0.0000000000000000e+00  1.2218114197447518e+00 7.9203595433596874e-01 0.0000000000000000e+00  1.2218138385993171e+00 8.3569507961508893e-01 0.0000000000000000e+00  1.2218153476683571e+00 8.7935394956933732e-01 0.0000000000000000e+00  1.2218423050831699e+00 9.2301739126454496e-01 0.0000000000000000e+00  1.2218421958054548e+00 9.6669003449871893e-01 0.0000000000000000e+00  1.2218423020269447e+00 1.0103595786330197e+00 0.0000000000000000e+00  1.2218425090793625e+00 1.0569015208665553e+00 0.0000000000000000e+00  1.2218427074307245e+00 1.1034707130575150e+00 0.0000000000000000e+00  1.2218428839446871e+00 1.1509341388176764e+00 0.0000000000000000e+00  1.2218430233248272e+00 1.1992790259970110e+00 0.0000000000000000e+00  1.2218431326783645e+00 1.2487602925219883e+00 0.0000000000000000e+00  1.2218432163749946e+00 1.3002205472721360e+00 0.0000000000000000e+00  1.2218433195257863e+00 1.3429470798654122e+00 0.0000000000000000e+00  1.2218434448019191e+00 1.3788549487698105e+00 0.0000000000000000e+00  1.2218435493566644e+00 1.4110258375165592e+00 0.0000000000000000e+00  1.2497284936479507e+00 1.4516667883814678e+00 0.0000000000000000e+00  1.2642659084052070e+00 1.4867893770418756e+00 0.0000000000000000e+00  1.2741004267363831e+00 1.5246753034268710e+00 0.0000000000000000e+00  1.2825791596168881e+00 1.5668109432365476e+00 0.0000000000000000e+00  1.2830852741062695e+00 1.6073548829637607e+00 0.0000000000000000e+00  1.2871033418904250e+00 1.6510702901433170e+00 0.0000000000000000e+00  1.2928939449075012e+00 1.6970311207168833e+00 0.0000000000000000e+00  1.3032389263218840e+00 1.7455487878035181e+00 0.0000000000000000e+00  1.3214103639850108e+00 1.7868466610358453e+00 0.0000000000000000e+00  1.3461913582067899e+00 1.8352003531529244e+00 0.0000000000000000e+00  1.3732178806698634e+00 1.8839529870237248e+00 0.0000000000000000e+00  1.4021973448874228e+00 1.9337756707761526e+00 0.0000000000000000e+00  1.4324999670896759e+00 1.9888927608723768e+00 0.0000000000000000e+00  1.4651410588930269e+00 2.0676050604177436e+00 0.0000000000000000e+00  1.4804700521942913e+00 2.1158961897811599e+00 0.0000000000000000e+00  1.4795773450660801e+00 2.1650723683374196e+00 0.0000000000000000e+00  1.4795773796414458e+00 2.2142494337499392e+00 0.0000000000000000e+00  1.4795776444377180e+00 2.2634261121531085e+00 0.0000000000000000e+00  1.4795780814076818e+00 2.3126020348290059e+00 0.0000000000000000e+00  1.4795785460047464e+00 2.3616768774719374e+00 0.0000000000000000e+00  1.4795789965902109e+00 2.4070622759346811e+00 0.0000000000000000e+00  1.4795793396307262e+00 2.4385656204030486e+00 0.0000000000000000e+00  1.4795796883399637e+00 2.4657641458517663e+00 0.0000000000000000e+00  1.4795800176173632e+00 2.4972668134176144e+00 0.0000000000000000e+