<?xml version="1.0"?>
<VTKFile type="UnstructuredGrid"  version="0.1"  >
<UnstructuredGrid>
<Piece  NumberOfPoints="2398" NumberOfCells="4582">
<Points>
<DataArray  type="Float64"  NumberOfComponents="3"  format="ascii">1.544782608695652 0.225 0  1.55304347826087 0.225 0  1.55304347826087 0.2333333333333333 0  1.544782608695652 0.2333333333333333 0  1.561304347826087 0.2333333333333333 0  1.445652173913043 0.2333333333333333 0  1.453913043478261 0.2333333333333333 0  1.453913043478261 0.2416666666666667 0  1.445652173913043 0.2416666666666667 0  1.462173913043478 0.2333333333333333 0  1.462173913043478 0.2416666666666667 0  1.470434782608696 0.2333333333333333 0  1.470434782608696 0.2416666666666667 0  1.478695652173913 0.2333333333333333 0  1.478695652173913 0.2416666666666667 0  1.486956521739131 0.2333333333333333 0  1.486956521739131 0.2416666666666667 0  1.495217391304348 0.2333333333333333 0  1.495217391304348 0.2416666666666667 0  1.503478260869565 0.2333333333333333 0  1.503478260869565 0.2416666666666667 0  1.511739130434782 0.2333333333333333 0  1.511739130434782 0.2416666666666667 0  1.52 0.2333333333333333 0  1.52 0.2416666666666667 0  1.528260869565217 0.2333333333333333 0  1.528260869565217 0.2416666666666667 0  1.536521739130435 0.2333333333333333 0  1.536521739130435 0.2416666666666667 0  1.544782608695652 0.2416666666666667 0  1.55304347826087 0.2416666666666667 0  1.561304347826087 0.2416666666666667 0  1.569565217391304 0.2416666666666667 0  1.197826086956522 0.2416666666666667 0  1.206086956521739 0.2416666666666667 0  1.206086956521739 0.25 0  1.197826086956522 0.25 0  1.214347826086956 0.2416666666666667 0  1.214347826086956 0.25 0  1.222608695652174 0.2416666666666667 0  1.222608695652174 0.25 0  1.230869565217391 0.2416666666666667 0  1.230869565217391 0.25 0  1.239130434782609 0.2416666666666667 0  1.239130434782609 0.25 0  1.247391304347826 0.2416666666666667 0  1.247391304347826 0.25 0  1.255652173913044 0.2416666666666667 0  1.255652173913044 0.25 0  1.263913043478261 0.2416666666666667 0  1.263913043478261 0.25 0  1.272173913043478 0.2416666666666667 0  1.272173913043478 0.25 0  1.280434782608696 0.2416666666666667 0  1.280434782608696 0.25 0  1.288695652173913 0.2416666666666667 0  1.288695652173913 0.25 0  1.296956521739131 0.2416666666666667 0  1.296956521739131 0.25 0  1.305217391304348 0.2416666666666667 0  1.305217391304348 0.25 0  1.313478260869565 0.2416666666666667 0  1.313478260869565 0.25 0  1.321739130434783 0.2416666666666667 0  1.321739130434783 0.25 0  1.33 0.2416666666666667 0  1.33 0.25 0  1.338260869565217 0.2416666666666667 0  1.338260869565217 0.25 0  1.346521739130435 0.2416666666666667 0  1.346521739130435 0.25 0  1.354782608695652 0.2416666666666667 0  1.354782608695652 0.25 0  1.36304347826087 0.2416666666666667 0  1.36304347826087 0.25 0  1.371304347826087 0.2416666666666667 0  1.371304347826087 0.25 0  1.379565217391304 0.2416666666666667 0  1.379565217391304 0.25 0  1.387826086956522 0.2416666666666667 0  1.387826086956522 0.25 0  1.396086956521739 0.2416666666666667 0  1.396086956521739 0.25 0  1.404347826086957 0.2416666666666667 0  1.404347826086957 0.25 0  1.412608695652174 0.2416666666666667 0  1.412608695652174 0.25 0  1.420869565217391 0.2416666666666667 0  1.420869565217391 0.25 0  1.429130434782609 0.2416666666666667 0  1.429130434782609 0.25 0  1.437391304347826 0.2416666666666667 0  1.437391304347826 0.25 0  1.445652173913043 0.25 0  1.453913043478261 0.25 0  1.462173913043478 0.25 0  1.470434782608696 0.25 0  1.478695652173913 0.25 0  1.486956521739131 0.25 0  1.495217391304348 0.25 0  1.503478260869565 0.25 0  1.511739130434782 0.25 0  1.52 0.25 0  1.528260869565217 0.25 0  1.536521739130435 0.25 0  1.544782608695652 0.25 0  1.55304347826087 0.25 0  1.561304347826087 0.25 0  1.569565217391304 0.25 0  1.577826086956522 0.25 0  1.206086956521739 0.2583333333333334 0  1.197826086956522 0.2583333333333334 0  1.214347826086956 0.2583333333333334 0  1.222608695652174 0.2583333333333334 0  1.230869565217391 0.2583333333333334 0  1.239130434782609 0.2583333333333334 0  1.247391304347826 0.2583333333333334 0  1.255652173913044 0.2583333333333334 0  1.263913043478261 0.2583333333333334 0  1.272173913043478 0.2583333333333334 0  1.280434782608696 0.2583333333333334 0  1.288695652173913 0.2583333333333334 0  1.296956521739131 0.2583333333333334 0  1.305217391304348 0.2583333333333334 0  1.313478260869565 0.2583333333333334 0  1.321739130434783 0.2583333333333334 0  1.33 0.2583333333333334 0  1.338260869565217 0.2583333333333334 0  1.346521739130435 0.2583333333333334 0  1.354782608695652 0.2583333333333334 0  1.36304347826087 0.2583333333333334 0  1.371304347826087 0.2583333333333334 0  1.379565217391304 0.2583333333333334 0  1.387826086956522 0.2583333333333334 0  1.396086956521739 0.2583333333333334 0  1.404347826086957 0.2583333333333334 0  1.412608695652174 0.2583333333333334 0  1.420869565217391 0.2583333333333334 0  1.429130434782609 0.2583333333333334 0  1.437391304347826 0.2583333333333334 0  1.445652173913043 0.2583333333333334 0  1.453913043478261 0.2583333333333334 0  1.462173913043478 0.2583333333333334 0  1.470434782608696 0.2583333333333334 0  1.478695652173913 0.2583333333333334 0  1.486956521739131 0.2583333333333334 0  1.495217391304348 0.2583333333333334 0  1.503478260869565 0.2583333333333334 0  1.511739130434782 0.2583333333333334 0  1.52 0.2583333333333334 0  1.528260869565217 0.2583333333333334 0  1.536521739130435 0.2583333333333334 0  1.544782608695652 0.2583333333333334 0  1.55304347826087 0.2583333333333334 0  1.561304347826087 0.2583333333333334 0  1.569565217391304 0.2583333333333334 0  1.577826086956522 0.2583333333333334 0  1.586086956521739 0.2583333333333334 0  1.131739130434783 0.2583333333333334 0  1.14 0.2583333333333334 0  1.14 0.2666666666666667 0  1.131739130434783 0.2666666666666667 0  1.148260869565217 0.2583333333333334 0  1.148260869565217 0.2666666666666667 0  1.156521739130435 0.2583333333333334 0  1.156521739130435 0.2666666666666667 0  1.164782608695652 0.2583333333333334 0  1.164782608695652 0.2666666666666667 0  1.17304347826087 0.2583333333333334 0  1.17304347826087 0.2666666666666667 0  1.181304347826087 0.2583333333333334 0  1.181304347826087 0.2666666666666667 0  1.189565217391304 0.2583333333333334 0  1.189565217391304 0.2666666666666667 0  1.197826086956522 0.2666666666666667 0  1.206086956521739 0.2666666666666667 0  1.214347826086956 0.2666666666666667 0  1.222608695652174 0.2666666666666667 0  1.230869565217391 0.2666666666666667 0  1.239130434782609 0.2666666666666667 0  1.247391304347826 0.2666666666666667 0  1.255652173913044 0.2666666666666667 0  1.263913043478261 0.2666666666666667 0  1.272173913043478 0.2666666666666667 0  1.280434782608696 0.2666666666666667 0  1.288695652173913 0.2666666666666667 0  1.296956521739131 0.2666666666666667 0  1.305217391304348 0.2666666666666667 0  1.313478260869565 0.2666666666666667 0  1.321739130434783 0.2666666666666667 0  1.33 0.2666666666666667 0  1.338260869565217 0.2666666666666667 0  1.346521739130435 0.2666666666666667 0  1.354782608695652 0.2666666666666667 0  1.36304347826087 0.2666666666666667 0  1.371304347826087 0.2666666666666667 0  1.379565217391304 0.2666666666666667 0  1.387826086956522 0.2666666666666667 0  1.396086956521739 0.2666666666666667 0  1.404347826086957 0.2666666666666667 0  1.412608695652174 0.2666666666666667 0  1.420869565217391 0.2666666666666667 0  1.429130434782609 0.2666666666666667 0  1.437391304347826 0.2666666666666667 0  1.445652173913043 0.2666666666666667 0  1.453913043478261 0.2666666666666667 0  1.462173913043478 0.2666666666666667 0  1.470434782608696 0.2666666666666667 0  1.478695652173913 0.2666666666666667 0  1.486956521739131 0.2666666666666667 0  1.495217391304348 0.2666666666666667 0  1.503478260869565 0.2666666666666667 0  1.511739130434782 0.2666666666666667 0  1.52 0.2666666666666667 0  1.528260869565217 0.2666666666666667 0  1.536521739130435 0.2666666666666667 0  1.544782608695652 0.2666666666666667 0  1.55304347826087 0.2666666666666667 0  1.561304347826087 0.2666666666666667 0  1.569565217391304 0.2666666666666667 0  1.577826086956522 0.2666666666666667 0  1.586086956521739 0.2666666666666667 0  1.594347826086957 0.2666666666666667 0  0.9747826086956521 0.2666666666666667 0  0.9830434782608696 0.2666666666666667 0  0.9830434782608696 0.275 0  0.9747826086956521 0.275 0  0.991304347826087 0.2666666666666667 0  0.991304347826087 0.275 0  0.9995652173913042 0.2666666666666667 0  0.9995652173913042 0.275 0  1.007826086956522 0.2666666666666667 0  1.007826086956522 0.275 0  1.016086956521739 0.2666666666666667 0  1.016086956521739 0.275 0  1.024347826086957 0.2666666666666667 0  1.024347826086957 0.275 0  1.032608695652174 0.2666666666666667 0  1.032608695652174 0.275 0  1.040869565217391 0.2666666666666667 0  1.040869565217391 0.275 0  1.049130434782609 0.2666666666666667 0  1.049130434782609 0.275 0  1.057391304347826 0.2666666666666667 0  1.057391304347826 0.275 0  1.065652173913043 0.2666666666666667 0  1.065652173913043 0.275 0  1.073913043478261 0.2666666666666667 0  1.073913043478261 0.275 0  1.082173913043478 0.2666666666666667 0  1.082173913043478 0.275 0  1.090434782608696 0.2666666666666667 0  1.090434782608696 0.275 0  1.098695652173913 0.2666666666666667 0  1.098695652173913 0.275 0  1.10695652173913 0.2666666666666667 0  1.10695652173913 0.275 0  1.115217391304348 0.2666666666666667 0  1.115217391304348 0.275 0  1.123478260869565 0.2666666666666667 0  1.123478260869565 0.275 0  1.131739130434783 0.275 0  1.14 0.275 0  1.148260869565217 0.275 0  1.156521739130435 0.275 0  1.164782608695652 0.275 0  1.17304347826087 0.275 0  1.181304347826087 0.275 0  1.189565217391304 0.275 0  1.197826086956522 0.275 0  1.206086956521739 0.275 0  1.214347826086956 0.275 0  1.222608695652174 0.275 0  1.230869565217391 0.275 0  1.239130434782609 0.275 0  1.247391304347826 0.275 0  1.255652173913044 0.275 0  1.26
[...]
<PointData  Vectors="Displacement"> 
<DataArray  type="Float64"  Name="Displacement"  NumberOfComponents="3" format="ascii">1.5860759687246115e-01 4.9937459979496976e+00 0.0000000000000000e+00  1.3003702135460349e-01 5.3175378570376397e+00 0.0000000000000000e+00  4.8767537966315340e-02 5.3196561933860318e+00 0.0000000000000000e+00  1.1374565767629902e-01 4.9937458354823834e+00 0.0000000000000000e+00  1.2506450059739611e-02 5.5461692637091149e+00 0.0000000000000000e+00  1.1375988151907956e-01 4.4602427469793273e+00 0.0000000000000000e+00  1.1375847943526310e-01 4.5047147402997014e+00 0.0000000000000000e+00  4.8215565968056678e-02 4.5122217934452618e+00 0.0000000000000000e+00  6.8913796703709063e-02 4.4602270648288229e+00 0.0000000000000000e+00  1.1375853900773637e-01 4.5491821031357391e+00 0.0000000000000000e+00  3.1933271691796696e-02 4.5543953354376363e+00 0.0000000000000000e+00  1.1376007881320974e-01 4.5936419535844966e+00 0.0000000000000000e+00  1.6283315857632270e-02 4.5863454084209412e+00 0.0000000000000000e+00  1.1376304003197123e-01 4.6380911404951650e+00 0.0000000000000000e+00  1.8938618918166446e-02 4.6369400006070274e+00 0.0000000000000000e+00  1.1376395079133732e-01 4.6825110015757057e+00 0.0000000000000000e+00  3.3008875183822541e-02 4.6901668093226245e+00 0.0000000000000000e+00  1.1375588116963384e-01 4.7269502177131635e+00 0.0000000000000000e+00  5.0628450410738317e-02 4.7385031561350512e+00 0.0000000000000000e+00  1.1375219320057928e-01 4.7714028661237249e+00 0.0000000000000000e+00  6.8909359225364022e-02 4.7714047685289636e+00 0.0000000000000000e+00  1.1374999359826415e-01 4.8158641521585546e+00 0.0000000000000000e+00  6.8898611310557425e-02 4.8158653267207452e+00 0.0000000000000000e+00  1.1374834293378255e-01 4.8603306543164155e+00 0.0000000000000000e+00  6.8891617497956234e-02 4.8603315903319153e+00 0.0000000000000000e+00  1.1374722318659779e-01 4.9048009756034441e+00 0.0000000000000000e+00  6.8886156199640253e-02 4.9048017292077999e+00 0.0000000000000000e+00  1.1374613014032477e-01 4.9492728500927274e+00 0.0000000000000000e+00  2.4890662139267460e-02 5.0244176880093621e+00 0.0000000000000000e+00  -3.4067452059276263e-02 5.1315282104032072e+00 0.0000000000000000e+00  -9.4056740272522837e-02 5.3579182101571448e+00 0.0000000000000000e+00  -1.2174999096342620e-01 5.5461693186003460e+00 0.0000000000000000e+00  -1.2175004626753548e-01 5.6792585038046024e+00 0.0000000000000000e+00  6.9360241568424602e-02 3.1286894667208514e+00 0.0000000000000000e+00  6.9335103613367297e-02 3.1728956404800499e+00 0.0000000000000000e+00  2.4783317258471934e-02 3.1728916237240239e+00 0.0000000000000000e+00  2.4784589128106150e-02 3.1286921174142921e+00 0.0000000000000000e+00  6.9310758300072231e-02 3.2171215413884617e+00 0.0000000000000000e+00  2.4785263078896169e-02 3.2170558192905823e+00 0.0000000000000000e+00  6.9285125669933459e-02 3.2613597875611564e+00 0.0000000000000000e+00  1.7728732981492620e-02 3.2473240520560447e+00 0.0000000000000000e+00  6.9259006159623326e-02 3.3056121422175515e+00 0.0000000000000000e+00  1.6839064107418276e-02 3.2895279795228949e+00 0.0000000000000000e+00  6.9232315619071796e-02 3.3498785309862291e+00 0.0000000000000000e+00  1.6662906553641148e-02 3.3342150787639646e+00 0.0000000000000000e+00  6.9204932991707255e-02 3.3941612657655127e+00 0.0000000000000000e+00  1.5759021765040321e-02 3.3796852306379863e+00 0.0000000000000000e+00  6.9177095104289640e-02 3.4384588526684050e+00 0.0000000000000000e+00  1.3709510803638216e-02 3.4229584244032982e+00 0.0000000000000000e+00  6.9149101973463342e-02 3.4827785937712026e+00 0.0000000000000000e+00  1.3917020692054423e-02 3.4646540689993728e+00 0.0000000000000000e+00  6.9123100788704220e-02 3.5271192017950526e+00 0.0000000000000000e+00  1.5607509455779519e-02 3.5108178633619120e+00 0.0000000000000000e+00  6.9099413969051879e-02 3.5714783616647452e+00 0.0000000000000000e+00  1.8326114521661947e-02 3.5579026165081120e+00 0.0000000000000000e+00  6.9077615924173344e-02 3.6158535755698091e+00 0.0000000000000000e+00  1.9359606980441847e-02 3.6075699802427681e+00 0.0000000000000000e+00  6.9057686332279350e-02 3.6602429414449116e+00 0.0000000000000000e+00  1.9943611201998210e-02 3.6528021224467344e+00 0.0000000000000000e+00  6.9039637521805544e-02 3.7046443780807650e+00 0.0000000000000000e+00  2.1227378771987770e-02 3.6973537798174760e+00 0.0000000000000000e+00  6.9023368961392773e-02 3.7490555125089116e+00 0.0000000000000000e+00  2.2772861616733163e-02 3.7409481585745716e+00 0.0000000000000000e+00  6.9008784432265061e-02 3.7934749929025315e+00 0.0000000000000000e+00  2.4099726587687560e-02 3.7760509915235234e+00 0.0000000000000000e+00  6.8996099752924672e-02 3.8379019913326529e+00 0.0000000000000000e+00  2.4099775650137715e-02 3.8249533029903922e+00 0.0000000000000000e+00  6.8985366515802421e-02 3.8823334718193605e+00 0.0000000000000000e+00  2.4099833385714069e-02 3.8712934116812003e+00 0.0000000000000000e+00  6.8976024526007235e-02 3.9267681639059027e+00 0.0000000000000000e+00  2.4099963669996737e-02 3.9176198308490973e+00 0.0000000000000000e+00  6.8967649191246802e-02 3.9712053255193265e+00 0.0000000000000000e+00  2.4100110779700867e-02 3.9665559361258897e+00 0.0000000000000000e+00  6.8959916783342776e-02 4.0156444637418405e+00 0.0000000000000000e+00  2.4100256100800913e-02 4.0133226933291377e+00 0.0000000000000000e+00  6.8952375258507032e-02 4.0600850723157302e+00 0.0000000000000000e+00  2.4100409608967529e-02 4.0596729834235052e+00 0.0000000000000000e+00  6.8944178535565157e-02 4.1045267699404073e+00 0.0000000000000000e+00  2.4100583616818858e-02 4.1045264420614522e+00 0.0000000000000000e+00  6.8935997540045632e-02 4.1489783557756095e+00 0.0000000000000000e+00  2.4100577380403387e-02 4.1489787860716953e+00 0.0000000000000000e+00  6.8928840399931940e-02 4.1934353900754857e+00 0.0000000000000000e+00  2.4100384196975841e-02 4.1934244415678021e+00 0.0000000000000000e+00  6.8923162017051370e-02 4.2378973855826247e+00 0.0000000000000000e+00  2.4100297360119503e-02 4.2504812642587302e+00 0.0000000000000000e+00  6.8918645284721039e-02 4.2823626889813040e+00 0.0000000000000000e+00  7.9590741546000984e-03 4.2836426367108418e+00 0.0000000000000000e+00  6.8915330416943282e-02 4.3268302571611956e+00 0.0000000000000000e+00  -1.5024714418431521e-03 4.3284330109865232e+00 0.0000000000000000e+00  6.8913384373091899e-02 4.3712990293357130e+00 0.0000000000000000e+00  -8.6314082012219785e-03 4.3762227149291304e+00 0.0000000000000000e+00  6.8913088548441526e-02 4.4157673364370957e+00 0.0000000000000000e+00  -1.6345342057006693e-02 4.4268769800863792e+00 0.0000000000000000e+00  -2.5780330939256486e-02 4.4754040801388273e+00 0.0000000000000000e+00  -3.5545233249800634e-02 4.5255613204634235e+00 0.0000000000000000e+00  -3.9888817431921186e-02 4.5605540433653928e+00 0.0000000000000000e+00  -3.4755319379795716e-02 4.5863453927241817e+00 0.0000000000000000e+00  -3.4755308798908292e-02 4.6369400129124996e+00 0.0000000000000000e+00  -3.4755323635093677e-02 4.6901668465236783e+00 0.0000000000000000e+00  -3.4755357228897714e-02 4.7573416561514303e+00 0.0000000000000000e+00  -4.2869926833148581e-02 4.7995609500695666e+00 0.0000000000000000e+00  -5.0895458183479417e-02 4.8658667818110928e+00 0.0000000000000000e+00  -7.5243847603368885e-02 4.9322023268151529e+00 0.0000000000000000e+00  -1.1226736734655356e-01 4.9875605095962436e+00 0.0000000000000000e+00  -1.6565350112584504e-01 5.0971590885152631e+00 0.0000000000000000e+00  -1.6565372200246600e-01 5.2381241244946413e+00 0.0000000000000000e+00  -1.6565396981327260e-01 5.3937260741889137e+00 0.0000000000000000e+00  -1.6565417385607523e-01 5.5461716955626779e+00 0.0000000000000000e+00  -1.6565432204595004e-01 5.6853860967034979e+00 0.0000000000000000e+00  -2.0492811041646916e-01 5.8144632384443220e+00 0.0000000000000000e+00  -3.2573828755935182e-02 3.1530199970467225e+00 0.0000000000000000e+00  -1.9797802647963370e-02 3.1286932163350158e+00 0.0000000000000000e+00  -3.4700557668256526e-02 3.1942609370946697e+00 0.0000000000000000e+00  -3.4958495737408439e-02 3.2329704232012921e+00 0.0000000000000000e+00  -3.6160189033219131e-02 3.2732344824809321e+00 0.0000000000000000e+00  -3.6620028281173722e-02 3.3184315308467331e+00 0.0000000000000000e+00  -3.7592534976563174e-02 3.3659293676255628e+00 0.0000000000000000e+00  -3.9171785727416635e-02 3.4110487515759869e+00 0.0000000000000000e+00  -4.5400003747136132e-02 3.4459235307924327e+00 0.0000000000000000e+00  -4.5400018707062756e-02 3.4934557821645065e+00 0.0000000000000000e+00  -4.2211578311010717e-02 3.5409880444267063e+00 0.0000000000000000e+00  -3.6821711009123188e-02 3.5990675818192135e+00 0.0000000000000000e+00  -3.3669297707789814e-02 3.6445796019095646e+00 0.0000000000000000e+00  -3.0445932152368668e-02 3.6894292717710053e+00 0.0000000000000000e+00  -2.7861500782998202e-02 3.7347685651614690e+00 0.0000000000000000e+00  -2.7392957736993306e-02 3.7742342886328641e+00 0.0000000000000000e+00  -2.5231663556910554e-02 3.8249532260277412e+00 0.0000000000000000e+00  -2.2646825783893102e-02 3.8712933964602754e+00 0.0000000000000000e+00  -2.2633024810629267e-02 3.9176196958199117e+00 0.0000000000000000e+00  -2.5265250184878355e-02 3.9665558663785307e+00 0.0000000000000000e+00  -2.3076778904242173e-02 4.0133226207359236e+00 0.0000000000000000e+00  -2.2656522105872320e-02 4.0596729149069466e+00 0.0000000000000000e+00  -2.1146421502961556e-02 4.1045263613172240e+00 0.0000000000000000e+00  -2.0741792321319962e-02 4.1489787903890853e+00 0.0000000000000000e+00  -2.0735364558610823e-02 4.1934245568317197e+00 0.0000000000000000e+00  -3.3457196812147032e-02 4.2504813082542281e+00 0.0000000000000000e+00  -5.9742561751465646e-02 4.2932456477262937e+00 0.0000000000000000e+00  -8.3156334134989587e-02 4.3358261238642308e+00 0.0000000000000000e+00  -9.8267696796559820e-02 4.3845608753096901e+00 0.0000000000000000e+00  -1.0989084874060709e-01 4.4416264732331463e+00 0.0000000000000000e+00  -1.1982301130169580e-01 4.4942067124827281e+00 0.0000000000000000e+00  -1.3090259661390333e-01 4.5407493728793105e+00 0.0000000000000000e+00  -1.4068815174459504e-01 4.5707400955889597e+00 0.0000000000000000e+00  -1.5188097247168272e-01 4.5976240721033754e+00 0.0000000000000000e+00  -1.6462902659262846e-01 4.6405793312239414e+00 0.0000000000000000e+00  -1.7047559814357735e-01 4.6963027723644624e+00 0.0000000000000000e+00  -1.7392807902198493e-01 4.7722125072887618e+00 0.0000000000000000e+00  -1.8316509380283744e-01 4.8329316071640527e+00 0.0000000000000000e+00  -1.9517094107182500e-01 4.9089012250567956e+00 0.0000000000000000e+00  -1.9301569923540296e-01 5.0140230879314496e+00 0.0000000000000000e+00  -2.2460192523861541e-01 5.0640079473675996e+00 0.0000000000000000e+00  -2.6140969266169406e-01 5.1605649858509643e+00 0.0000000000000000e+00  -3.0785511949926569e-01 5.2381243726298194e+00 0.0000000000000000e+00  -3.2262054227526232e-01 5.3937262482368444e+00 0.0000000000000000e+00  -3.1943682949148827e-01 5.5461718178350061e+00 0.0000000000000000e+00  -3.0608986973061453e-01 5.6853861648215469e+00 0.0000000000000000e+00  -3.0378935859460660e-01 5.8133021905612701e+00 0.0000000000000000e+00  -3.0992046570666981e-01 5.9263504819619923e+00 0.0000000000000000e+00  -1.9768529155668717e-02 2.7751079600692337e+00 0.0000000000000000e+00  -1.9773095874164488e-02 2.8193062823113224e+00 0.0000000000000000e+00  -6.4358720768133940e-02 2.8193062193283467e+00 0.0000000000000000e+00  -6.4351209988515387e-02 2.7751089814548346e+00 0.0000000000000000e+00  -1.9777212989159045e-02 2.8635042924751595e+00 0.0000000000000000e+00  -6.4358673799696703e-02 2.8635041646599309e+00 0.0000000000000000e+00  -1.9781192004861246e-02 2.9077022873117242e+00 0.0000000000000000e+00  -6.4358636783623066e-02 2.9076977592059663e+00 0.0000000000000000e+00  -1.9785227137233349e-02 2.9519002005057464e+00 0.0000000000000000e+00  -7.5585065092542883e-02 2.9360313583558675e+00 0.0000000000000000e+00  -1.9789237170302156e-02 2.9960982522026347e+00 0.0000000000000000e+00  -8.0002618332071493e-02 2.9783603758114703e+00 0.0000000000000000e+00  -1.9792988412789408e-02 3.0402965293954489e+00 0.0000000000000000e+00  -8.4988677506706370e-02 3.0228807297764160e+00 0.0000000000000000e+00  -1.9796051029041143e-02 3.0844949601620031e+00 0.0000000000000000e+00  -9.8721807910454817e-02 3.0526512953531517e+00 0.0000000000000000e+00  -1.0335066188328051e-01 3.0948575799670612e+00 0.0000000000000000e+00  -1.0109803393960007e-01 3.1324752245609129e+00 0.0000000000000000e+00  -1.0026418489622523e-01 3.1723259907522579e+00 0.0000000000000000e+00  -9.8941547494973067e-02 3.2130034100130631e+00 0.0000000000000000e+00  -9.3095161716569827e-02 3.2549920334589104e+00 0.0000000000000000e+00  -9.1449061716826111e-02 3.3027763582943215e+00 0.0000000000000000e+00  -9.4057201113511374e-02 3.3521924517899602e+00 0.0000000000000000e+00  -9.3986631654058864e-02 3.3990229951494655e+00 0.0000000000000000e+00  -9.3349271703321454e-02 3.4459234883999472e+00 0.0000000000000000e+00  -9.3349265182394822e-02 3.4934557541999181e+00 0.0000000000000000e+00  -9.3349271394651948e-02 3.5409879954385799e+00 0.0000000000000000e+00  -9.3349244392490455e-02 3.5916809971979156e+00 0.0000000000000000e+00  -8.8896707707589048e-02 3.6350631994288132e+00 0.0000000000000000e+00  -8.4349951681327445e-02 3.6805294854886186e+00 0.0000000000000000e+00  -8.1449965409506511e-02 3.7288018221392223e+00 0.0000000000000000e+00  -7.8556786721765498e-02 3.7742342753991931e+00 0.0000000000000000e+00  -7.8556774520536207e-02 3.8249531745793859e+00 0.0000000000000000e+00  -7.8556771616657126e-02 3.8778144102497838e+00 0.0000000000000000e+00  -8.0555844700409260e-02 3.9176196149593552e+00 0.0000000000000000e+00  -8.0555830160250821e-02 3.9750385809304873e+00 0.0000000000000000e+00  -9.2339370578990332e-02 4.0155955891609487e+00 0.0000000000000000e+00  -1.0037765461348110e-01 4.0670908394320699e+00 0.0000000000000000e+00  -1.0766666265942673e-01 4.1096045739320717e+00 0.0000000000000000e+00  -1.1439960503713674e-01 4.1528178925570804e+00 0.0000000000000000e+00  -1.2337359461498286e-01 4.1999517541759888e+00 0.0000000000000000e+00  -1.3648372264628425e-01 4.2565409923599002e+00 0.0000000000000000e+00  -1.5521287153551475e-01 4.3083037865037648e+00 0.0000000000000000e+00  -1.8284899259677342e-01 4.3522364208187980e+00 0.0000000000000000e+00  -2.1218565912459147e-01 4.3928951498295410e+00 0.0000000000000000e+00  -2.2153072999070897e-01 4.4559532515227094e+00 0.0000000000000000e+00  -2.2335385107101183e-01 4.5097477352576991e+00 0.0000000000000000e+00  -2.2112959149523720e-01 4.5617351684274849e+00 0.0000000000000000e+00  -2.3364925411273399e-01 4.5883837346418961e+00 0.0000000000000000e+00  -2.5708152351525276e-01 4.6187906163169181e+00 0.0000000000000000e+00  -2.9079664233485619e-01 4.6568192796585901e+00 0.0000000000000000e+00  -3.2612971330625262e-01 4.6990256281471074e+00 0.0000000000000000e+00  -3.2851523833054147e-01 4.7794034523864157e+00 0.0000000000000000e+00  -3.0347639020319050e-01 4.8574168363832415e+00 0.0000000000000000e+00  -3.0121523494564700e-01 4.9089013447468979e+00 0.0000000000000000e+00  -3.0121532361634434e-01 5.0140232975034449e+00 0.0000000000000000e+00  -3.0121544676738587e-01 5.1212820223726201e+00 0.0000000000000000e+00  -3.2446959914640849e-01 5.2132497825465896e+00 0.0000000000000000e+00  -3.4597896839815667e-01 5.3078660672493676e+00 0.0000000000000000e+00  -3.6928431956605479e-01 5.4296761564660221e+00 0.0000000000000000e+00  -3.7703682809222266e-01 5.5625851533526269e+00 0.0000000000000000e+00  -3.7365064138344561e-01 5.6796031073612951e+00 0.0000000000000000e+00  -3.6890382674046335e-01 5.7991841789952865e+00 0.0000000000000000e+00  -3.7198778019557910e-01 5.9134402760479770e+00 0.0000000000000000e+00  -3.8480334289894297e-01 6.0226352053301442e+00 0.0000000000000000e+00  -6.4296848804016787e-02 1.9353506600279691e+00 0.0000000000000000e+00  -6.4299447114379404e-02 1.9795475652844003e+00 0.0000000000000000e+00  -1.0887188895404978e-01 1.9721546827453171e+00 0.0000000000000000e+00  -1.0887332138816179e-01 1.9353513048989757e+00 0.0000000000000000e+00  -6.4302559274407381e-02 2.0237434156693017e+00 0.0000000000000000e+00  -1.0698175855725811e-01 2.0165605835774856e+00 0.0000000000000000e+00  -6.4306285467600310e-02 2.0679394000855154e+00 0.0000000000000000e+00  -1.0889374181575087e-01 2.0679392301507216e+00 0.0000000000000000e+00  -6.4309597424413459e-02 2.1121366629693168e+00 0.0000000000000000e+00  -1.0889415442601846e-01 2.1121373959680296e+00 0.0000000000000000e+00  -6.4312886429549909e-02 2.1563340292961253e+00 0.0000000000000000e+00  -1.0889496391557998e-01 2.1563344444292016e+00 0.0000000000000000e+00  -6.4316453166992901e-02 2.2005311515943902e+00 0.0000000000000000e+00  -1.0889515540054380e-01 2.2005305466568190e+00 0.0000000000000000e+00  -6.4319711794021572e-02 2.2447293422135255e+00 0.0000000000000000e+00  -1.0889486259638989e-01 2.2447215239061982e+00 0.0000000000000000e+00  -6.4322940760128275e-02 2.2889275871251256e+00 0.0000000000000000e+00  -1.1383051991338559e-01 2.2776294670684574e+00 0.0000000000000000e+00  -6.4326128258879539e-02 2.3331260141653596e+00 0.0000000000000000e+00  -1.1282139751325095e-01 2.3240736803428756e+00 0.0000000000000000e+00  -6.4329261844060875e-02 2.3773246537864283e+00 0.0000000000000000e+00  -1.1397618218590694e-01 2.3668563993542722e+00 0.0000000000000000e+00  -6.4332276558307297e-02 2.4215235185167288e+00 0.0000000000000000e+00  -1.1579347608712871e-01 2.4099277148524161e+00 0.0000000000000000e+00  -6.4335110388280228e-02 2.4657222003780128e+00 0.0000000000000000e+00  -1.2273893726169001e-01 2.4421611396956191e+00 0.0000000000000000e+00  -6.4337864045390436e-02 2.5099207671280848e+00 0.0000000000000000e+00  -1.1803955462906510e-01 2.4939533653674228e+00 0.0000000000000000e+00  -6.4340551956257694e-02 2.5541191605083022e+00 0.0000000000000000e+00  -1.1684665487790540e-01 2.5354461533341439e+00 0.0000000000000000e+00  -6.4343167520871561e-02 2.5983173685575429e+00 0.0000000000000000e+00  -1.1583470221749713e-01 2.5785203823004097e+00 0.0000000000000000e+00  -6.4345690187894017e-02 2.6425153904610537e+00 0.0000000000000000e+00  -1.1544717177962339e-01 2.6223880590961666e+00 0.0000000000000000e+00  -6.4348051891204822e-02 2.6867133172803133e+00 0.0000000000000000e+00  -1.1640506932250949e-01 2.6675918111124077e+00 0.0000000000000000e+00  -6.4350032858408249e-02 2.7309112839399057e+00 0.0000000000000000e+00  -1.1848205751399714e-01 2.7121000123231522e+00 0.0000000000000000e+00  -1.2136826946268786e-01 2.7559707082645675e+00 0.0000000000000000e+00  -1.2541146353150415e-01 2.7975127890447880e+00 0.0000000000000000e+00  -1.2755691770195066e-01 2.8381886838999426e+00 0.0000000000000000e+00  -1.2920052995825498e-01 2.8827022685525412e+00 0.0000000000000000e+00  -1.3223063670458657e-01 2.9207297390378573e+00 0.0000000000000000e+00  -1.3653310108920358e-01 2.9610853150871983e+00 0.0000000000000000e+00  -1.3983835738377909e-01 3.0065290702991216e+00 0.0000000000000000e+00  -1.4129843904536085e-01 3.0526512330352018e+00 0.0000000000000000e+00  -1.4129844093654556e-01 3.0948575305710651e+00 0.0000000000000000e+00  -1.4129846252514136e-01 3.1324751896603593e+00 0.0000000000000000e+00  -1.4129849880956977e-01 3.1723259653372402e+00 0.0000000000000000e+00  -1.4129853929357220e-01 3.2130034106995913e+00 0.0000000000000000e+00  -1.4129861594785978e-01 3.2549919961957792e+00 0.0000000000000000e+00  -1.4129862858999226e-01 3.3027763009706899e+00 0.0000000000000000e+00  -1.4129858507280976e-01 3.3521924096948763e+00 0.0000000000000000e+00  -1.4129855037288688e-01 3.3990229537831702e+00 0.0000000000000000e+00  -1.4129851713098693e-01 3.4459234400981122e+00 0.0000000000000000e+00  -1.4129848275276558e-01 3.4934557096292789e+00 0.0000000000000000e+00  -1.4129845384498366e-01 3.5409879448311852e+00 0.0000000000000000e+00  -1.4129844258309329e-01 3.5885200738697782e+00 0.0000000000000000e+00  -1.43063297