<?xml version="1.0"?>
<VTKFile type="UnstructuredGrid"  version="0.1"  >
<UnstructuredGrid>
<Piece  NumberOfPoints="2418" NumberOfCells="4635">
<Points>
<DataArray  type="Float64"  NumberOfComponents="3"  format="ascii">0.3882608695652174 0 0  0.3965217391304348 0 0  0.3965217391304348 0.008333333333333333 0  0.3882608695652174 0.008333333333333333 0  0.4047826086956521 0 0  0.4047826086956521 0.008333333333333333 0  0.4130434782608696 0 0  0.4130434782608696 0.008333333333333333 0  0.4213043478260869 0 0  0.4213043478260869 0.008333333333333333 0  0.4295652173913043 0 0  0.4295652173913043 0.008333333333333333 0  0.4378260869565217 0 0  0.4378260869565217 0.008333333333333333 0  0.4460869565217391 0 0  0.4460869565217391 0.008333333333333333 0  0.4543478260869565 0 0  0.4543478260869565 0.008333333333333333 0  0.4626086956521739 0 0  0.4626086956521739 0.008333333333333333 0  0.4708695652173913 0 0  0.4708695652173913 0.008333333333333333 0  0.4791304347826086 0 0  0.4791304347826086 0.008333333333333333 0  0.4873913043478261 0 0  0.4873913043478261 0.008333333333333333 0  0.4956521739130435 0 0  0.4956521739130435 0.008333333333333333 0  0.5039130434782608 0 0  0.5039130434782608 0.008333333333333333 0  0.5121739130434783 0 0  0.5121739130434783 0.008333333333333333 0  0.5204347826086956 0 0  0.5204347826086956 0.008333333333333333 0  0.528695652173913 0 0  0.528695652173913 0.008333333333333333 0  0.5369565217391304 0 0  0.5369565217391304 0.008333333333333333 0  0.5452173913043478 0 0  0.5452173913043478 0.008333333333333333 0  0.5534782608695652 0 0  0.5534782608695652 0.008333333333333333 0  0.5617391304347825 0 0  0.5617391304347825 0.008333333333333333 0  0.57 0 0  0.57 0.008333333333333333 0  0.5782608695652174 0 0  0.5782608695652174 0.008333333333333333 0  0.5865217391304348 0 0  0.5865217391304348 0.008333333333333333 0  0.5947826086956521 0 0  0.5947826086956521 0.008333333333333333 0  0.6030434782608696 0 0  0.6030434782608696 0.008333333333333333 0  0.6113043478260869 0 0  0.6113043478260869 0.008333333333333333 0  0.6195652173913043 0 0  0.6195652173913043 0.008333333333333333 0  0.6278260869565218 0 0  0.6278260869565218 0.008333333333333333 0  0.6360869565217391 0 0  0.6360869565217391 0.008333333333333333 0  0.6443478260869565 0 0  0.6443478260869565 0.008333333333333333 0  0.6526086956521739 0 0  0.6526086956521739 0.008333333333333333 0  0.6608695652173913 0 0  0.6608695652173913 0.008333333333333333 0  0.6691304347826087 0 0  0.6691304347826087 0.008333333333333333 0  0.677391304347826 0 0  0.677391304347826 0.008333333333333333 0  0.6856521739130435 0 0  0.6856521739130435 0.008333333333333333 0  0.6939130434782609 0 0  0.6939130434782609 0.008333333333333333 0  0.3965217391304348 0.01666666666666667 0  0.4047826086956521 0.01666666666666667 0  0.4130434782608696 0.01666666666666667 0  0.4213043478260869 0.01666666666666667 0  0.4295652173913043 0.01666666666666667 0  0.4378260869565217 0.01666666666666667 0  0.4460869565217391 0.01666666666666667 0  0.4543478260869565 0.01666666666666667 0  0.4626086956521739 0.01666666666666667 0  0.4708695652173913 0.01666666666666667 0  0.4791304347826086 0.01666666666666667 0  0.4873913043478261 0.01666666666666667 0  0.4956521739130435 0.01666666666666667 0  0.5039130434782608 0.01666666666666667 0  0.5121739130434783 0.01666666666666667 0  0.5204347826086956 0.01666666666666667 0  0.528695652173913 0.01666666666666667 0  0.5369565217391304 0.01666666666666667 0  0.5452173913043478 0.01666666666666667 0  0.5534782608695652 0.01666666666666667 0  0.5617391304347825 0.01666666666666667 0  0.57 0.01666666666666667 0  0.5782608695652174 0.01666666666666667 0  0.5865217391304348 0.01666666666666667 0  0.5947826086956521 0.01666666666666667 0  0.6030434782608696 0.01666666666666667 0  0.6113043478260869 0.01666666666666667 0  0.6195652173913043 0.01666666666666667 0  0.6278260869565218 0.01666666666666667 0  0.6360869565217391 0.01666666666666667 0  0.6443478260869565 0.01666666666666667 0  0.6526086956521739 0.01666666666666667 0  0.6608695652173913 0.01666666666666667 0  0.6691304347826087 0.01666666666666667 0  0.677391304347826 0.01666666666666667 0  0.6856521739130435 0.01666666666666667 0  0.6939130434782609 0.01666666666666667 0  0.4047826086956521 0.025 0  0.4130434782608696 0.025 0  0.4213043478260869 0.025 0  0.4295652173913043 0.025 0  0.4378260869565217 0.025 0  0.4460869565217391 0.025 0  0.4543478260869565 0.025 0  0.4626086956521739 0.025 0  0.4708695652173913 0.025 0  0.4791304347826086 0.025 0  0.4873913043478261 0.025 0  0.4956521739130435 0.025 0  0.5039130434782608 0.025 0  0.5121739130434783 0.025 0  0.5204347826086956 0.025 0  0.528695652173913 0.025 0  0.5369565217391304 0.025 0  0.5452173913043478 0.025 0  0.5534782608695652 0.025 0  0.5617391304347825 0.025 0  0.57 0.025 0  0.5782608695652174 0.025 0  0.5865217391304348 0.025 0  0.5947826086956521 0.025 0  0.6030434782608696 0.025 0  0.6113043478260869 0.025 0  0.6195652173913043 0.025 0  0.6278260869565218 0.025 0  0.6360869565217391 0.025 0  0.6443478260869565 0.025 0  0.6526086956521739 0.025 0  0.6608695652173913 0.025 0  0.6691304347826087 0.025 0  0.677391304347826 0.025 0  0.6856521739130435 0.025 0  0.6939130434782609 0.025 0  0.7021739130434783 0.025 0  0.4130434782608696 0.03333333333333333 0  0.4213043478260869 0.03333333333333333 0  0.4295652173913043 0.03333333333333333 0  0.4378260869565217 0.03333333333333333 0  0.4460869565217391 0.03333333333333333 0  0.4543478260869565 0.03333333333333333 0  0.4626086956521739 0.03333333333333333 0  0.4708695652173913 0.03333333333333333 0  0.4791304347826086 0.03333333333333333 0  0.4873913043478261 0.03333333333333333 0  0.4956521739130435 0.03333333333333333 0  0.5039130434782608 0.03333333333333333 0  0.5121739130434783 0.03333333333333333 0  0.5204347826086956 0.03333333333333333 0  0.528695652173913 0.03333333333333333 0  0.5369565217391304 0.03333333333333333 0  0.5452173913043478 0.03333333333333333 0  0.5534782608695652 0.03333333333333333 0  0.5617391304347825 0.03333333333333333 0  0.57 0.03333333333333333 0  0.5782608695652174 0.03333333333333333 0  0.5865217391304348 0.03333333333333333 0  0.5947826086956521 0.03333333333333333 0  0.6030434782608696 0.03333333333333333 0  0.6113043478260869 0.03333333333333333 0  0.6195652173913043 0.03333333333333333 0  0.6278260869565218 0.03333333333333333 0  0.6360869565217391 0.03333333333333333 0  0.6443478260869565 0.03333333333333333 0  0.6526086956521739 0.03333333333333333 0  0.6608695652173913 0.03333333333333333 0  0.6691304347826087 0.03333333333333333 0  0.677391304347826 0.03333333333333333 0  0.6856521739130435 0.03333333333333333 0  0.6939130434782609 0.03333333333333333 0  0.7021739130434783 0.03333333333333333 0  0.7104347826086956 0.03333333333333333 0  0.4213043478260869 0.04166666666666666 0  0.4295652173913043 0.04166666666666666 0  0.4378260869565217 0.04166666666666666 0  0.4460869565217391 0.04166666666666666 0  0.4543478260869565 0.04166666666666666 0  0.4626086956521739 0.04166666666666666 0  0.4708695652173913 0.04166666666666666 0  0.4791304347826086 0.04166666666666666 0  0.4873913043478261 0.04166666666666666 0  0.4956521739130435 0.04166666666666666 0  0.5039130434782608 0.04166666666666666 0  0.5121739130434783 0.04166666666666666 0  0.5204347826086956 0.04166666666666666 0  0.528695652173913 0.04166666666666666 0  0.5369565217391304 0.04166666666666666 0  0.5452173913043478 0.04166666666666666 0  0.5534782608695652 0.04166666666666666 0  0.5617391304347825 0.04166666666666666 0  0.57 0.04166666666666666 0  0.5782608695652174 0.04166666666666666 0  0.5865217391304348 0.04166666666666666 0  0.5947826086956521 0.04166666666666666 0  0.6030434782608696 0.04166666666666666 0  0.6113043478260869 0.04166666666666666 0  0.6195652173913043 0.04166666666666666 0  0.6278260869565218 0.04166666666666666 0  0.6360869565217391 0.04166666666666666 0  0.6443478260869565 0.04166666666666666 0  0.6526086956521739 0.04166666666666666 0  0.6608695652173913 0.04166666666666666 0  0.6691304347826087 0.04166666666666666 0  0.677391304347826 0.04166666666666666 0  0.6856521739130435 0.04166666666666666 0  0.6939130434782609 0.04166666666666666 0  0.7021739130434783 0.04166666666666666 0  0.7104347826086956 0.04166666666666666 0  0.718695652173913 0.04166666666666666 0  0.4295652173913043 0.05 0  0.4378260869565217 0.05 0  0.4460869565217391 0.05 0  0.4543478260869565 0.05 0  0.4626086956521739 0.05 0  0.4708695652173913 0.05 0  0.4791304347826086 0.05 0  0.4873913043478261 0.05 0  0.4956521739130435 0.05 0  0.5039130434782608 0.05 0  0.5121739130434783 0.05 0  0.5204347826086956 0.05 0  0.528695652173913 0.05 0  0.5369565217391304 0.05 0  0.5452173913043478 0.05 0  0.5534782608695652 0.05 0  0.5617391304347825 0.05 0  0.57 0.05 0  0.5782608695652174 0.05 0  0.5865217391304348 0.05 0  0.5947826086956521 0.05 0  0.6030434782608696 0.05 0  0.6113043478260869 0.05 0  0.6195652173913043 0.05 0  0.6278260869565218 0.05 0  0.6360869565217391 0.05 0  0.6443478260869565 0.05 0  0.6526086956521739 0.05 0  0.6608695652173913 0.05 0  0.6691304347826087 0.05 0  0.677391304347826 0.05 0  0.6856521739130435 0.05 0  0.6939130434782609 0.05 0  0.7021739130434783 0.05 0  0.7104347826086956 0.05 0  0.718695652173913 0.05 0  0.7269565217391304 0.05 0  0.4378260869565217 0.05833333333333333 0  0.4460869565217391 0.05833333333333333 0  0.4543478260869565 0.05833333333333333 0  0.4626086956521739 0.05833333333333333 0  0.4708695652173913 0.05833333333333333 0  0.4791304347826086 0.05833333333333333 0  0.4873913043478261 0.05833333333333333 0  0.4956521739130435 0.05833333333333333 0  0.5039130434782608 0.05833333333333333 0  0.5121739130434783 0.05833333333333333 0  0.5204347826086956 0.05833333333333333 0  0.528695652173913 0.05833333333333333 0  0.5369565217391304 0.05833333333333333 0  0.5452173913043478 0.05833333333333333 0  0.5534782608695652 0.05833333333333333 0  0.5617391304347825 0.0
[...]
<PointData  Vectors="Displacement"> 
<DataArray  type="Float64"  Name="Displacement"  NumberOfComponents="3" format="ascii">1.3538820480483893e+00 -1.1724135819733918e+00 0.0000000000000000e+00  1.3538823244181435e+00 -1.1287604440154333e+00 0.0000000000000000e+00  1.3098460275756132e+00 -1.1287605970967627e+00 0.0000000000000000e+00  1.3098459097294322e+00 -1.1724136918451900e+00 0.0000000000000000e+00  1.3538825672175547e+00 -1.0851068570439661e+00 0.0000000000000000e+00  1.3098461804101225e+00 -1.0851069579073724e+00 0.0000000000000000e+00  1.3538828956840494e+00 -1.0414535920884054e+00 0.0000000000000000e+00  1.3098465102502979e+00 -1.0414537844486202e+00 0.0000000000000000e+00  1.3538834111089924e+00 -9.9780041284883358e-01 0.0000000000000000e+00  1.3098470091485193e+00 -9.9780069592404175e-01 0.0000000000000000e+00  1.3538841176349008e+00 -9.5414716990720927e-01 0.0000000000000000e+00  1.3098476393828544e+00 -9.5414753067188895e-01 0.0000000000000000e+00  1.3538849769629169e+00 -9.1049375179629988e-01 0.0000000000000000e+00  1.3098483636092462e+00 -9.1049416826890295e-01 0.0000000000000000e+00  1.3538859340758020e+00 -8.6684009284145225e-01 0.0000000000000000e+00  1.3098491457068437e+00 -8.6684054102643759e-01 0.0000000000000000e+00  1.3538869309816164e+00 -8.2318616555929158e-01 0.0000000000000000e+00  1.3098499516198567e+00 -8.2318662220850303e-01 0.0000000000000000e+00  1.3538879127902375e+00 -7.7953197295023446e-01 0.0000000000000000e+00  1.3098507496524536e+00 -7.7953241656238426e-01 0.0000000000000000e+00  1.3538888295929528e+00 -7.3587754151206819e-01 0.0000000000000000e+00  1.3098515099999604e+00 -7.3587795215485385e-01 0.0000000000000000e+00  1.3538896334382395e+00 -6.9222290948324883e-01 0.0000000000000000e+00  1.3098522003713944e+00 -6.9222326627629605e-01 0.0000000000000000e+00  1.3538902937720456e+00 -6.4856815928124079e-01 0.0000000000000000e+00  1.3098528017062072e+00 -6.4856845281143716e-01 0.0000000000000000e+00  1.3538908036277590e+00 -6.0491338109381287e-01 0.0000000000000000e+00  1.3098533094587259e+00 -6.0491361186748294e-01 0.0000000000000000e+00  1.3538911781956302e+00 -5.6125865902841687e-01 0.0000000000000000e+00  1.3098537326513100e+00 -5.6125883659486719e-01 0.0000000000000000e+00  1.3538914597894653e+00 -5.1760407711897372e-01 0.0000000000000000e+00  1.3098541009894691e+00 -5.1760422471884604e-01 0.0000000000000000e+00  1.3538917026757458e+00 -4.7394967096373070e-01 0.0000000000000000e+00  1.3098544501274190e+00 -4.7394981301574413e-01 0.0000000000000000e+00  1.3538919560569087e+00 -4.3029543664352388e-01 0.0000000000000000e+00  1.3098548122974385e+00 -4.3029559309981308e-01 0.0000000000000000e+00  1.3538922548490202e+00 -3.8664134992796295e-01 0.0000000000000000e+00  1.3098552129377361e+00 -3.8664153271012930e-01 0.0000000000000000e+00  1.3538926186508276e+00 -3.4298738125374939e-01 0.0000000000000000e+00  1.3098556655102549e+00 -3.4298759518938493e-01 0.0000000000000000e+00  1.3538930543331760e+00 -2.9933349896206507e-01 0.0000000000000000e+00  1.3098561715226249e+00 -2.9933374367392340e-01 0.0000000000000000e+00  1.3538935732831952e+00 -2.5567969444599592e-01 0.0000000000000000e+00  1.3098567372158825e+00 -2.5567997692146177e-01 0.0000000000000000e+00  1.3538941855728794e+00 -2.1202593288072866e-01 0.0000000000000000e+00  1.3098573680700767e+00 -2.1202625719669030e-01 0.0000000000000000e+00  1.3538948948790930e+00 -1.6837217630771376e-01 0.0000000000000000e+00  1.3098580684440582e+00 -1.6837254364784043e-01 0.0000000000000000e+00  1.3538956915015454e+00 -1.2471837785109374e-01 0.0000000000000000e+00  1.3098588326991667e+00 -1.2471878162493211e-01 0.0000000000000000e+00  1.3538965636394829e+00 -8.1064521831065092e-02 0.0000000000000000e+00  1.3098596564162086e+00 -8.1064958080479935e-02 0.0000000000000000e+00  1.3538975024830204e+00 -3.7410600397138095e-02 0.0000000000000000e+00  1.3098605365580764e+00 -3.7411066385716445e-02 0.0000000000000000e+00  1.3538985009661395e+00 6.2433924592779130e-03 0.0000000000000000e+00  1.3098614698987718e+00 6.2428993287125811e-03 0.0000000000000000e+00  1.3538995526610964e+00 4.9897460718171631e-02 0.0000000000000000e+00  1.3098624527123011e+00 4.9896943125521918e-02 0.0000000000000000e+00  1.3539006519893657e+00 9.3551605291799039e-02 0.0000000000000000e+00  1.3098634812767693e+00 9.3551065626080482e-02 0.0000000000000000e+00  1.3539017954761565e+00 1.3720582365486789e-01 0.0000000000000000e+00  1.3098645529247042e+00 1.3720526327867963e-01 0.0000000000000000e+00  1.3539029835314327e+00 1.8086011059481596e-01 0.0000000000000000e+00  1.3098656673905331e+00 1.8085952897507446e-01 0.0000000000000000e+00  1.3539042220656878e+00 2.2451446047250456e-01 0.0000000000000000e+00  1.3098668279757952e+00 2.2451385451039133e-01 0.0000000000000000e+00  1.3539055233456794e+00 2.6816887053317806e-01 0.0000000000000000e+00  1.3098680421935875e+00 2.6816823433040093e-01 0.0000000000000000e+00  1.3539069034638267e+00 3.1182334890170799e-01 0.0000000000000000e+00  1.3098693193577189e+00 3.1182267570587646e-01 0.0000000000000000e+00  1.3539083790452293e+00 3.5547791555865121e-01 0.0000000000000000e+00  1.3098706683724810e+00 3.5547719905393887e-01 0.0000000000000000e+00  1.3539099653202418e+00 3.9913260061988093e-01 0.0000000000000000e+00  1.3098720967466200e+00 3.9913183525999646e-01 0.0000000000000000e+00  1.3539116752230849e+00 4.4278744340193182e-01 0.0000000000000000e+00  1.3098736104048814e+00 4.4278662425936655e-01 0.0000000000000000e+00  1.2658093358616282e+00 -1.1287607789975478e+00 0.0000000000000000e+00  1.2658093503168371e+00 -1.0851069250121892e+00 0.0000000000000000e+00  1.2658097342409285e+00 -1.0414539834945167e+00 0.0000000000000000e+00  1.2658103077891538e+00 -9.9780099724110904e-01 0.0000000000000000e+00  1.2658109503808566e+00 -9.5414789452141113e-01 0.0000000000000000e+00  1.2658116238557564e+00 -9.1049456647350957e-01 0.0000000000000000e+00  1.2658123108518806e+00 -8.6684095477396694e-01 0.0000000000000000e+00  1.2658130002798014e+00 -8.2318703729322629e-01 0.0000000000000000e+00  1.2658136821269332e+00 -7.7953282076717290e-01 0.0000000000000000e+00  1.2658143440558500e+00 -7.3587833196571306e-01 0.0000000000000000e+00  1.2658149570500945e+00 -6.9222359344829876e-01 0.0000000000000000e+00  1.2658155056449334e+00 -6.4856872102688534e-01 0.0000000000000000e+00  1.2658159862931719e+00 -6.0491382246935121e-01 0.0000000000000000e+00  1.2658164030468466e+00 -5.6125899661595502e-01 0.0000000000000000e+00  1.2658167882319333e+00 -5.1760436780127483e-01 0.0000000000000000e+00  1.2658171759356860e+00 -4.7394996519343902e-01 0.0000000000000000e+00  1.2658175903141615e+00 -4.3029577146814235e-01 0.0000000000000000e+00  1.2658180498086320e+00 -3.8664174794926820e-01 0.0000000000000000e+00  1.2658185710450434e+00 -3.4298784279051120e-01 0.0000000000000000e+00  1.2658191367222718e+00 -2.9933400933159193e-01 0.0000000000000000e+00  1.2658197458765947e+00 -2.5568027069637117e-01 0.0000000000000000e+00  1.2658203922660789e+00 -2.1202658470434221e-01 0.0000000000000000e+00  1.2658210867913664e+00 -1.6837291055357886e-01 0.0000000000000000e+00  1.2658218255731655e+00 -1.2471917357948840e-01 0.0000000000000000e+00  1.2658226080556958e+00 -8.1065374374162405e-02 0.0000000000000000e+00  1.2658234368534305e+00 -3.7411507610060686e-02 0.0000000000000000e+00  1.2658243123298678e+00 6.2424341991863469e-03 0.0000000000000000e+00  1.2658252323338095e+00 4.9896456660780311e-02 0.0000000000000000e+00  1.2658261930943184e+00 9.3550561115445505e-02 0.0000000000000000e+00  1.2658271905580334e+00 1.3720474354947759e-01 0.0000000000000000e+00  1.2658282222003918e+00 1.8085899496366922e-01 0.0000000000000000e+00  1.2658292888468425e+00 2.2451330404865788e-01 0.0000000000000000e+00  1.2658303963286162e+00 2.6816766098396161e-01 0.0000000000000000e+00  1.2658315513398992e+00 3.1182207345492535e-01 0.0000000000000000e+00  1.2658327585994023e+00 3.5547656351971590e-01 0.0000000000000000e+00  1.2658340210096126e+00 3.9913116269681825e-01 0.0000000000000000e+00  1.2658353412252890e+00 4.4278590963112718e-01 0.0000000000000000e+00  1.2217711792608104e+00 -1.0851069846841310e+00 0.0000000000000000e+00  1.2217725734076985e+00 -1.0414543528992948e+00 0.0000000000000000e+00  1.2217735147765656e+00 -9.9780138795057094e-01 0.0000000000000000e+00  1.2217742403148613e+00 -9.5414830783710780e-01 0.0000000000000000e+00  1.2217748782817215e+00 -9.1049498655077910e-01 0.0000000000000000e+00  1.2217754795632738e+00 -8.6684137312734866e-01 0.0000000000000000e+00  1.2217760665738431e+00 -8.2318744908210117e-01 0.0000000000000000e+00  1.2217766510154100e+00 -7.7953322261103886e-01 0.0000000000000000e+00  1.2217772360861645e+00 -7.3587871538664473e-01 0.0000000000000000e+00  1.2217777857934786e+00 -6.9222390804763911e-01 0.0000000000000000e+00  1.2217782865103246e+00 -6.4856896273858877e-01 0.0000000000000000e+00  1.2217787315576925e+00 -6.0491399129863754e-01 0.0000000000000000e+00  1.2217791143110976e+00 -5.6125909644712879e-01 0.0000000000000000e+00  1.2217794811904568e+00 -5.1760446041634434e-01 0.0000000000000000e+00  1.2217798731408243e+00 -4.7395008540951827e-01 0.0000000000000000e+00  1.2217803073273044e+00 -4.3029593542330885e-01 0.0000000000000000e+00  1.2217807930775668e+00 -3.8664196656357025e-01 0.0000000000000000e+00  1.2217813456174731e+00 -3.4298812835801790e-01 0.0000000000000000e+00  1.2217819926795015e+00 -2.9933429440323173e-01 0.0000000000000000e+00  1.2217826587917100e+00 -2.5568058161328699e-01 0.0000000000000000e+00  1.2217833433726049e+00 -2.1202690362874604e-01 0.0000000000000000e+00  1.2217840076822186e+00 -1.6837327661214319e-01 0.0000000000000000e+00  1.2217847069674297e+00 -1.2471955419370548e-01 0.0000000000000000e+00  1.2217854421069940e+00 -8.1065772937830904e-02 0.0000000000000000e+00  1.2217862186930402e+00 -3.7411927783505286e-02 0.0000000000000000e+00  1.2217870381094398e+00 6.2419926095953005e-03 0.0000000000000000e+00  1.2217878981145169e+00 4.9895997229142168e-02 0.0000000000000000e+00  1.2217887936215155e+00 9.3550089571887290e-02 0.0000000000000000e+00  1.2217897178145918e+00 1.3720426584374490e-01 0.0000000000000000e+00  1.2217906646796319e+00 1.8085851447778739e-01 0.0000000000000000e+00  1.2217916323883855e+00 2.2451281893171324e-01 0.0000000000000000e+00  1.2217926273841166e+00 2.6816716100898047e-01 0.0000000000000000e+00  1.2217936561102705e+00 3.1182155083450686e-01 0.0000000000000000e+00  1.2217947207418889e+00 3.5547601430210962e-01 0.0000000000000000e+00  1.2217958207431610e+00 3.9913058400210832e-01 0.0000000000000000e+00  1.2217969561865565e+00 4.4278529563146879e-01 0.0000000000000000e+00  1.2217981319096463e+00 4.8644018771389402e-01 0.0000000000000000e+00  1.1777374656204760e+00 -1.0414548974746347e+00 0.0000000000000000e+00  1.1777376336026770e+00 -9.9780178263525721e-01 0.0000000000000000e+00  1.1777379228823250e+00 -9.5414871237583920e-01 0.0000000000000000e+00  1.1777382891487442e+00 -9.1049539640222665e-01 0.0000000000000000e+00  1.1777386983756373e+00 -8.6684178249304433e-01 0.0000000000000000e+00  1.1777391341475627e+00 -8.2318785536236572e-01 0.0000000000000000e+00  1.1777395989182855e+00 -7.7953362937310611e-01 0.0000000000000000e+00  1.1777401018738329e+00 -7.3587911964861175e-01 0.0000000000000000e+00  1.1777405779395063e+00 -6.9222421743734308e-01 0.0000000000000000e+00  1.1777410334602529e+00 -6.4856918383392426e-01 0.0000000000000000e+00  1.1777414536893178e+00 -6.0491411191671629e-01 0.0000000000000000e+00  1.1777417964980719e+00 -5.6125910594176676e-01 0.0000000000000000e+00  1.1777421349229549e+00 -5.1760447639286067e-01 0.0000000000000000e+00  1.1777425206270156e+00 -4.7395014994007778e-01 0.0000000000000000e+00  1.1777429569836482e+00 -4.3029605302366430e-01 0.0000000000000000e+00  1.1777434240216866e+00 -3.8664213442363560e-01 0.0000000000000000e+00  1.1777439050914278e+00 -3.4298834640864173e-01 0.0000000000000000e+00  1.1777443443940272e+00 -2.9933455604695908e-01 0.0000000000000000e+00  1.1777451033568933e+00 -2.5568092189093006e-01 0.0000000000000000e+00  1.1777459195147109e+00 -2.1202728742029223e-01 0.0000000000000000e+00  1.1777468712908592e+00 -1.6837362669927511e-01 0.0000000000000000e+00  1.1777474929181975e+00 -1.2471991309031699e-01 0.0000000000000000e+00  1.1777481694968654e+00 -8.1066149874131660e-02 0.0000000000000000e+00  1.1777488921364485e+00 -3.7412326922205599e-02 0.0000000000000000e+00  1.1777496562704632e+00 6.2415723568986338e-03 0.0000000000000000e+00  1.1777504578735565e+00 4.9895561205007655e-02 0.0000000000000000e+00  1.1777512910177714e+00 9.3549646877865114e-02 0.0000000000000000e+00  1.1777521462474947e+00 1.3720382722779903e-01 0.0000000000000000e+00  1.1777530128955884e+00 1.8085808734590039e-01 0.0000000000000000e+00  1.1777538853458529e+00 2.2451240177046328e-01 0.0000000000000000e+00  1.1777547729333906e+00 2.6816673576975003e-01 0.0000000000000000e+00  1.1777556828418125e+00 3.1182110690145182e-01 0.0000000000000000e+00  1.1777566141943032e+00 3.5547554854871061e-01 0.0000000000000000e+00  1.1777575622127676e+00 3.9913009552680923e-01 0.0000000000000000e+00  1.1777585230210246e+00 4.4278478009014427e-01 0.0000000000000000e+00  1.1777594981580970e+00 4.8643963102265936e-01 0.0000000000000000e+00  1.1777605004757719e+00 5.3009467383120423e-01 0.0000000000000000e+00  1.1337013578583859e+00 -9.9780179767882338e-01 0.0000000000000000e+00  1.1337014425140739e+00 -9.5414893926400801e-01 0.0000000000000000e+00  1.1337016045243469e+00 -9.1049571173792310e-01 0.0000000000000000e+00  1.1337018299787511e+00 -8.6684214429052331e-01 0.0000000000000000e+00  1.1337021165721046e+00 -8.2318823062371038e-01 0.0000000000000000e+00  1.1337024451671416e+00 -7.7953402872043509e-01 0.0000000000000000e+00  1.1337028534624156e+00 -7.3587955322349885e-01 0.0000000000000000e+00  1.1337032202866484e+00 -6.9222450383520950e-01 0.0000000000000000e+00  1.1337035982363171e+00 -6.4856940858319034e-01 0.0000000000000000e+00  1.1337040470869468e+00 -6.0491420674795260e-01 0.0000000000000000e+00  1.1337043914402851e+00 -5.6125900516585980e-01 0.0000000000000000e+00  1.1337047350696010e+00 -5.1760441607800645e-01 0.0000000000000000e+00  1.1337051544584908e+00 -4.7395017484149465e-01 0.0000000000000000e+00  1.1337056492327551e+00 -4.3029615710624097e-01 0.0000000000000000e+00  1.1337062005067977e+00 -3.8664229709509162e-01 0.0000000000000000e+00  1.1337067760809592e+00 -3.4298859486250516e-01 0.0000000000000000e+00  1.1337073660161330e+00 -2.9933485138101684e-01 0.0000000000000000e+00  1.1337080062791132e+00 -2.5568126962736382e-01 0.0000000000000000e+00  1.1337086942062919e+00 -2.1202765956974204e-01 0.0000000000000000e+00  1.1337094008452187e+00 -1.6837401935115176e-01 0.0000000000000000e+00  1.1337100961461095e+00 -1.2472025496889506e-01 0.0000000000000000e+00  1.1337107711420957e+00 -8.1066508333538359e-02 0.0000000000000000e+00  1.1337114622784690e+00 -3.7412707105183560e-02 0.0000000000000000e+00  1.1337121776415944e+00 6.2411718298754004e-03 0.0000000000000000e+00  1.1337129206807675e+00 4.9895145738801799e-02 0.0000000000000000e+00  1.1337136911924255e+00 9.3549227265360177e-02 0.0000000000000000e+00  1.1337144825192127e+00 1.3720342011262615e-01 0.0000000000000000e+00  1.1337152797245289e+00 1.8085770740763812e-01 0.0000000000000000e+00  1.1337160697603141e+00 2.2451204952384771e-01 0.0000000000000000e+00  1.1337168667203386e+00 2.6816637883268901e-01 0.0000000000000000e+00  1.1337176771073436e+00 3.1182073258997534e-01 0.0000000000000000e+00  1.1337184939430209e+00 3.5547515684174374e-01 0.0000000000000000e+00  1.1337193062685182e+00 3.9912968982106301e-01 0.0000000000000000e+00  1.1337201047874272e+00 4.4278436078569522e-01 0.0000000000000000e+00  1.1337208847641294e+00 4.8643918998073232e-01 0.0000000000000000e+00  1.1337216488025830e+00 5.3009418673340869e-01 0.0000000000000000e+00  1.1337224126315624e+00 5.7374934607587225e-01 0.0000000000000000e+00  1.0896651695541719e+00 -9.5414902681085545e-01 0.0000000000000000e+00  1.0896649128035416e+00 -9.1049593638022863e-01 0.0000000000000000e+00  1.0896648683952592e+00 -8.6684244722346904e-01 0.0000000000000000e+00  1.0896649448815841e+00 -8.2318858956868590e-01 0.0000000000000000e+00  1.0896651815874643e+00 -7.7953438386651053e-01 0.0000000000000000e+00  1.0896654209534946e+00 -7.3588002571989786e-01 0.0000000000000000e+00  1.0896655921712795e+00 -6.9222470588900287e-01 0.0000000000000000e+00  1.0896658238249493e+00 -6.4856960557646792e-01 0.0000000000000000e+00  1.0896662033950963e+00 -6.0491442842937659e-01 0.0000000000000000e+00  1.0896668563028615e+00 -5.6125877961965398e-01 0.0000000000000000e+00  1.0896672870604391e+00 -5.1760429649655382e-01 0.0000000000000000e+00  1.0896677824053973e+00 -4.7395018715446185e-01 0.0000000000000000e+00  1.0896683633651738e+00 -4.3029628404124681e-01 0.0000000000000000e+00  1.0896690251267351e+00 -3.8664251234783986e-01 0.0000000000000000e+00  1.0896697643879407e+00 -3.4298884966901633e-01 0.0000000000000000e+00  1.0896702484004468e+00 -2.9933513831240866e-01 0.0000000000000000e+00  1.0896708266471471e+00 -2.5568155188184677e-01 0.0000000000000000e+00  1.0896714398930696e+00 -2.1202796263372845e-01 0.0000000000000000e+00  1.0896720705342176e+00 -1.6837432903773464e-01 0.0000000000000000e+00  1.0896727053868762e+00 -1.2472060796350469e-01 0.0000000000000000e+00  1.0896733484149730e+00 -8.1066861260145825e-02 0.0000000000000000e+00  1.0896739889861820e+00 -3.7413070657552380e-02 0.0000000000000000e+00  1.0896746383659770e+00 6.2407937823422688e-03 0.0000000000000000e+00  1.0896753053061354e+00 4.9894754094057948e-02 0.0000000000000000e+00  1.0896759972734187e+00 9.3548828989055685e-02 0.0000000000000000e+00  1.0896767181868718e+00 1.3720303313604593e-01 0.0000000000000000e+00  1.0896774610051734e+00 1.8085735985695581e-01 0.0000000000000000e+00  1.0896781968343763e+00 2.2451175184613559e-01 0.0000000000000000e+00  1.0896789400213169e+00 2.6816607339600568e-01 0.0000000000000000e+00  1.0896796874442307e+00 3.1182040935310196e-01 0.0000000000000000e+00  1.0896804197549084e+00 3.5547482271175029e-01 0.0000000000000000e+00  1.0896811190494402e+00 3.9912935422929002e-01 0.0000000000000000e+00  1.0896817723367445e+00 4.4278403019219381e-01 0.0000000000000000e+00  1.0896823703842988e+00 4.8643886528980940e-01 0.0000000000000000e+00  1.0896829055352519e+00 5.3009386012501969e-01 0.0000000000000000e+00  1.0896833697410540e+00 5.7374899301469462e-01 0.0000000000000000e+00  1.0896837548455436e+00 6.1740420388426553e-01 0.0000000000000000e+00  1.0456277892874655e+00 -9.1049608200167775e-01 0.0000000000000000e+00  1.0456276801935849e+00 -8.6684273875130047e-01 0.0000000000000000e+00  1.0456277434659629e+00 -8.2318897688514503e-01 0.0000000000000000e+00  1.0456280269049694e+00 -7.7953512828860849e-01 0.0000000000000000e+00  1.0456288269654221e+00 -7.3588082834486035e-01 0.0000000000000000e+00  1.0456299360015275e+00 -6.9222611894317954e-01 0.0000000000000000e+00  1.0456308510428567e+00 -6.4856981614070208e-01 0.0000000000000000e+00  1.0456309901932157e+00 -6.0491287279795813e-01 0.0000000000000000e+00  1.0456304876001381e+00 -5.6125758971630924e-01 0.0000000000000000e+00  1.0456302225629994e+00 -5.1760364628699629e-01 0.0000000000000000e+00  1.0456303836022514e+00 -4.7394989279932576e-01 0.0000000000000000e+00  1.0456308099954907e+00 -4.3029624466732475e-01 0.0000000000000000e+00  1.0456314002302649e+00 -3.8664264175488722e-01 0.0000000000000000e+00  1.0456320844937781e+00 -3.4298905355557607e-01 0.0000000000000000e+00  1.0456328239476251e+00 -2.9933539438091544e-01 0.0000000000000000e+00  1.0456335118185833e+00 -2.5568182375353199e-01 0.0000000000000000e+00  1.0456341575641086e+00 -2.1202824266876399e-01 0.0000000000000000e+00  1.0456347712845131e+00 -1.6837461640636978e-01 0.0000000000000000e+00  1.0456353628359552e+00 -1.2472092103341398e-01 0.0000000000000000e+00  1.0456359426638222e+00 -8.1067185620990023e-02 0.0000000000000000e+00  1.0456365091