<?xml version="1.0"?>
<VTKFile type="UnstructuredGrid"  version="0.1"  >
<UnstructuredGrid>
<Piece  NumberOfPoints="2380" NumberOfCells="4559">
<Points>
<DataArray  type="Float64"  NumberOfComponents="3"  format="ascii">0 0 0  0.008260869565217391 0 0  0.008260869565217391 0.008333333333333333 0  0 0.008333333333333333 0  0.01652173913043478 0 0  0.01652173913043478 0.008333333333333333 0  0.02478260869565217 0 0  0.02478260869565217 0.008333333333333333 0  0.03304347826086956 0 0  0.03304347826086956 0.008333333333333333 0  0.04130434782608695 0 0  0.04130434782608695 0.008333333333333333 0  0.04956521739130434 0 0  0.04956521739130434 0.008333333333333333 0  0.05782608695652174 0 0  0.05782608695652174 0.008333333333333333 0  0.06608695652173913 0 0  0.06608695652173913 0.008333333333333333 0  0.07434782608695652 0 0  0.07434782608695652 0.008333333333333333 0  0.08260869565217391 0 0  0.08260869565217391 0.008333333333333333 0  0.0908695652173913 0 0  0.0908695652173913 0.008333333333333333 0  0.09913043478260869 0 0  0.09913043478260869 0.008333333333333333 0  0.1073913043478261 0 0  0.1073913043478261 0.008333333333333333 0  0.1156521739130435 0 0  0.1156521739130435 0.008333333333333333 0  0.1239130434782609 0 0  0.1239130434782609 0.008333333333333333 0  0.1321739130434783 0 0  0.1321739130434783 0.008333333333333333 0  0.1404347826086956 0 0  0.1404347826086956 0.008333333333333333 0  0.148695652173913 0 0  0.148695652173913 0.008333333333333333 0  0.1569565217391304 0 0  0.1569565217391304 0.008333333333333333 0  0.1652173913043478 0 0  0.1652173913043478 0.008333333333333333 0  0.1734782608695652 0 0  0.1734782608695652 0.008333333333333333 0  0.1817391304347826 0 0  0.1817391304347826 0.008333333333333333 0  0.19 0 0  0.19 0.008333333333333333 0  0.1982608695652174 0 0  0.1982608695652174 0.008333333333333333 0  0.2065217391304348 0 0  0.2065217391304348 0.008333333333333333 0  0.2147826086956522 0 0  0.2147826086956522 0.008333333333333333 0  0.2230434782608696 0 0  0.2230434782608696 0.008333333333333333 0  0.2313043478260869 0 0  0.2313043478260869 0.008333333333333333 0  0.2395652173913043 0 0  0.2395652173913043 0.008333333333333333 0  0.2478260869565218 0 0  0.2478260869565218 0.008333333333333333 0  0.2560869565217391 0 0  0.2560869565217391 0.008333333333333333 0  0.2643478260869565 0 0  0.2643478260869565 0.008333333333333333 0  0.2726086956521739 0 0  0.2726086956521739 0.008333333333333333 0  0.2808695652173913 0 0  0.2808695652173913 0.008333333333333333 0  0.2891304347826087 0 0  0.2891304347826087 0.008333333333333333 0  0.2973913043478261 0 0  0.2973913043478261 0.008333333333333333 0  0.3056521739130434 0 0  0.3056521739130434 0.008333333333333333 0  0.3139130434782609 0 0  0.3139130434782609 0.008333333333333333 0  0.3221739130434783 0 0  0.3221739130434783 0.008333333333333333 0  0.3304347826086956 0 0  0.3304347826086956 0.008333333333333333 0  0.338695652173913 0 0  0.338695652173913 0.008333333333333333 0  0.3469565217391304 0 0  0.3469565217391304 0.008333333333333333 0  0.3552173913043478 0 0  0.3552173913043478 0.008333333333333333 0  0.3634782608695652 0 0  0.3634782608695652 0.008333333333333333 0  0.3717391304347826 0 0  0.3717391304347826 0.008333333333333333 0  0.3799999999999999 0 0  0.3799999999999999 0.008333333333333333 0  0.3882608695652174 0 0  0.3882608695652174 0.008333333333333333 0  0.008260869565217391 0.01666666666666667 0  0 0.01666666666666667 0  0.01652173913043478 0.01666666666666667 0  0.02478260869565217 0.01666666666666667 0  0.03304347826086956 0.01666666666666667 0  0.04130434782608695 0.01666666666666667 0  0.04956521739130434 0.01666666666666667 0  0.05782608695652174 0.01666666666666667 0  0.06608695652173913 0.01666666666666667 0  0.07434782608695652 0.01666666666666667 0  0.08260869565217391 0.01666666666666667 0  0.0908695652173913 0.01666666666666667 0  0.09913043478260869 0.01666666666666667 0  0.1073913043478261 0.01666666666666667 0  0.1156521739130435 0.01666666666666667 0  0.1239130434782609 0.01666666666666667 0  0.1321739130434783 0.01666666666666667 0  0.1404347826086956 0.01666666666666667 0  0.148695652173913 0.01666666666666667 0  0.1569565217391304 0.01666666666666667 0  0.1652173913043478 0.01666666666666667 0  0.1734782608695652 0.01666666666666667 0  0.1817391304347826 0.01666666666666667 0  0.19 0.01666666666666667 0  0.1982608695652174 0.01666666666666667 0  0.2065217391304348 0.01666666666666667 0  0.2147826086956522 0.01666666666666667 0  0.2230434782608696 0.01666666666666667 0  0.2313043478260869 0.01666666666666667 0  0.2395652173913043 0.01666666666666667 0  0.2478260869565218 0.01666666666666667 0  0.2560869565217391 0.01666666666666667 0  0.2643478260869565 0.01666666666666667 0  0.2726086956521739 0.01666666666666667 0  0.2808695652173913 0.01666666666666667 0  0.2891304347826087 0.01666666666666667 0  0.2973913043478261 0.01666666666666667 0  0.3056521739130434 0.01666666666666667 0  0.3139130434782609 0.01666666666666667 0  0.3221739130434783 0.01666666666666667 0  0.3304347826086956 0.01666666666666667 0  0.338695652173913 0.01666666666666667 0  0.3469565217391304 0.01666666666666667 0  0.3552173913043478 0.01666666666666667 0  0.3634782608695652 0.01666666666666667 0  0.3717391304347826 0.01666666666666667 0  0.3799999999999999 0.01666666666666667 0  0.3882608695652174 0.01666666666666667 0  0.3965217391304348 0.01666666666666667 0  0.008260869565217391 0.025 0  0 0.025 0  0.01652173913043478 0.025 0  0.02478260869565217 0.025 0  0.03304347826086956 0.025 0  0.04130434782608695 0.025 0  0.04956521739130434 0.025 0  0.05782608695652174 0.025 0  0.06608695652173913 0.025 0  0.07434782608695652 0.025 0  0.08260869565217391 0.025 0  0.0908695652173913 0.025 0  0.09913043478260869 0.025 0  0.1073913043478261 0.025 0  0.1156521739130435 0.025 0  0.1239130434782609 0.025 0  0.1321739130434783 0.025 0  0.1404347826086956 0.025 0  0.148695652173913 0.025 0  0.1569565217391304 0.025 0  0.1652173913043478 0.025 0  0.1734782608695652 0.025 0  0.1817391304347826 0.025 0  0.19 0.025 0  0.1982608695652174 0.025 0  0.2065217391304348 0.025 0  0.2147826086956522 0.025 0  0.2230434782608696 0.025 0  0.2313043478260869 0.025 0  0.2395652173913043 0.025 0  0.2478260869565218 0.025 0  0.2560869565217391 0.025 0  0.2643478260869565 0.025 0  0.2726086956521739 0.025 0  0.2808695652173913 0.025 0  0.2891304347826087 0.025 0  0.2973913043478261 0.025 0  0.3056521739130434 0.025 0  0.3139130434782609 0.025 0  0.3221739130434783 0.025 0  0.3304347826086956 0.025 0  0.338695652173913 0.025 0  0.3469565217391304 0.025 0  0.3552173913043478 0.025 0  0.3634782608695652 0.025 0  0.3717391304347826 0.025 0  0.3799999999999999 0.025 0  0.3882608695652174 0.025 0  0.3965217391304348 0.025 0  0.4047826086956521 0.025 0  0.008260869565217391 0.03333333333333333 0  0 0.03333333333333333 0  0.01652173913043478 0.03333333333333333 0  0.02478260869565217 0.03333333333333333 0  0.03304347826086956 0.03333333333333333 0  0.04130434782608695 0.03333333333333333 0  0.04956521739130434 0.03333333333333333 0  0.05782608695652174 0.03333333333333333 0  0.06608695652173913 0.03333333333333333 0  0.07434782608695652 0.03333333333333333 0  0.08260869565217391 0.03333333333333333 0  0.0908695652173913 0.03333333333333333 0  0.09913043478260869 0.03333333333333333 0  0.1073913043478261 0.03333333333333333 0  0.1156521739130435 0.03333333333333333 0  0.1239130434782609 0.03333333333333333 0  0.1321739130434783 0.03333333333333333 0  0.1404347826086956 0.03333333333333333 0  0.148695652173913 0.03333333333333333 0  0.1569565217391304 0.03333333333333333 0  0.1652173913043478 0.03333333333333333 0  0.1734782608695652 0.03333333333333333 0  0.1817391304347826 0.03333333333333333 0  0.19 0.03333333333333333 0  0.1982608695652174 0.03333333333333333 0  0.2065217391304348 0.03333333333333333 0  0.2147826086956522 0.03333333333333333 0  0.2230434782608696 0.03333333333333333 0  0.2313043478260869 0.03333333333333333 0  0.2395652173913043 0.03333333333333333 0  0.2478260869565218 0.03333333333333333 0  0.2560869565217391 0.03333333333333333 0  0.2643478260869565 0.03333333333333333 0  0.2726086956521739 0.03333333333333333 0  0.2808695652173913 0.03333333333333333 0  0.2891304347826087 0.03333333333333333 0  0.2973913043478261 0.03333333333333333 0  0.3056521739130434 0.03333333333333333 0  0.3139130434782609 0.03333333333333333 0  0.3221739130434783 0.03333333333333333 0  0.3304347826086956 0.03333333333333333 0  0.338695652173913 0.03333333333333333 0  0.3469565217391304 0.03333333333333333 0  0.3552173913043478 0.03333333333333333 0  0.3634782608695652 0.03333333333333333 0  0.3717391304347826 0.03333333333333333 0  0.3799999999999999 0.03333333333333333 0  0.3882608695652174 0.03333333333333333 0  0.3965217391304348 0.03333333333333333 0  0.4047826086956521 0.03333333333333333 0  0.4130434782608696 0.03333333333333333 0  0.008260869565217391 0.04166666666666666 0  0 0.04166666666666666 0  0.01652173913043478 0.04166666666666666 0  0.02478260869565217 0.04166666666666666 0  0.03304347826086956 0.04166666666666666 0  0.04130434782608695 0.04166666666666666 0  0.04956521739130434 0.04166666666666666 0  0.05782608695652174 0.04166666666666666 0  0.06608695652173913 0.04166666666666666 0  0.07434782608695652 0.04166666666666666 0  0.08260869565217391 0.04166666666666666 0  0.0908695652173913 0.04166666666666666 0  0.09913043478260869 0.04166666666666666 0  0.1073913043478261 0.04166666666666666 0  0.1156521739130435 0.04166666666666666 0  0.1239130434782609 0.04166666666666666 0  0.1321739130434783 0.04166666666666666 0  0.1404347826086956 0.04166666666666666 0  0.148695652173913 0.04166666666666666 0  0.1569565217391304 0.04166666666666666 0  0.1652173913043478 0.04166666666666666 0  0.1734782608695652 0.04166666666666666 0  0.1817391304347826 0.04166666666666666 0  0.19 0.04166666666666666 0  0.1982608695652174 0.04166666666666666 0  0.2065217391304348 0.04166666666666666 
[...]
<PointData  Vectors="Displacement"> 
<DataArray  type="Float64"  Name="Displacement"  NumberOfComponents="3" format="ascii">0.0000000000000000e+00 0.0000000000000000e+00 0.0000000000000000e+00  2.1651244852869730e-02 1.3883180675622135e-02 0.0000000000000000e+00  2.0140688166456037e-02 3.0602955172618481e-03 0.0000000000000000e+00  0.0000000000000000e+00 0.0000000000000000e+00 0.0000000000000000e+00  4.1447893516029989e-02 1.4050932915449087e-02 0.0000000000000000e+00  4.6038990385156089e-02 1.9759356588678711e-03 0.0000000000000000e+00  5.8833989030256516e-02 4.6760918066531898e-03 0.0000000000000000e+00  7.4237009558537806e-02 -4.1048179584115769e-03 0.0000000000000000e+00  7.4311414960622171e-02 -1.9746554513481545e-02 0.0000000000000000e+00  9.6513849321358203e-02 -2.4839241300519177e-02 0.0000000000000000e+00  9.3648345134263511e-02 -4.8924395760533083e-02 0.0000000000000000e+00  1.0803397174682138e-01 -5.5976389968827665e-02 0.0000000000000000e+00  1.1957198078598769e-01 -6.5647333492922538e-02 0.0000000000000000e+00  1.1854882290768662e-01 -7.5693834128182008e-02 0.0000000000000000e+00  1.5930333133865812e-01 -6.1109671899824018e-02 0.0000000000000000e+00  1.3434636454704121e-01 -8.4988120445006671e-02 0.0000000000000000e+00  2.0253771202958054e-01 -3.4559150838835533e-02 0.0000000000000000e+00  1.7871110844086835e-01 -5.6919652051381962e-02 0.0000000000000000e+00  2.5190363028991813e-01 -2.4327417838477961e-02 0.0000000000000000e+00  2.3196293375544505e-01 -5.1421015536682678e-02 0.0000000000000000e+00  3.1048898409942166e-01 -1.8550537375595262e-02 0.0000000000000000e+00  2.9280782747046918e-01 -5.0107712653161128e-02 0.0000000000000000e+00  3.7796829810742733e-01 -1.1799684865749066e-02 0.0000000000000000e+00  3.6058821574883843e-01 -4.7720102001170314e-02 0.0000000000000000e+00  4.5359465095127888e-01 -2.0137040411736416e-03 0.0000000000000000e+00  4.3615344873432427e-01 -4.2853753168081037e-02 0.0000000000000000e+00  5.3644233607667491e-01 1.1547982815045960e-02 0.0000000000000000e+00  5.2161284882164360e-01 -3.5234853986911896e-02 0.0000000000000000e+00  6.2283382020326905e-01 2.8126878074481623e-02 0.0000000000000000e+00  6.1955939082122513e-01 -2.3697738559124885e-02 0.0000000000000000e+00  6.9720472429024616e-01 2.8963804079172775e-02 0.0000000000000000e+00  7.3090857165280521e-01 -1.0326069857354903e-02 0.0000000000000000e+00  7.5266214843809354e-01 -2.0631831382717798e-02 0.0000000000000000e+00  8.2235802022856019e-01 -4.0496688533920668e-02 0.0000000000000000e+00  8.0333561725129277e-01 -9.1061912015234781e-02 0.0000000000000000e+00  8.6290582848906816e-01 -1.1063237118583347e-01 0.0000000000000000e+00  8.4731903500652694e-01 -1.2557006033672707e-01 0.0000000000000000e+00  8.8408786232536973e-01 -1.4057371819565675e-01 0.0000000000000000e+00  8.8304935559919551e-01 -1.3624890225341268e-01 0.0000000000000000e+00  8.9889423417010472e-01 -1.4951821004630217e-01 0.0000000000000000e+00  9.0972169373903500e-01 -1.3543389358010380e-01 0.0000000000000000e+00  9.1569114076134883e-01 -1.4378615653395971e-01 0.0000000000000000e+00  9.2502150337651645e-01 -1.1829749077206626e-01 0.0000000000000000e+00  9.1988080169315756e-01 -1.2140429472239704e-01 0.0000000000000000e+00  9.3047407437690388e-01 -9.4685598985495487e-02 0.0000000000000000e+00  9.1766965490498353e-01 -9.4870495128535737e-02 0.0000000000000000e+00  9.2973535996245060e-01 -7.1400499428723063e-02 0.0000000000000000e+00  9.1442309192475768e-01 -7.0529983262374973e-02 0.0000000000000000e+00  9.2473101118083123e-01 -5.1779567709064798e-02 0.0000000000000000e+00  9.1215321362274582e-01 -4.9409212052990217e-02 0.0000000000000000e+00  9.1529615912188167e-01 -3.5002613689014382e-02 0.0000000000000000e+00  9.0692635500959273e-01 -3.0540057671600597e-02 0.0000000000000000e+00  9.0142052727181088e-01 -2.3267047924823720e-02 0.0000000000000000e+00  8.9830909709678064e-01 -1.6853929293565044e-02 0.0000000000000000e+00  8.8397088728956597e-01 -1.9928220887140399e-02 0.0000000000000000e+00  8.8737636621130900e-01 -1.1711840143261761e-02 0.0000000000000000e+00  8.6520722783993764e-01 -2.6053650877093444e-02 0.0000000000000000e+00  8.7393113550873047e-01 -1.7409182473020323e-02 0.0000000000000000e+00  8.5118541247260238e-01 -3.9416786354675527e-02 0.0000000000000000e+00  8.6106441790110322e-01 -3.6436686596875816e-02 0.0000000000000000e+00  8.4424734051623984e-01 -6.9860521942030976e-02 0.0000000000000000e+00  8.6590099968679113e-01 -6.8220875949745269e-02 0.0000000000000000e+00  8.4059616456227682e-01 -9.7591424473985486e-02 0.0000000000000000e+00  8.6395223283039324e-01 -9.5211926816423501e-02 0.0000000000000000e+00  8.4012620740104993e-01 -1.2533162799057984e-01 0.0000000000000000e+00  8.5988381251854529e-01 -1.2413620170747471e-01 0.0000000000000000e+00  8.4740601688855366e-01 -1.5350749063712354e-01 0.0000000000000000e+00  8.5964265910031656e-01 -1.5709472681798894e-01 0.0000000000000000e+00  8.7377959221789014e-01 -1.6671916279807533e-01 0.0000000000000000e+00  8.6820274040866341e-01 -1.9029327977224872e-01 0.0000000000000000e+00  8.9942242005502160e-01 -1.5837448398417134e-01 0.0000000000000000e+00  9.1475054602227235e-01 -1.7554674902967374e-01 0.0000000000000000e+00  9.1973197340632806e-01 -1.8932148152596806e-01 0.0000000000000000e+00  9.6382936533592367e-01 -2.0193217080866219e-01 0.0000000000000000e+00  9.3982192881679194e-01 -2.4935967750249785e-01 0.0000000000000000e+00  1.0007361790430798e+00 -2.6046403522564615e-01 0.0000000000000000e+00  9.5940613957516974e-01 -3.0935589276829056e-01 0.0000000000000000e+00  1.0236219403660147e+00 -3.2002640966125462e-01 0.0000000000000000e+00  9.7444031692664201e-01 -3.6841318121331157e-01 0.0000000000000000e+00  1.0438342619738477e+00 -3.7574201294623572e-01 0.0000000000000000e+00  9.8783804401567077e-01 -4.4042373766625642e-01 0.0000000000000000e+00  1.0623801512089301e+00 -4.4775497653210894e-01 0.0000000000000000e+00  1.0041795979798547e+00 -5.2250660873821231e-01 0.0000000000000000e+00  1.0820252773050003e+00 -5.3167327530623287e-01 0.0000000000000000e+00  1.0266515775230272e+00 -6.1042407129177967e-01 0.0000000000000000e+00  1.1052345304664442e+00 -6.2255221114600612e-01 0.0000000000000000e+00  1.0573520080475085e+00 -7.0110896006922296e-01 0.0000000000000000e+00  1.1340111254094063e+00 -7.1660688875870626e-01 0.0000000000000000e+00  1.0986933920026569e+00 -7.9514711899651358e-01 0.0000000000000000e+00  1.1701283044071480e+00 -8.1389807804926451e-01 0.0000000000000000e+00  1.1544705777815434e+00 -8.9581756388604994e-01 0.0000000000000000e+00  1.2138975832802616e+00 -9.1603459876337801e-01 0.0000000000000000e+00  1.2331519281493599e+00 -1.0150658472465879e+00 0.0000000000000000e+00  1.2639186811182634e+00 -1.0315302887306728e+00 0.0000000000000000e+00  1.3538813137003762e+00 -1.1724129005428348e+00 0.0000000000000000e+00  1.3098452007575661e+00 -1.1724130104145705e+00 0.0000000000000000e+00  2.0220869797882259e-02 -6.5451611460937819e-03 0.0000000000000000e+00  0.0000000000000000e+00 0.0000000000000000e+00 0.0000000000000000e+00  4.7238479874680002e-02 -1.3444691893050814e-02 0.0000000000000000e+00  8.1650517758460023e-02 -2.2204400075814167e-02 0.0000000000000000e+00  1.2792421345199650e-01 -2.4839324383298951e-02 0.0000000000000000e+00  1.2792437813347921e-01 -5.5976498484107302e-02 0.0000000000000000e+00  1.2792458405658505e-01 -7.5693941972972537e-02 0.0000000000000000e+00  1.2792479711927429e-01 -8.4988228579017125e-02 0.0000000000000000e+00  1.2792498328730711e-01 -7.8622660254363527e-02 0.0000000000000000e+00  1.9378179932415057e-01 -8.0495211809219883e-02 0.0000000000000000e+00  2.5887362562324295e-01 -8.2681098199020503e-02 0.0000000000000000e+00  3.2635729796340102e-01 -8.3624114571946656e-02 0.0000000000000000e+00  3.9987754732399128e-01 -8.4081991467070127e-02 0.0000000000000000e+00  4.8454121479729800e-01 -8.5596202788894710e-02 0.0000000000000000e+00  5.8669530024276639e-01 -8.6882256359953086e-02 0.0000000000000000e+00  7.1541078406578062e-01 -8.4756954815449134e-02 0.0000000000000000e+00  8.9310940843290521e-01 -4.0497035117358658e-02 0.0000000000000000e+00  8.9311007446188462e-01 -1.1063284833919675e-01 0.0000000000000000e+00  8.9311096168764437e-01 -1.4057423735229607e-01 0.0000000000000000e+00  8.9311198133224012e-01 -1.4951878270752997e-01 0.0000000000000000e+00  8.9311312238438767e-01 -1.4378678837954953e-01 0.0000000000000000e+00  8.9311436445350911e-01 -1.2140495821391049e-01 0.0000000000000000e+00  8.9311569649142408e-01 -9.4871194258699429e-02 0.0000000000000000e+00  8.9311711182315312e-01 -7.0530725592847010e-02 0.0000000000000000e+00  8.9311861308503215e-01 -4.9410013870326917e-02 0.0000000000000000e+00  8.9312022668101243e-01 -3.0540899695569473e-02 0.0000000000000000e+00  8.9312192529771728e-01 -1.6854793073386352e-02 0.0000000000000000e+00  8.9312367394637104e-01 -1.1712710326109070e-02 0.0000000000000000e+00  8.9312543941273836e-01 -1.7410031440732093e-02 0.0000000000000000e+00  8.9312716918478730e-01 -3.6437454972358757e-02 0.0000000000000000e+00  8.9312874648740437e-01 -6.8221567813035247e-02 0.0000000000000000e+00  8.9313011979080481e-01 -9.5212504753327945e-02 0.0000000000000000e+00  8.9313128581883128e-01 -1.2413666782189367e-01 0.0000000000000000e+00  8.9313223803537412e-01 -1.5709508635413186e-01 0.0000000000000000e+00  8.9313297183049856e-01 -1.9029354961227013e-01 0.0000000000000000e+00  8.9313346771685653e-01 -2.1500718411184189e-01 0.0000000000000000e+00  1.0087352698887395e+00 -2.2973279525320700e-01 0.0000000000000000e+00  1.0792791840391522e+00 -2.6046411931735697e-01 0.0000000000000000e+00  1.0792793188543111e+00 -3.3832401573788506e-01 0.0000000000000000e+00  1.1138141945356694e+00 -3.8147667128948987e-01 0.0000000000000000e+00  1.1341261233304525e+00 -4.5272111203813237e-01 0.0000000000000000e+00  1.1505063696755504e+00 -5.3772396199490713e-01 0.0000000000000000e+00  1.1669085933015444e+00 -6.3009057299871540e-01 0.0000000000000000e+00  1.1849327187918512e+00 -7.2483707239660089e-01 0.0000000000000000e+00  1.2058856801406437e+00 -8.2125447702737098e-01 0.0000000000000000e+00  1.2279310131073522e+00 -9.1677572440422495e-01 0.0000000000000000e+00  1.2473823758253371e+00 -1.0171079686889104e+00 0.0000000000000000e+00  1.2573270359235509e+00 -1.1187871811106287e+00 0.0000000000000000e+00  1.2658086522661549e+00 -1.1287601227222435e+00 0.0000000000000000e+00  1.4052459117640663e-02 -1.2155276708643954e-02 0.0000000000000000e+00  0.0000000000000000e+00 0.0000000000000000e+00 0.0000000000000000e+00  3.0618567343721703e-02 -2.3612303182904828e-02 0.0000000000000000e+00  5.1231648356757406e-02 -3.4535914441659321e-02 0.0000000000000000e+00  7.1765937989144588e-02 -4.1057667846506204e-02 0.0000000000000000e+00  8.9380689509192188e-02 -5.4752943523266998e-02 0.0000000000000000e+00  9.9958829108821021e-02 -7.3077501680783946e-02 0.0000000000000000e+00  1.1317079264963814e-01 -8.5590924131604712e-02 0.0000000000000000e+00  1.3526753005888414e-01 -9.1253982156504418e-02 0.0000000000000000e+00  1.7237258828334664e-01 -1.0836656209172038e-01 0.0000000000000000e+00  2.2187876485077399e-01 -1.1241883873883071e-01 0.0000000000000000e+00  2.7672949362608279e-01 -1.1426589233169328e-01 0.0000000000000000e+00  3.3623351392236867e-01 -1.1733424073339996e-01 0.0000000000000000e+00  4.0247699798806941e-01 -1.2520205414432842e-01 0.0000000000000000e+00  4.7669622453284527e-01 -1.3431158242933719e-01 0.0000000000000000e+00  5.5700734562527288e-01 -1.3917639802578702e-01 0.0000000000000000e+00  6.3527248707026218e-01 -1.1976562605452237e-01 0.0000000000000000e+00  6.9877569514781657e-01 -1.1651211350211756e-01 0.0000000000000000e+00  7.2513374095227268e-01 -1.3606636778249778e-01 0.0000000000000000e+00  7.4411882258003137e-01 -1.4560010732625428e-01 0.0000000000000000e+00  7.5496643654717521e-01 -1.6466896953178786e-01 0.0000000000000000e+00  7.5496648654959764e-01 -1.1346212247812852e-01 0.0000000000000000e+00  7.5496662548646687e-01 -8.5940251658692332e-02 0.0000000000000000e+00  7.5496683060290770e-01 -6.6300565215833523e-02 0.0000000000000000e+00  7.5496706655539780e-01 -5.3716534744507521e-02 0.0000000000000000e+00  7.5496729260331874e-01 -5.6292285518021012e-02 0.0000000000000000e+00  8.2440302265149801e-01 -3.6438128928966002e-02 0.0000000000000000e+00  8.8545333681252592e-01 -3.6033663592018782e-02 0.0000000000000000e+00  9.5818747875707733e-01 -4.7783080337870674e-02 0.0000000000000000e+00  1.0610711424508816e+00 -7.2531484447241404e-02 0.0000000000000000e+00  1.2217158271069430e+00 -1.0015133215870647e-01 0.0000000000000000e+00  1.2217165335962230e+00 -8.9098457214826579e-02 0.0000000000000000e+00  1.2217176537827372e+00 -1.1378965354209276e-01 0.0000000000000000e+00  1.2217191560890643e+00 -1.4887057606608650e-01 0.0000000000000000e+00  1.2217210268318417e+00 -1.8941756970566370e-01 0.0000000000000000e+00  1.2217231894267413e+00 -2.2024543979290115e-01 0.0000000000000000e+00  1.2217256228948381e+00 -2.5188821417461355e-01 0.0000000000000000e+00  1.2217283186791359e+00 -2.8576848766221813e-01 0.0000000000000000e+00  1.2217311923834711e+00 -3.2771389811650864e-01 0.0000000000000000e+00  1.2217341968981870e+00 -3.7770471813504747e-01 0.0000000000000000e+00  1.2217373771551145e+00 -4.4863515112869135e-01 0.0000000000000000e+00  1.2217407047160584e+00 -5.3447176538916175e-01 0.0000000000000000e+00  1.2217441601927435e+00 -6.2766916595396260e-01 0.0000000000000000e+00  1.2217477604254368e+00 -7.2070307518718157e-01 0.0000000000000000e+00  1.2217515080886399e+00 -8.1483774893232164e-01 0.0000000000000000e+00  1.2217553194601272e+00 -9.0077738431297305e-01 0.0000000000000000e+00  1.2217591373262005e+00 -9.8708937407659170e-01 0.0000000000000000e+00  1.2217629505826864e+00 -1.0721051951071452e+00 0.0000000000000000e+00  1.2217668207602390e+00 -1.1287548182000944e+00 0.0000000000000000e+00  1.2217705210426093e+00 -1.0851063535646432e+00 0.0000000000000000e+00  7.4770675386838488e-03 -1.1822224278134669e-02 0.0000000000000000e+00  0.0000000000000000e+00 0.0000000000000000e+00 0.0000000000000000e+00  1.3943422716927698e-02 -2.4190467088690069e-02 0.0000000000000000e+00  1.9165858287160088e-02 -4.1460377814049799e-02 0.0000000000000000e+00  3.6114695888270106e-02 -4.4495047213516166e-02 0.0000000000000000e+00  5.0434506300505930e-02 -6.0234020602486379e-02 0.0000000000000000e+00  6.4385751202656924e-02 -7.6705618783117879e-02 0.0000000000000000e+00  7.9623434351435610e-02 -9.2604495513702714e-02 0.0000000000000000e+00  1.0084105759292304e-01 -1.0640012709860211e-01 0.0000000000000000e+00  1.3038465430527793e-01 -1.2390325660540827e-01 0.0000000000000000e+00  1.6691425253363726e-01 -1.3237018838022216e-01 0.0000000000000000e+00  2.0983846325134264e-01 -1.3468678777232002e-01 0.0000000000000000e+00  2.5565941888030785e-01 -1.3779439790008516e-01 0.0000000000000000e+00  3.0522670114102407e-01 -1.4985960549821853e-01 0.0000000000000000e+00  3.5900480030658999e-01 -1.6394128297476837e-01 0.0000000000000000e+00  4.1705086859283691e-01 -1.7226680240463471e-01 0.0000000000000000e+00  4.7040340674329484e-01 -1.5276944544101723e-01 0.0000000000000000e+00  5.2151199335545895e-01 -1.4742617783041848e-01 0.0000000000000000e+00  5.6652266698182308e-01 -1.5145460690133866e-01 0.0000000000000000e+00  6.0513477396685800e-01 -1.5775620521808947e-01 0.0000000000000000e+00  6.4624486579546614e-01 -1.6098316862444687e-01 0.0000000000000000e+00  7.0330992313297702e-01 -1.1346216734609110e-01 0.0000000000000000e+00  7.2720291906493151e-01 -8.5940338246050324e-02 0.0000000000000000e+00  7.3515458141875589e-01 -6.6300689307835864e-02 0.0000000000000000e+00  7.4227247806935603e-01 -5.3716690299551784e-02 0.0000000000000000e+00  7.5756556757383331e-01 -5.6292448263280337e-02 0.0000000000000000e+00  7.8635730349655275e-01 -7.5812844978999330e-02 0.0000000000000000e+00  8.4389506569287087e-01 -7.9582777108195779e-02 0.0000000000000000e+00  9.1500114851803460e-01 -9.5338493062887830e-02 0.0000000000000000e+00  9.9971759623580314e-01 -1.2257548405871982e-01 0.0000000000000000e+00  1.0965108815385880e+00 -1.4606531099447537e-01 0.0000000000000000e+00  1.2105659269206246e+00 -8.9098858547317666e-02 0.0000000000000000e+00  1.2466248732527414e+00 -1.1379021619517725e-01 0.0000000000000000e+00  1.2571073344471353e+00 -1.4887132840446793e-01 0.0000000000000000e+00  1.2626233064500885e+00 -1.8941853316099336e-01 0.0000000000000000e+00  1.2528212387859849e+00 -2.2024649717701483e-01 0.0000000000000000e+00  1.2536456162523835e+00 -2.5188939034426416e-01 0.0000000000000000e+00  1.2559054744850138e+00 -2.8576981218137570e-01 0.0000000000000000e+00  1.2640441758533378e+00 -3.2771531180978897e-01 0.0000000000000000e+00  1.2721631837689278e+00 -3.7770616335224150e-01 0.0000000000000000e+00  1.2932895830186080e+00 -4.4863670892512209e-01 0.0000000000000000e+00  1.3083298380641326e+00 -5.3447339247591574e-01 0.0000000000000000e+00  1.3157586122408054e+00 -6.2767084798365258e-01 0.0000000000000000e+00  1.3155972181689481e+00 -7.2070485265189099e-01 0.0000000000000000e+00  1.3167114261451214e+00 -8.1483961424613738e-01 0.0000000000000000e+00  1.3084484451289862e+00 -9.0077920981015491e-01 0.0000000000000000e+00  1.3088278066417975e+00 -9.8709113525533143e-01 0.0000000000000000e+00  1.3075238438745933e+00 -1.0721068568731436e+00 0.0000000000000000e+00  1.2789122009241989e+00 -1.1287563981692563e+00 0.0000000000000000e+00  1.1777367860017842e+00 -1.0851070209907936e+00 0.0000000000000000e+00  1.1777368327770965e+00 -1.0414542915100033e+00 0.0000000000000000e+00  3.8216856300394217e-03 -8.4710792675827713e-03 0.0000000000000000e+00  0.0000000000000000e+00 0.0000000000000000e+00 0.0000000000000000e+00  9.2198285066781623e-03 -2.0408245207974927e-02 0.0000000000000000e+00  1.6320171365159095e-02 -4.1460376271210235e-02 0.0000000000000000e+00  1.6320174590893213e-02 -3.8639584183861403e-02 0.0000000000000000e+00  1.8251889814596738e-02 -6.1446852178293328e-02 0.0000000000000000e+00  2.4661201454179389e-02 -7.9437564664558521e-02 0.0000000000000000e+00  3.3752058295042887e-02 -9.7868845437062091e-02 0.0000000000000000e+00  4.6854060512583617e-02 -1.1613838361571195e-01 0.0000000000000000e+00  6.5452871213371913e-02 -1.3483278737058871e-01 0.0000000000000000e+00  9.1105584469746689e-02 -1.4632973653300413e-01 0.0000000000000000e+00  1.2686906834963527e-01 -1.4746879824684303e-01 0.0000000000000000e+00  1.6486495516920488e-01 -1.4710002204317646e-01 0.0000000000000000e+00  2.0462570027443658e-01 -1.6236477761606000e-01 0.0000000000000000e+00  2.4417805574827262e-01 -1.8137437546991794e-01 0.0000000000000000e+00  2.8631405338570953e-01 -1.9819728086309882e-01 0.0000000000000000e+00  3.2382438331512420e-01 -1.6876507395262436e-01 0.0000000000000000e+00  3.6436919513461824e-01 -1.6977093745633512e-01 0.0000000000000000e+00  4.0543711077345423e-01 -1.7296659898886552e-01 0.0000000000000000e+00  4.4322485216579194e-01 -1.7582742527173875e-01 0.0000000000000000e+00  4.7831350629988895e-01 -1.7358582175901949e-01 0.0000000000000000e+00  5.1357822766634942e-01 -1.4512856219834738e-01 0.0000000000000000e+00  5.5165416544290968e-01 -1.1097579984633328e-01 0.0000000000000000e+00  5.8431146970480441e-01 -8.8721580802004707e-02 0.0000000000000000e+00  6.1842253166564864e-01 -8.1543785699251664e-02 0.0000000000000000e+00  6.6002222126659349e-01 -8.9190958243646173e-02 0.0000000000000000e+00  7.0555480093706169e-01 -1.0133032666469276e-01 0.0000000000000000e+00  7.5611783691346812e-01 -1.1461904968208235e-01 0.0000000000000000e+00  8.1634227133478354e-01 -1.3172684550860791e-01 0.0000000000000000e+00  8.8089504950683295e-01 -1.5435995783178985e-01 0.0000000000000000e+00  9.4477512481422465e-01 -1.6927193057859258e-01 0.0000000000000000e+00  1.0071648423239905e+00 -1.4521874495414661e-01 0.0000000000000000e+00  1.0674500835676546e+00 -1.3714448413133148e-01 0.0000000000000000e+00  1.1029695189508870e+00 -1.5637726525115070e-01 0.0000000000000000e+00  1.11384820