<?xml version="1.0"?>
<VTKFile type="UnstructuredGrid"  version="0.1"  >
<UnstructuredGrid>
<Piece  NumberOfPoints="2403" NumberOfCells="4562">
<Points>
<DataArray  type="Float64"  NumberOfComponents="3"  format="ascii">0 0.25 0  0.008260869565217391 0.25 0  0.008260869565217391 0.2583333333333334 0  0 0.2583333333333334 0  0.01652173913043478 0.2583333333333334 0  0.008260869565217391 0.2666666666666667 0  0 0.2666666666666667 0  0.01652173913043478 0.2666666666666667 0  0.02478260869565217 0.2583333333333334 0  0.02478260869565217 0.2666666666666667 0  0.03304347826086956 0.2583333333333334 0  0.03304347826086956 0.2666666666666667 0  0.04130434782608695 0.2583333333333334 0  0.04130434782608695 0.2666666666666667 0  0.04956521739130434 0.2583333333333334 0  0.04956521739130434 0.2666666666666667 0  0.05782608695652174 0.2583333333333334 0  0.05782608695652174 0.2666666666666667 0  0.06608695652173913 0.2583333333333334 0  0.06608695652173913 0.2666666666666667 0  0.07434782608695652 0.2583333333333334 0  0.07434782608695652 0.2666666666666667 0  0.08260869565217391 0.2583333333333334 0  0.08260869565217391 0.2666666666666667 0  0.0908695652173913 0.2583333333333334 0  0.0908695652173913 0.2666666666666667 0  0.09913043478260869 0.2583333333333334 0  0.09913043478260869 0.2666666666666667 0  0.1073913043478261 0.2583333333333334 0  0.1073913043478261 0.2666666666666667 0  0.1156521739130435 0.2583333333333334 0  0.1156521739130435 0.2666666666666667 0  0.1239130434782609 0.2583333333333334 0  0.1239130434782609 0.2666666666666667 0  0.1321739130434783 0.2583333333333334 0  0.1321739130434783 0.2666666666666667 0  0.1404347826086956 0.2583333333333334 0  0.1404347826086956 0.2666666666666667 0  0.148695652173913 0.2666666666666667 0  0.008260869565217391 0.275 0  0 0.275 0  0.01652173913043478 0.275 0  0.02478260869565217 0.275 0  0.03304347826086956 0.275 0  0.04130434782608695 0.275 0  0.04956521739130434 0.275 0  0.05782608695652174 0.275 0  0.06608695652173913 0.275 0  0.07434782608695652 0.275 0  0.08260869565217391 0.275 0  0.0908695652173913 0.275 0  0.09913043478260869 0.275 0  0.1073913043478261 0.275 0  0.1156521739130435 0.275 0  0.1239130434782609 0.275 0  0.1321739130434783 0.275 0  0.1404347826086956 0.275 0  0.148695652173913 0.275 0  0.1569565217391304 0.275 0  0.008260869565217391 0.2833333333333333 0  0 0.2833333333333333 0  0.01652173913043478 0.2833333333333333 0  0.02478260869565217 0.2833333333333333 0  0.03304347826086956 0.2833333333333333 0  0.04130434782608695 0.2833333333333333 0  0.04956521739130434 0.2833333333333333 0  0.05782608695652174 0.2833333333333333 0  0.06608695652173913 0.2833333333333333 0  0.07434782608695652 0.2833333333333333 0  0.08260869565217391 0.2833333333333333 0  0.0908695652173913 0.2833333333333333 0  0.09913043478260869 0.2833333333333333 0  0.1073913043478261 0.2833333333333333 0  0.1156521739130435 0.2833333333333333 0  0.1239130434782609 0.2833333333333333 0  0.1321739130434783 0.2833333333333333 0  0.1404347826086956 0.2833333333333333 0  0.148695652173913 0.2833333333333333 0  0.1569565217391304 0.2833333333333333 0  0.1652173913043478 0.2833333333333333 0  0.008260869565217391 0.2916666666666667 0  0 0.2916666666666667 0  0.01652173913043478 0.2916666666666667 0  0.02478260869565217 0.2916666666666667 0  0.03304347826086956 0.2916666666666667 0  0.04130434782608695 0.2916666666666667 0  0.04956521739130434 0.2916666666666667 0  0.05782608695652174 0.2916666666666667 0  0.06608695652173913 0.2916666666666667 0  0.07434782608695652 0.2916666666666667 0  0.08260869565217391 0.2916666666666667 0  0.0908695652173913 0.2916666666666667 0  0.09913043478260869 0.2916666666666667 0  0.1073913043478261 0.2916666666666667 0  0.1156521739130435 0.2916666666666667 0  0.1239130434782609 0.2916666666666667 0  0.1321739130434783 0.2916666666666667 0  0.1404347826086956 0.2916666666666667 0  0.148695652173913 0.2916666666666667 0  0.1569565217391304 0.2916666666666667 0  0.1652173913043478 0.2916666666666667 0  0.1734782608695652 0.2916666666666667 0  0.008260869565217391 0.3 0  0 0.3 0  0.01652173913043478 0.3 0  0.02478260869565217 0.3 0  0.03304347826086956 0.3 0  0.04130434782608695 0.3 0  0.04956521739130434 0.3 0  0.05782608695652174 0.3 0  0.06608695652173913 0.3 0  0.07434782608695652 0.3 0  0.08260869565217391 0.3 0  0.0908695652173913 0.3 0  0.09913043478260869 0.3 0  0.1073913043478261 0.3 0  0.1156521739130435 0.3 0  0.1239130434782609 0.3 0  0.1321739130434783 0.3 0  0.1404347826086956 0.3 0  0.148695652173913 0.3 0  0.1569565217391304 0.3 0  0.1652173913043478 0.3 0  0.1734782608695652 0.3 0  0.1817391304347826 0.3 0  0.008260869565217391 0.3083333333333333 0  0 0.3083333333333333 0  0.01652173913043478 0.3083333333333333 0  0.02478260869565217 0.3083333333333333 0  0.03304347826086956 0.3083333333333333 0  0.04130434782608695 0.3083333333333333 0  0.04956521739130434 0.3083333333333333 0  0.05782608695652174 0.3083333333333333 0  0.06608695652173913 0.3083333333333333 0  0.07434782608695652 0.3083333333333333 0  0.08260869565217391 0.3083333333333333 0  0.0908695652173913 0.3083333333333333 0  0.09913043478260869 0.3083333333333333 0  0.1073913043478261 0.3083333333333333 0  0.1156521739130435 0.3083333333333333 0  0.1239130434782609 0.3083333333333333 0  0.1321739130434783 0.3083333333333333 0  0.1404347826086956 0.3083333333333333 0  0.148695652173913 0.3083333333333333 0  0.1569565217391304 0.3083333333333333 0  0.1652173913043478 0.3083333333333333 0  0.1734782608695652 0.3083333333333333 0  0.1817391304347826 0.3083333333333333 0  0.19 0.3083333333333333 0  0.008260869565217391 0.3166666666666667 0  0 0.3166666666666667 0  0.01652173913043478 0.3166666666666667 0  0.02478260869565217 0.3166666666666667 0  0.03304347826086956 0.3166666666666667 0  0.04130434782608695 0.3166666666666667 0  0.04956521739130434 0.3166666666666667 0  0.05782608695652174 0.3166666666666667 0  0.06608695652173913 0.3166666666666667 0  0.07434782608695652 0.3166666666666667 0  0.08260869565217391 0.3166666666666667 0  0.0908695652173913 0.3166666666666667 0  0.09913043478260869 0.3166666666666667 0  0.1073913043478261 0.3166666666666667 0  0.1156521739130435 0.3166666666666667 0  0.1239130434782609 0.3166666666666667 0  0.1321739130434783 0.3166666666666667 0  0.1404347826086956 0.3166666666666667 0  0.148695652173913 0.3166666666666667 0  0.1569565217391304 0.3166666666666667 0  0.1652173913043478 0.3166666666666667 0  0.1734782608695652 0.3166666666666667 0  0.1817391304347826 0.3166666666666667 0  0.19 0.3166666666666667 0  0.1982608695652174 0.3083333333333333 0  0.1982608695652174 0.3166666666666667 0  0.2065217391304348 0.3083333333333333 0  0.2065217391304348 0.3166666666666667 0  0.2147826086956522 0.3083333333333333 0  0.2147826086956522 0.3166666666666667 0  0.2230434782608696 0.3083333333333333 0  0.2230434782608696 0.3166666666666667 0  0.2313043478260869 0.3083333333333333 0  0.2313043478260869 0.3166666666666667 0  0.2395652173913043 0.3083333333333333 0  0.2395652173913043 0.3166666666666667 0  0.2478260869565218 0.3083333333333333 0  0.2478260869565218 0.3166666666666667 0  0.2560869565217391 0.3083333333333333 0  0.2560869565217391 0.3166666666666667 0  0.2643478260869565 0.3083333333333333 0  0.2643478260869565 0.3166666666666667 0  0.2726086956521739 0.3083333333333333 0  0.2726086956521739 0.3166666666666667 0  0.2808695652173913 0.3083333333333333 0  0.2808695652173913 0.3166666666666667 0  0.2891304347826087 0.3083333333333333 0  0.2891304347826087 0.3166666666666667 0  0.2973913043478261 0.3083333333333333 0  0.2973913043478261 0.3166666666666667 0  0.3056521739130434 0.3083333333333333 0  0.3056521739130434 0.3166666666666667 0  0.3139130434782609 0.3083333333333333 0  0.3139130434782609 0.3166666666666667 0  0.3221739130434783 0.3083333333333333 0  0.3221739130434783 0.3166666666666667 0  0.3304347826086956 0.3083333333333333 0  0.3304347826086956 0.3166666666666667 0  0.338695652173913 0.3083333333333333 0  0.338695652173913 0.3166666666666667 0  0.3469565217391304 0.3083333333333333 0  0.3469565217391304 0.3166666666666667 0  0.3552173913043478 0.3083333333333333 0  0.3552173913043478 0.3166666666666667 0  0.3634782608695652 0.3083333333333333 0  0.3634782608695652 0.3166666666666667 0  0.3717391304347826 0.3083333333333333 0  0.3717391304347826 0.3166666666666667 0  0.3799999999999999 0.3083333333333333 0  0.3799999999999999 0.3166666666666667 0  0.3882608695652174 0.3083333333333333 0  0.3882608695652174 0.3166666666666667 0  0.3965217391304348 0.3083333333333333 0  0.3965217391304348 0.3166666666666667 0  0.4047826086956521 0.3083333333333333 0  0.4047826086956521 0.3166666666666667 0  0.4130434782608696 0.3083333333333333 0  0.4130434782608696 0.3166666666666667 0  0.4213043478260869 0.3083333333333333 0  0.4213043478260869 0.3166666666666667 0  0.4295652173913043 0.3083333333333333 0  0.4295652173913043 0.3166666666666667 0  0.4378260869565217 0.3083333333333333 0  0.4378260869565217 0.3166666666666667 0  0.4460869565217391 0.3083333333333333 0  0.4460869565217391 0.3166666666666667 0  0.4543478260869565 0.3083333333333333 0  0.4543478260869565 0.3166666666666667 0  0.4626086956521739 0.3083333333333333 0  0.4626086956521739 0.3166666666666667 0  0.4708695652173913 0.3083333333333333 0  0.4708695652173913 0.3166666666666667 0  0.4791304347826086 0.3083333333333333 0  0.4791304347826086 0.3166666666666667 0  0.4873913043478261 0.3083333333333333 0  0.4873913043478261 0.3166666666666667 0  0.4956521739130435 0.3083333333333333 0  0.4956521739130435 0.3166666666666667 0  0.5039130434782608 0.3083333333333333 0  0.5039130434782608 0.3166666666666667 0  0.5121739130434783 0.3083333333333333 0  0.5121739130434783 0.3166666666666667 0  0.5204347826086956 0.3083333333333333 0  0.5204347826086956 0.3166666666666667 0  0.528695652173913 0.3083333333333333 0  0.528695652173913 0.3166666666666667 0  0.5369565217391304 0.3083333333333333 0  0.536956521
[...]
<CellData  Scalars="rho_bar"> 
<DataArray  type="Float64"  Name="rho_bar"  format="ascii">9.7011703176652242e-01   0.0000000000000000e+00   9.9992706367201456e-01   0.0000000000000000e+00   9.9993135707233149e-01   0.0000000000000000e+00   9.9993451313000914e-01   0.0000000000000000e+00   9.9993123494783842e-01   0.0000000000000000e+00   9.9993370469613385e-01   0.0000000000000000e+00   9.9993520428667437e-01   0.0000000000000000e+00   9.9993603100665718e-01   0.0000000000000000e+00   9.9993689670116537e-01   0.0000000000000000e+00   9.9993875500684715e-01   0.0000000000000000e+00   9.9993785594921092e-01   0.0000000000000000e+00   9.9994108540383386e-01   0.0000000000000000e+00   9.9993875019110601e-01   0.0000000000000000e+00   9.9993549828367734e-01   0.0000000000000000e+00   9.9992965710939763e-01   0.0000000000000000e+00   9.9992367881380495e-01   0.0000000000000000e+00   0.0000000000000000e+00   0.0000000000000000e+00   0.0000000000000000e+00   0.0000000000000000e+00   0.0000000000000000e+00   0.0000000000000000e+00   0.0000000000000000e+00   0.0000000000000000e+00   0.0000000000000000e+00   0.0000000000000000e+00   0.0000000000000000e+00   0.0000000000000000e+00   0.0000000000000000e+00   0.0000000000000000e+00   0.0000000000000000e+00   0.0000000000000000e+00   0.0000000000000000e+00   0.0000000000000000e+00   0.0000000000000000e+00   0.0000000000000000e+00   0.0000000000000000e+00   0.0000000000000000e+00   0.0000000000000000e+00   0.0000000000000000e+00   0.0000000000000000e+00   0.0000000000000000e+00   0.0000000000000000e+00   0.0000000000000000e+00   0.0000000000000000e+00   0.0000000000000000e+00   0.0000000000000000e+00   0.0000000000000000e+00   0.0000000000000000e+00   0.0000000000000000e+00   0.0000000000000000e+00   0.0000000000000000e+00   0.0000000000000000e+00   0.0000000000000000e+00   0.0000000000000000e+00   0.0000000000000000e+00   0.0000000000000000e+00   0.0000000000000000e+00   0.0000000000000000e+00   0.0000000000000000e+00   0.0000000000000000e+00   0.0000000000000000e+00   0.0000000000000000e+00   0.0000000000000000e+00   0.0000000000000000e+00   0.0000000000000000e+00   0.0000000000000000e+00   0.0000000000000000e+00   0.0000000000000000e+00   0.0000000000000000e+00   0.0000000000000000e+00   0.0000000000000000e+00   0.0000000000000000e+00   0.0000000000000000e+00   0.0000000000000000e+00   0.0000000000000000e+00   0.0000000000000000e+00   0.0000000000000000e+00   0.0000000000000000e+00   0.0000000000000000e+00   0.0000000000000000e+00   0.0000000000000000e+00   0.0000000000000000e+00   0.0000000000000000e+00   0.0000000000000000e+00   0.0000000000000000e+00   0.0000000000000000e+00   0.0000000000000000e+00   9.9992352353248903e-01   0.0000000000000000e+00   9.9992440954775186e-01   0.0000000000000000e+00   9.9992318470635300e-01   0.0000000000000000e+00   9.9992375594861138e-01   0.0000000000000000e+00   9.9992379237485740e-01   0.0000000000000000e+00   9.9992409082084022e-01   0.0000000000000000e+00   9.9992472954864997e-01   0.0000000000000000e+00   9.9992566503087044e-01   0.0000000000000000e+00   9.9992665230804012e-01   0.0000000000000000e+00   9.9992788198911875e-01   0.0000000000000000e+00   9.9992981408257875e-01   0.0000000000000000e+00   9.9993385519092903e-01   0.0000000000000000e+00   9.9993025400658497e-01   0.0000000000000000e+00   9.9993058622002207e-01   0.0000000000000000e+00   0.0000000000000000e+00   0.0000000000000000e+00   0.0000000000000000e+00   0.0000000000000000e+00   0.0000000000000000e+00   0.0000000000000000e+00   0.0000000000000000e+00   0.0000000000000000e+00   0.0000000000000000e+00   0.0000000000000000e+00   0.0000000000000000e+00   0.0000000000000000e+00   0.0000000000000000e+00   0.0000000000000000e+00   9.9992302897201546e-01   0.0000000000000000e+00   9.9992768244837804e-01   0.0000000000000000e+00   9.9992733009995249e-01   0.0000000000000000e+00   9.9992952125833534e-01   0.0000000000000000e+00   9.9992890551829638e-01   0.0000000000000000e+00   9.9992947043624758e-01   0.0000000000000000e+00   9.9993012954326399e-01   0.0000000000000000e+00   9.9993040390808563e-01   0.0000000000000000e+00   9.9993122235253495e-01   0.0000000000000000e+00   9.9993027459299311e-01   0.0000000000000000e+00   9.9992498345405767e-01   0.0000000000000000e+00   9.8970595600211075e-01   0.0000000000000000e+00   0.0000000000000000e+00   0.0000000000000000e+00   0.0000000000000000e+00   0.0000000000000000e+00   0.0000000000000000e+00   0.0000000000000000e+00   0.0000000000000000e+00   0.0000000000000000e+00   0.0000000000000000e+00   0.0000000000000000e+00   0.0000000000000000e+00   0.0000000000000000e+00   0.0000000000000000e+00   0.0000000000000000e+00   0.0000000000000000e+00   0.0000000000000000e+00   0.0000000000000000e+00   0.0000000000000000e+00   0.0000000000000000e+00   0.0000000000000000e+00   0.0000000000000000e+00   0.0000000000000000e+00   0.0000000000000000e+00   0.0000000000000000e+00   0.0000000000000000e+00   0.0000000000000000e+00   0.0000000000000000e+00   0.0000000000000000e+00   0.0000000000000000e+00   0.0000000000000000e+00   0.0000000000000000e+00   0.0000000000000000e+00   0.0000000000000000e+00   0.0000000000000000e+00   0.0000000000000000e+00   0.0000000000000000e+00   0.0000000000000000e+00   0.0000000000000000e+00   0.0000000000000000e+00   0.0000000000000000e+00   0.0000000000000000e+00   0.0000000000000000e+00   0.0000000000000000e+00   0.0000000000000000e+00   0.0000000000000000e+00   0.0000000000000000e+00   0.0000000000000000e+00   0.0000000000000000e+00   0.0000000000000000e+00   0.0000000000000000e+00   0.0000000000000000e+00   0.0000000000000000e+00   0.0000000000000000e+00   0.0000000000000000e+00   0.0000000000000000e+00   0.0000000000000000e+00   0.0000000000000000e+00   0.0000000000000000e+00   0.0000000000000000e+00   0.0000000000000000e+00   0.0000000000000000e+00   0.0000000000000000e+00   0.0000000000000000e+00   0.0000000000000000e+00   0.0000000000000000e+00   0.0000000000000000e+00   0.0000000000000000e+00   0.0000000000000000e+00   0.0000000000000000e+00   0.0000000000000000e+00   0.0000000000000000e+00   0.0000000000000000e+00   0.0000000000000000e+00   0.0000000000000000e+00   0.0000000000000000e+00   0.0000000000000000e+00   9.9992382215999098e-01   0.0000000000000000e+00   9.9992912515637999e-01   0.0000000000000000e+00   9.9993344361273684e-01   0.0000000000000000e+00   9.9993145010235795e-01   0.0000000000000000e+00   9.9993605504089389e-01   0.0000000000000000e+00   9.9993449434395931e-01   0.0000000000000000e+00   9.9993551623575949e-01   0.0000000000000000e+00   9.9993707967572187e-01   0.0000000000000000e+00   9.9993907339021915e-01   0.0000000000000000e+00   9.9993814877840637e-01   0.0000000000000000e+00   9.9994135289584296e-01   0.0000000000000000e+00   9.9993908727597824e-01   0.0000000000000000e+00   9.9993575612882080e-01   0.0000000000000000e+00   9.9992988675232952e-01   0.0000000000000000e+00   9.9992375903013009e-01   0.0000000000000000e+00   0.0000000000000000e+00   0.0000000000000000e+00   0.0000000000000000e+00   0.0000000000000000e+00   0.0000000000000000e+00   0.0000000000000000e+00   0.0000000000000000e+00   0.0000000000000000e+00   0.0000000000000000e+00   0.0000000000000000e+00   0.0000000000000000e+00   0.0000000000000000e+00   0.0000000000000000e+00   0.0000000000000000e+00   0.0000000000000000e+00   0.0000000000000000e+00   0.0000000000000000e+00   0.0000000000000000e+00   0.0000000000000000e+00   0.0000000000000000e+00   0.0000000000000000e+00   0.0000000000000000e+00   0.0000000000000000e+00   0.0000000000000000e+00   0.0000000000000000e+00   0.0000000000000000e+00   0.0000000000000000e+00   0.0000000000000000e+00   0.0000000000000000e+00   0.0000000000000000e+00   0.0000000000000000e+00   0.0000000000000000e+00   0.0000000000000000e+00   0.0000000000000000e+00   0.0000000000000000e+00   0.0000000000000000e+00   0.0000000000000000e+00   0.0000000000000000e+00   0.0000000000000000e+00   0.0000000000000000e+00   0.0000000000000000e+00   0.0000000000000000e+00   0.0000000000000000e+00   0.0000000000000000e+00   0.0000000000000000e+00   0.0000000000000000e+00   0.0000000000000000e+00   0.0000000000000000e+00   0.0000000000000000e+00   0.0000000000000000e+00   0.0000000000000000e+00   0.0000000000000000e+00   0.0000000000000000e+00   0.0000000000000000e+00   0.0000000000000000e+00   0.0000000000000000e+00   0.0000000000000000e+00   0.0000000000000000e+00   0.0000000000000000e+00   0.0000000000000000e+00   0.0000000000000000e+00   0.0000000000000000e+00   0.0000000000000000e+00   0.0000000000000000e+00   0.0000000000000000e+00   0.0000000000000000e+00   0.0000000000000000e+00   0.0000000000000000e+00   0.0000000000000000e+00   0.0000000000000000e+00   0.0000000000000000e+00   0.0000000000000000e+00   0.0000000000000000e+00   0.0000000000000000e+00   0.0000000000000000e+00   0.0000000000000000e+00   9.7455816272977414e-01   0.0000000000000000e+00   9.9992378671503279e-01   0.0000000000000000e+00   9.9992307012531545e-01   0.0000000000000000e+00   9.9992334302067276e-01   0.0000000000000000e+00   9.9992322832467528e-01   0.0000000000000000e+00   9.9992344136773648e-01   0.0000000000000000e+00   9.9992401336634973e-01   0.0000000000000000e+00   9.9992479978670268e-01   0.0000000000000000e+00   9.9992570819517934e-01   0.0000000000000000e+00   9.9992687091757881e-01   0.0000000000000000e+00   9.9992846125109525e-01   0.0000000000000000e+00   9.9993039521001226e-01   0.0000000000000000e+00   9.9992900124049966e-01   0.0000000000000000e+00   9.9992917221430300e-01   0.0000000000000000e+00   9.9993145230310965e-01   0.0000000000000000e+00   0.0000000000000000e+00   0.0000000000000000e+00   0.0000000000000000e+00   0.0000000000000000e+00   0.0000000000000000e+00   0.0000000000000000e+00   0.0000000000000000e+00   0.0000000000000000e+00   9.7832643488532212e-01   0.0000000000000000e+00   9.9992762899280030e-01   0.0000000000000000e+00   9.9993298676334263e-01   0.0000000000000000e+00   9.9992965617955376e-01   0.0000000000000000e+00   9.9992969024805378e-01   0.0000000000000000e+00   9.9992978758878914e-01   0.0000000000000000e+00   9.9992960875939707e-01   0.0000000000000000e+00   9.9993016399358359e-01   0.0000000000000000e+00   9.9992938482539884e-01   0.0000000000000000e+00   9.9992882774836156e-01   0.0000000000000000e+00   9.9993031624632367e-01   0.0000000000000000e+00   9.9992355750378192e-01   0.0000000000000000e+00   0.0000000000000000e+00   0.0000000000000000e+00   0.0000000000000000e+00   0.0000000000000000e+00   0.0000000000000000e+00   0.0000000000000000e+00   0.0000000000000000e+00   0.0000000000000000e+00   0.0000000000000000e+00   0.0000000000000000e+00   0.0000000000000000e+00   0.0000000000000000e+00   0.0000000000000000e+00   0.0000000000000000e+00   0.0000000000000000e+00   0.0000000000000000e+00   0.0000000000000000e+00   0.0000000000000000e+00   0.0000000000000000e+00   0.0000000000000000e+00   0.0000000000000000e+00   0.0000000000000000e+00   0.0000000000000000e+00   0.0000000000000000e+00   0.0000000000000000e+00   0.0000000000000000e+00   0.0000000000000000e+00   0.0000000000000000e+00   0.0000000000000000e+00   0.0000000000000000e+00   0.0000000000000000e+00   0.0000000000000000e+00   0.0000000000000000e+00   0.0000000000000000e+00   0.0000000000000000e+00   0.0000000000000000e+00   0.0000000000000000e+00   0.0000000000000000e+00   0.0000000000000000e+00   0.0000000000000000e+00   0.0000000000000000e+00   0.0000000000000000e+00   0.0000000000000000e+00   0.0000000000000000e+00   0.0000000000000000e+00   0.0000000000000000e+00   0.0000000000000000e+00   0.0000000000000000e+00   0.0000000000000000e+00   0.0000000000000000e+00   0.0000000000000000e+00   0.0000000000000000e+00   0.0000000000000000e+00   0.0000000000000000e+00   0.0000000000000000e+00   0.0000000000000000e+00   0.0000000000000000e+00   0.0000000000000000e+00   0.0000000000000000e+00   0.0000000000000000e+00   0.0000000000000000e+00   0.0000000000000000e+00   0.0000000000000000e+00   0.0000000000000000e+00   0.0000000000000000e+00   0.0000000000000000e+00   0.0000000000000000e+00   0.0000000000000000e+00   0.0000000000000000e+00   0.0000000000000000e+00   0.0000000000000000e+00   0.0000000000000000e+00   0.0000000000000000e+00   0.0000000000000000e+00   0.0000000000000000e+00   0.0000000000000000e+00   9.9992327150354110e-01   0.0000000000000000e+00   9.9993349646051244e-01   0.0000000000000000e+00   9.9994031513911985e-01   0.0000000000000000e+00   9.9993560722240238e-01   0.0000000000000000e+00   9.9993849626009512e-01   0.0000000000000000e+00   9.9993634811736354e-01   0.0000000000000000e+00   9.9993751522425323e-01   0.0000000000000000e+00   9.9993710892012067e-01   0.0000000000000000e+00   9.9993868204498382e-01   0.0000000000000000e+00   9.9993785489593645e-01   0.0000000000000000e+00   9.9994114108224808e-01   0.0000000000000000e+00   9.9993908360801032e-01   0.0000000000000000e+00   9.9993570215365324e-01   0.0000000000000000e+00   9.9992997041610943e-01   0.0000000000000000e+00   9.9992379075747995e-01   0.0000000000000000e+00   0.0000000000000000e+00   0.0000000000000000e+00   0.0000000000000000e+00   0.0000000000000000e+00   0.0000000000000000e+00   0.0000000000000000e+00   0.0000000000000000e+00   0.0000000000000000e+00   0.0000000000000000e+00   0.0000000000000000e+00   0.0000000000000000e+00   0.0000000000000000e+00   0.0000000000000000e+00   0.0000000000000000e+00   0.0000000000000000e+00   0.0000000000000000e+00   0.0000000000000000e+00   0.0000000000000000e+00   0.0000000000000000e+00   0.0000000000000000e+00   0.0000000000000000e+00   0.0000000000000000e+00   0.0000000000000000e+00   0.0000000000000000e+00   0.0000000000000000e+00   0.0000000000000000e+00   0.0000000000000000e+00   0.0000000000000000e+00   0.0000000000000000e+00   0.0000000000000000e+00   0.0000000000000000e+00   0.0000000000000000e+00   0.0000000000000000e+00   0.0000000000000000e+00   0.0000000000000000e+00   0.0000000000000000e+00   0.0000000000000000e+00   0.0000000000000000e+00   0.0000000000000000e+00   0.0000000000000000e+00   0.0000000000000000e+00   0.0000000000000000e+00   0.0000000000000000e+00   0.0000000000000000e+00   0.0000000000000000e+00   0.0000000000000000e+00   0.0000000000000000e+00   0.0000000000000000e+00   0.0000000000000000e+00   0.0000000000000000e+00   0.0000000000000000e+00   0.0000000000000000e+00   0.0000000000000000e+00   0.0000000000000000e+00   0.0000000000000000e+00   0.0000000000000000e+00   0.0000000000000000e+00   0.0000000000000000e+00   0.0000000000000000e+00   0.0000000000000000e+00   0.0000000000000000e+00   0.0000000000000000e+00   0.0000000000000000e+00   0.0000000000000000e+00   0.0000000000000000e+00   0.0000000000000000e+00   0.0000000000000000e+00   0.0000000000000000e+00   0.0000000000000000e+00   0.0000000000000000e+00   0.0000000000000000e+00   0.0000000000000000e+00   0.0000000000000000e+00   0.0000000000000000e+00   0.0000000000000000e+00   0.0000000000000000e+00   0.0000000000000000e+00   0.0000000000000000e+00   0.0000000000000000e+00   0.0000000000000000e+00   0.0000000000000000e+00   0.0000000000000000e+00   9.9992534554242174e-01   0.0000000000000000e+00   9.9992454917097795e-01   0.0000000000000000e+00   0.0000000000000000e+00   0.0000000000000000e+00   9.9992415368588694e-01   0.0000000000000000e+00   9.9992353831334890e-01   0.0000000000000000e+00   9.9992393384352962e-01   0.0000000000000000e+00   9.9992457867605589e-01   0.0000000000000000e+00   9.9992538457477997e-01   0.0000000000000000e+00   9.9992638364305964e-01   0.0000000000000000e+00   9.9992753651429178e-01   0.0000000000000000e+00   9.9992846338953767e-01   0.0000000000000000e+00   9.9992776419688056e-01   0.0000000000000000e+00   9.9992764871106454e-01   0.0000000000000000e+00   9.9992817983810223e-01   0.0000000000000000e+00   9.9992975947973406e-01   0.0000000000000000e+00   0.0000000000000000e+00   0.0000000000000000e+00   0.0000000000000000e+00   0.0000000000000000e+00   9.9992356886789702e-01   0.0000000000000000e+00   9.9992825544497832e-01   0.0000000000000000e+00   9.9993177435613134e-01   0.0000000000000000e+00   9.9992870690467039e-01   0.0000000000000000e+00   9.9992923764656605e-01   0.0000000000000000e+00   9.9992896227569872e-01   0.0000000000000000e+00   9.9992893383376613e-01   0.0000000000000000e+00   9.9992858000801921e-01   0.0000000000000000e+00   9.9992949109730400e-01   0.0000000000000000e+00   9.9992662343555327e-01   0.0000000000000000e+00   9.9992662019596823e-01   0.0000000000000000e+00   9.9816264299791513e-01   0.0000000000000000e+00   0.0000000000000000e+00   0.0000000000000000e+00   0.0000000000000000e+00   0.0000000000000000e+00   0.0000000000000000e+00   0.0000000000000000e+00   0.0000000000000000e+00   0.0000000000000000e+00   0.0000000000000000e+00   0.0000000000000000e+00   0.0000000000000000e+00   0.0000000000000000e+00   0.0000000000000000e+00   0.0000000000000000e+00   0.0000000000000000e+00   0.0000000000000000e+00   0.0000000000000000e+00   0.0000000000000000e+00   0.0000000000000000e+00   0.0000000000000000e+00   0.0000000000000000e+00   0.0000000000000000e+00   0.0000000000000000e+00   0.0000000000000000e+00   0.0000000000000000e+00   0.0000000000000000e+00   0.0000000000000000e+00   0.0000000000000000e+00   0.0000000000000000e+00   0.0000000000000000e+00   0.0000000000000000e+00   0.0000000000000000e+00   0.0000000000000000e+00   0.0000000000000000e+00   0.0000000000000000e+00   0.0000000000000000e+00   0.0000000000000000e+00   0.0000000000000000e+00   0.0000000000000000e+00   0.0000000000000000e+00   0.0000000000000000e+00   0.0000000000000000e+00   0.0000000000000000e+00   0.0000000000000000e+00   0.0000000000000000e+00   0.0000000000000000e+00   0.0000000000000000e+00   0.0000000000000000e+00   0.0000000000000000e+00   0.0000000000000000e+00   0.0000000000000000e+00   0.0000000000000000e+00   0.0000000000000000e+00   0.0000000000000000e+00   0.0000000000000000e+00   0.0000000000000000e+00   0.0000000000000000e+00   0.0000000000000000e+00   0.0000000000000000e+00   0.0000000000000000e+00   0.0000000000000000e+00   0.0000000000000000e+00   0.0000000000000000e+00   0.0000000000000000e+00   0.0000000000000000e+00   0.0000000000000000e+00   0.0000000000000000e+00   0.0000000000000000e+00   0.0000000000000000e+00   0.0000000000000000e+00   0.0000000000000000e+00   0.0000000000000000e+00   0.0000000000000000e+00   0.0000000000000000e+00   0.0000000000000000e+00   9.9992256131893309e-01   0.0000000000000000e+00   9.9993163980878152e-01   0.0000000000000000e+00   9.9993890884444614e-01   0.0000000000000000e+00   9.9994243012052031e-01   0.0000000000000000e+00   9.9993535746145312e-01   0.0000000000000000e+00   9.9993723328096629e-01   0.0000000000000000e+00   9.9993880330506524e-01   0.0000000000000000e+00   9.9993832330300803e-01   0.0000000000000000e+00   9.9993977432942294e-01   0.0000000000000000e+00   9.9993784284641640e-01   0.0000000000000000e+00   9.9994062003089856e-01   0.0000000000000000e+00   9.9993841860479760e-01   0.0000000000000000e+00   9.9993515849650694e-01   0.0000000000000000e+00   9.9992972407540870e-01   0.0000000000000000e+00   9.9992370946196762e-01   0.0000000000000000e+00   0.0000000000000000e+00   0.0000000000000000e+00   0.0000000000000000e+00   0.0000000000000000e+00   0.0000000000000000e+00   0.0000000000000000e+00   0.0000000000000000e+00   0.0000000000000000e+00   0.0000000000000000e+00   0.0000000000000000e+00   0.0000000000000000e+00   0.0000000000000000e+00   0.0000000000000000e+00   0.0000000000000000e+00   0.0000000000000000e+00   0.0000000000000000e+00   0.0000000000000000e+00   0.0000000000000000e+00   0.0000000000000000e+00   0.0000000000000000e+00   0.0000000000000000e+00   0.0000000000000000e+00   0.0000000000000000e+00   0.0000000000000000e+00   0.0000000000000000e+00   0.0000000000000000e+00   0.0000000000000000e+00   0.0000000000000000e+00   0.0000000000000000e+00   0.0000000000000000e+00   0.0000000000000000e+00   0.00000000