<?xml version="1.0"?>
<VTKFile type="UnstructuredGrid"  version="0.1"  >
<UnstructuredGrid>
<Piece  NumberOfPoints="2405" NumberOfCells="4614">
<Points>
<DataArray  type="Float64"  NumberOfComponents="3"  format="ascii">1.338260869565217 0 0  1.346521739130435 0 0  1.346521739130435 0.008333333333333333 0  1.338260869565217 0.008333333333333333 0  1.354782608695652 0 0  1.354782608695652 0.008333333333333333 0  1.36304347826087 0 0  1.36304347826087 0.008333333333333333 0  1.371304347826087 0 0  1.371304347826087 0.008333333333333333 0  1.379565217391304 0 0  1.379565217391304 0.008333333333333333 0  1.387826086956522 0 0  1.387826086956522 0.008333333333333333 0  1.396086956521739 0 0  1.396086956521739 0.008333333333333333 0  1.404347826086957 0 0  1.404347826086957 0.008333333333333333 0  1.412608695652174 0 0  1.412608695652174 0.008333333333333333 0  1.420869565217391 0 0  1.420869565217391 0.008333333333333333 0  1.429130434782609 0 0  1.429130434782609 0.008333333333333333 0  1.437391304347826 0 0  1.437391304347826 0.008333333333333333 0  1.445652173913043 0 0  1.445652173913043 0.008333333333333333 0  1.453913043478261 0 0  1.453913043478261 0.008333333333333333 0  1.462173913043478 0 0  1.462173913043478 0.008333333333333333 0  1.470434782608696 0 0  1.470434782608696 0.008333333333333333 0  1.478695652173913 0 0  1.478695652173913 0.008333333333333333 0  1.486956521739131 0 0  1.486956521739131 0.008333333333333333 0  1.495217391304348 0 0  1.495217391304348 0.008333333333333333 0  1.503478260869565 0 0  1.503478260869565 0.008333333333333333 0  1.511739130434782 0 0  1.511739130434782 0.008333333333333333 0  1.52 0 0  1.52 0.008333333333333333 0  1.528260869565217 0 0  1.528260869565217 0.008333333333333333 0  1.536521739130435 0 0  1.536521739130435 0.008333333333333333 0  1.544782608695652 0 0  1.544782608695652 0.008333333333333333 0  1.55304347826087 0 0  1.55304347826087 0.008333333333333333 0  1.561304347826087 0 0  1.561304347826087 0.008333333333333333 0  1.569565217391304 0 0  1.569565217391304 0.008333333333333333 0  1.577826086956522 0 0  1.577826086956522 0.008333333333333333 0  1.586086956521739 0 0  1.586086956521739 0.008333333333333333 0  1.594347826086957 0 0  1.594347826086957 0.008333333333333333 0  1.602608695652174 0 0  1.602608695652174 0.008333333333333333 0  1.610869565217391 0 0  1.610869565217391 0.008333333333333333 0  1.619130434782609 0 0  1.619130434782609 0.008333333333333333 0  1.627391304347826 0 0  1.627391304347826 0.008333333333333333 0  1.635652173913043 0 0  1.635652173913043 0.008333333333333333 0  1.643913043478261 0 0  1.643913043478261 0.008333333333333333 0  1.652173913043478 0 0  1.652173913043478 0.008333333333333333 0  1.660434782608696 0 0  1.660434782608696 0.008333333333333333 0  1.668695652173913 0 0  1.668695652173913 0.008333333333333333 0  1.67695652173913 0 0  1.67695652173913 0.008333333333333333 0  1.685217391304348 0 0  1.685217391304348 0.008333333333333333 0  1.693478260869565 0 0  1.693478260869565 0.008333333333333333 0  1.701739130434782 0 0  1.701739130434782 0.008333333333333333 0  1.71 0 0  1.71 0.008333333333333333 0  1.718260869565217 0 0  1.718260869565217 0.008333333333333333 0  1.726521739130435 0 0  1.726521739130435 0.008333333333333333 0  1.734782608695652 0 0  1.734782608695652 0.008333333333333333 0  1.743043478260869 0 0  1.743043478260869 0.008333333333333333 0  1.751304347826087 0 0  1.751304347826087 0.008333333333333333 0  1.759565217391304 0 0  1.759565217391304 0.008333333333333333 0  1.767826086956522 0 0  1.767826086956522 0.008333333333333333 0  1.776086956521739 0.008333333333333333 0  1.346521739130435 0.01666666666666667 0  1.354782608695652 0.01666666666666667 0  1.36304347826087 0.01666666666666667 0  1.371304347826087 0.01666666666666667 0  1.379565217391304 0.01666666666666667 0  1.387826086956522 0.01666666666666667 0  1.396086956521739 0.01666666666666667 0  1.404347826086957 0.01666666666666667 0  1.412608695652174 0.01666666666666667 0  1.420869565217391 0.01666666666666667 0  1.429130434782609 0.01666666666666667 0  1.437391304347826 0.01666666666666667 0  1.445652173913043 0.01666666666666667 0  1.453913043478261 0.01666666666666667 0  1.462173913043478 0.01666666666666667 0  1.470434782608696 0.01666666666666667 0  1.478695652173913 0.01666666666666667 0  1.486956521739131 0.01666666666666667 0  1.495217391304348 0.01666666666666667 0  1.503478260869565 0.01666666666666667 0  1.511739130434782 0.01666666666666667 0  1.52 0.01666666666666667 0  1.528260869565217 0.01666666666666667 0  1.536521739130435 0.01666666666666667 0  1.544782608695652 0.01666666666666667 0  1.55304347826087 0.01666666666666667 0  1.561304347826087 0.01666666666666667 0  1.569565217391304 0.01666666666666667 0  1.577826086956522 0.01666666666666667 0  1.586086956521739 0.01666666666666667 0  1.594347826086957 0.01666666666666667 0  1.602608695652174 0.01666666666666667 0  1.610869565217391 0.01666666666666667 0  1.619130434782609 0.01666666666666667 0  1.627391304347826 0.01666666666666667 0  1.635652173913043 0.01666666666666667 0  1.643913043478261 0.01666666666666667 0  1.652173913043478 0.01666666666666667 0  1.660434782608696 0.01666666666666667 0  1.668695652173913 0.01666666666666667 0  1.67695652173913 0.01666666666666667 0  1.685217391304348 0.01666666666666667 0  1.693478260869565 0.01666666666666667 0  1.701739130434782 0.01666666666666667 0  1.71 0.01666666666666667 0  1.718260869565217 0.01666666666666667 0  1.726521739130435 0.01666666666666667 0  1.734782608695652 0.01666666666666667 0  1.743043478260869 0.01666666666666667 0  1.751304347826087 0.01666666666666667 0  1.759565217391304 0.01666666666666667 0  1.767826086956522 0.01666666666666667 0  1.776086956521739 0.01666666666666667 0  1.354782608695652 0.025 0  1.36304347826087 0.025 0  1.371304347826087 0.025 0  1.379565217391304 0.025 0  1.387826086956522 0.025 0  1.396086956521739 0.025 0  1.404347826086957 0.025 0  1.412608695652174 0.025 0  1.420869565217391 0.025 0  1.429130434782609 0.025 0  1.437391304347826 0.025 0  1.445652173913043 0.025 0  1.453913043478261 0.025 0  1.462173913043478 0.025 0  1.470434782608696 0.025 0  1.478695652173913 0.025 0  1.486956521739131 0.025 0  1.495217391304348 0.025 0  1.503478260869565 0.025 0  1.511739130434782 0.025 0  1.52 0.025 0  1.528260869565217 0.025 0  1.536521739130435 0.025 0  1.544782608695652 0.025 0  1.55304347826087 0.025 0  1.561304347826087 0.025 0  1.569565217391304 0.025 0  1.577826086956522 0.025 0  1.586086956521739 0.025 0  1.594347826086957 0.025 0  1.602608695652174 0.025 0  1.610869565217391 0.025 0  1.619130434782609 0.025 0  1.627391304347826 0.025 0  1.635652173913043 0.025 0  1.643913043478261 0.025 0  1.652173913043478 0.025 0  1.660434782608696 0.025 0  1.668695652173913 0.025 0  1.67695652173913 0.025 0  1.685217391304348 0.025 0  1.693478260869565 0.025 0  1.701739130434782 0.025 0  1.71 0.025 0  1.718260869565217 0.025 0  1.726521739130435 0.025 0  1.734782608695652 0.025 0  1.743043478260869 0.025 0  1.751304347826087 0.025 0  1.759565217391304 0.025 0  1.767826086956522 0.025 0  1.776086956521739 0.025 0  1.784347826086957 0.025 0  1.36304347826087 0.03333333333333333 0  1.371304347826087 0.03333333333333333 0  1.379565217391304 0.03333333333333333 0  1.387826086956522 0.03333333333333333 0  1.396086956521739 0.03333333333333333 0  1.404347826086957 0.03333333333333333 0  1.412608695652174 0.03333333333333333 0  1.420869565217391 0.03333333333333333 0  1.429130434782609 0.03333333333333333 0  1.437391304347826 0.03333333333333333 0  1.445652173913043 0.03333333333333333 0  1.453913043478261 0.03333333333333333 0  1.462173913043478 0.03333333333333333 0  1.470434782608696 0.03333333333333333 0  1.478695652173913 0.03333333333333333 0  1.486956521739131 0.03333333333333333 0  1.495217391304348 0.03333333333333333 0  1.503478260869565 0.03333333333333333 0  1.511739130434782 0.03333333333333333 0  1.52 0.03333333333333333 0  1.528260869565217 0.03333333333333333 0  1.536521739130435 0.03333333333333333 0  1.544782608695652 0.03333333333333333 0  1.55304347826087 0.03333333333333333 0  1.561304347826087 0.03333333333333333 0  1.569565217391304 0.03333333333333333 0  1.577826086956522 0.03333333333333333 0  1.586086956521739 0.03333333333333333 0  1.594347826086957 0.03333333333333333 0  1.602608695652174 0.03333333333333333 0  1.610869565217391 0.03333333333333333 0  1.619130434782609 0.03333333333333333 0  1.627391304347826 0.03333333333333333 0  1.635652173913043 0.03333333333333333 0  1.643913043478261 0.03333333333333333 0  1.652173913043478 0.03333333333333333 0  1.660434782608696 0.03333333333333333 0  1.668695652173913 0.03333333333333333 0  1.67695652173913 0.03333333333333333 0  1.685217391304348 0.03333333333333333 0  1.693478260869565 0.03333333333333333 0  1.701739130434782 0.03333333333333333 0  1.71 0.03333333333333333 0  1.718260869565217 0.03333333333333333 0  1.726521739130435 0.03333333333333333 0  1.734782608695652 0.03333333333333333 0  1.743043478260869 0.03333333333333333 0  1.751304347826087 0.03333333333333333 0  1.759565217391304 0.03333333333333333 0  1.767826086956522 0.03333333333333333 0  1.776086956521739 0.03333333333333333 0  1.784347826086957 0.03333333333333333 0  1.371304347826087 0.04166666666666666 0  1.379565217391304 0.04166666666666666 0  1.387826086956522 0.04166666666666666 0  1.396086956521739 0.04166666666666666 0  1.404347826086957 0.04166666666666666 0  1.412608695652174 0.04166666666666666 0  1.420869565217391 0.04166666666666666 0  1.429130434782609 0.04166666666666666 0  1.437391304347826 0.04166666666666666 0  1.445652173913043 0.04166666666666666 0  1.453913043478261 0.04166666666666666 0  1.462173913043478 0.04166666666666666 0  1.470434782608696 0.04166666666666666 0  1.478695652173913 0.04166666666666666 0  1.486956521739131 0.04166666666666666 0  1.495217391304348 0.04166666666666666 0  1.503478260869565 0.04166666666666666 0  1.511
[...]
<PointData  Vectors="Displacement"> 
<DataArray  type="Float64"  Name="Displacement"  NumberOfComponents="3" format="ascii">2.6120382521116841e+00 3.0766326570503209e+00 0.0000000000000000e+00  2.6120387858324161e+00 3.1770855035445043e+00 0.0000000000000000e+00  2.5107041353995880e+00 3.1770852518663335e+00 0.0000000000000000e+00  2.5107039006323033e+00 3.0766325095109619e+00 0.0000000000000000e+00  2.6120395605858975e+00 3.2775389076652708e+00 0.0000000000000000e+00  2.5107045239362513e+00 3.2775385710613985e+00 0.0000000000000000e+00  2.6120404670474806e+00 3.3779928454623929e+00 0.0000000000000000e+00  2.5107050320083077e+00 3.3779924610136103e+00 0.0000000000000000e+00  2.6120414345056808e+00 3.4784472527702652e+00 0.0000000000000000e+00  2.5107056230089047e+00 3.4784468435267062e+00 0.0000000000000000e+00  2.6120424209039812e+00 3.5789020624150454e+00 0.0000000000000000e+00  2.5107062691029993e+00 3.5789016425637445e+00 0.0000000000000000e+00  2.6120434018232932e+00 3.6793572150638312e+00 0.0000000000000000e+00  2.5107069493654537e+00 3.6793567935921123e+00 0.0000000000000000e+00  2.6120443628550922e+00 3.7798126605228344e+00 0.0000000000000000e+00  2.5107076480028327e+00 3.7798122433995149e+00 0.0000000000000000e+00  2.6120452958111899e+00 3.8802683551384241e+00 0.0000000000000000e+00  2.5107083536402897e+00 3.8802679460398646e+00 0.0000000000000000e+00  2.6120461971271873e+00 3.9807242603122801e+00 0.0000000000000000e+00  2.5107090589692769e+00 3.9807238609861524e+00 0.0000000000000000e+00  2.6120470656572978e+00 4.0811803449609103e+00 0.0000000000000000e+00  2.5107097587322422e+00 4.0811799564570928e+00 0.0000000000000000e+00  2.6120479093838651e+00 4.1816365682950849e+00 0.0000000000000000e+00  2.5107104569390986e+00 4.1816361854126347e+00 0.0000000000000000e+00  2.6120487388874736e+00 4.2820929112420680e+00 0.0000000000000000e+00  2.5107111582878359e+00 4.2820925299501260e+00 0.0000000000000000e+00  2.6120495598621534e+00 4.3825493685227732e+00 0.0000000000000000e+00  2.5107118637090324e+00 4.3825489879701180e+00 0.0000000000000000e+00  2.6120503711000005e+00 4.4830059390109174e+00 0.0000000000000000e+00  2.5107125698710315e+00 4.4830055613594384e+00 0.0000000000000000e+00  2.6120511659442682e+00 4.5834626191979453e+00 0.0000000000000000e+00  2.5107132703813453e+00 4.5834622484880425e+00 0.0000000000000000e+00  2.6120519353852125e+00 4.6839193996619688e+00 0.0000000000000000e+00  2.5107139578641897e+00 4.6839190402700908e+00 0.0000000000000000e+00  2.6120526708876097e+00 4.7843762654792732e+00 0.0000000000000000e+00  2.5107146256241424e+00 4.7843759210755383e+00 0.0000000000000000e+00  2.6120533661328591e+00 4.8848331981611439e+00 0.0000000000000000e+00  2.5107152686184748e+00 4.8848328711969744e+00 0.0000000000000000e+00  2.6120540176100207e+00 4.9852901780217236e+00 0.0000000000000000e+00  2.5107158837216565e+00 4.9852898696900017e+00 0.0000000000000000e+00  2.6120546248808880e+00 5.0857471851433695e+00 0.0000000000000000e+00  2.5107164700123072e+00 5.0857468952461451e+00 0.0000000000000000e+00  2.6120551902464340e+00 5.1862042012908498e+00 0.0000000000000000e+00  2.5107170285108134e+00 5.1862039285227119e+00 0.0000000000000000e+00  2.6120557177947537e+00 5.2866612113588944e+00 0.0000000000000000e+00  2.5107175614830468e+00 5.2866609538209479e+00 0.0000000000000000e+00  2.6120562122904465e+00 5.3871182037317729e+00 0.0000000000000000e+00  2.5107180716987649e+00 5.3871179594106291e+00 0.0000000000000000e+00  2.6120566782779941e+00 5.4875751698518833e+00 0.0000000000000000e+00  2.5107185618585310e+00 5.4875749369501552e+00 0.0000000000000000e+00  2.6120571195390947e+00 5.5880321034286755e+00 0.0000000000000000e+00  2.5107190342463102e+00 5.5880318805309290e+00 0.0000000000000000e+00  2.6120575389646339e+00 5.6884889994432823e+00 0.0000000000000000e+00  2.5107194906733143e+00 5.6884887854955259e+00 0.0000000000000000e+00  2.6120579383962292e+00 5.7889458540102821e+00 0.0000000000000000e+00  2.5107199322690792e+00 5.7889456484442317e+00 0.0000000000000000e+00  2.6120583188893778e+00 5.8894026631665168e+00 0.0000000000000000e+00  2.5107203597134324e+00 5.8894024656649213e+00 0.0000000000000000e+00  2.6120586814653208e+00 5.9898594220035237e+00 0.0000000000000000e+00  2.5107207738240125e+00 5.9898592320849264e+00 0.0000000000000000e+00  2.6120590272424407e+00 6.0903161260056544e+00 0.0000000000000000e+00  2.5107211754514225e+00 6.0903159431718459e+00 0.0000000000000000e+00  2.6120593573784068e+00 6.1907727710110754e+00 0.0000000000000000e+00  2.5107215654533737e+00 6.1907725947519525e+00 0.0000000000000000e+00  2.6120596729256054e+00 6.2912293534172061e+00 0.0000000000000000e+00  2.5107219445869822e+00 6.2912291832979639e+00 0.0000000000000000e+00  2.6120599748577993e+00 6.3916858697583860e+00 0.0000000000000000e+00  2.5107223135969536e+00 6.3916857053458136e+00 0.0000000000000000e+00  2.6120602640379884e+00 6.4921423168699759e+00 0.0000000000000000e+00  2.5107226731816685e+00 6.4921421577813963e+00 0.0000000000000000e+00  2.6120605410334239e+00 6.5925986920091191e+00 0.0000000000000000e+00  2.5107230238364129e+00 6.5925985380276648e+00 0.0000000000000000e+00  2.6120608060338557e+00 6.6930549924630531e+00 0.0000000000000000e+00  2.5107233658171468e+00 6.6930548435430515e+00 0.0000000000000000e+00  2.6120610588219573e+00 6.7935112154007022e+00 0.0000000000000000e+00  2.5107236990866606e+00 6.7935110716930218e+00 0.0000000000000000e+00  2.6120612988236598e+00 6.8939673576383642e+00 0.0000000000000000e+00  2.5107240233133399e+00 6.8939672194610582e+00 0.0000000000000000e+00  2.6120615254199913e+00 6.9944234151867981e+00 0.0000000000000000e+00  2.5107243380969333e+00 6.9944232828339441e+00 0.0000000000000000e+00  2.6120617384077796e+00 7.0948793832325103e+00 0.0000000000000000e+00  2.5107246432783175e+00 7.0948792567581274e+00 0.0000000000000000e+00  2.6120619384090591e+00 7.1953352565631290e+00 0.0000000000000000e+00  2.5107249391963768e+00 7.1953351356139317e+00 0.0000000000000000e+00  2.6120621274051854e+00 7.2957910296819568e+00 0.0000000000000000e+00  2.5107252271503064e+00 7.2957909131985348e+00 0.0000000000000000e+00  2.6120623084099361e+00 7.3962466989578166e+00 0.0000000000000000e+00  2.5107255090317970e+00 7.3962465855387380e+00 0.0000000000000000e+00  2.6120624846369607e+00 7.4967022633074114e+00 0.0000000000000000e+00  2.5107257867936830e+00 7.4967021515904522e+00 0.0000000000000000e+00  2.6120626586539721e+00 7.5971577240055161e+00 0.0000000000000000e+00  2.5107260619982288e+00 7.5971576129928691e+00 0.0000000000000000e+00  2.6120628315905607e+00 7.6976130841020405e+00 0.0000000000000000e+00  2.5107263353768317e+00 7.6976129735036238e+00 0.0000000000000000e+00  2.6120630022743758e+00 7.7980683476547972e+00 0.0000000000000000e+00  2.5107266062103268e+00 7.7980682383781117e+00 0.0000000000000000e+00  2.6120631667013505e+00 7.8985235176964217e+00 0.0000000000000000e+00  2.5107268718517517e+00 7.8985234122630521e+00 0.0000000000000000e+00  2.6120633169000280e+00 7.9989785961903452e+00 0.0000000000000000e+00  2.5107271259011332e+00 7.9989785000684090e+00 0.0000000000000000e+00  2.6120634439876729e+00 8.0994335747633635e+00 0.0000000000000000e+00  2.5107273596176540e+00 8.0994334950550559e+00 0.0000000000000000e+00  2.6120635396346645e+00 8.1998884436540198e+00 0.0000000000000000e+00  2.5107275576396297e+00 8.1998883910069225e+00 0.0000000000000000e+00  2.6120636102127248e+00 8.3003431938102494e+00 0.0000000000000000e+00  2.5107276991002929e+00 8.3003431682634154e+00 0.0000000000000000e+00  2.5107277781674155e+00 8.4007978070428369e+00 0.0000000000000000e+00  2.4093690949411100e+00 3.1770850804229593e+00 0.0000000000000000e+00  2.4093691735799934e+00 3.2775383509511729e+00 0.0000000000000000e+00  2.4093693668613261e+00 3.3779922141296348e+00 0.0000000000000000e+00  2.4093696529041426e+00 3.4784465754022773e+00 0.0000000000000000e+00  2.4093700148244568e+00 3.5789013572039097e+00 0.0000000000000000e+00  2.4093704366345263e+00 3.6793564955443454e+00 0.0000000000000000e+00  2.4093709030769586e+00 3.7798119379246935e+00 0.0000000000000000e+00  2.4093714010582281e+00 3.8802676375641170e+00 0.0000000000000000e+00  2.4093719207472479e+00 3.9807235523376181e+00 0.0000000000000000e+00  2.4093724517608841e+00 4.0811796531271325e+00 0.0000000000000000e+00  2.4093730008881109e+00 4.1816358754985306e+00 0.0000000000000000e+00  2.4093735746167075e+00 4.2820922083514565e+00 0.0000000000000000e+00  2.4093741717608927e+00 4.3825486558414637e+00 0.0000000000000000e+00  2.4093747856892280e+00 4.4830052236542119e+00 0.0000000000000000e+00  2.4093754071292004e+00 4.5834619116697422e+00 0.0000000000000000e+00  2.4093760271177245e+00 4.6839187099498236e+00 0.0000000000000000e+00  2.4093766385344320e+00 4.7843756012281382e+00 0.0000000000000000e+00  2.4093772364841728e+00 4.8848325641013313e+00 0.0000000000000000e+00  2.4093778178724392e+00 4.9852895764869043e+00 0.0000000000000000e+00  2.4093783817805758e+00 5.0857466154412290e+00 0.0000000000000000e+00  2.4093789291511634e+00 5.1862036605005786e+00 0.0000000000000000e+00  2.4093794618546025e+00 5.2866606956333975e+00 0.0000000000000000e+00  2.4093799818915782e+00 5.3871177093058771e+00 0.0000000000000000e+00  2.4093804909380268e+00 5.4875746936168781e+00 0.0000000000000000e+00  2.4093809901615608e+00 5.5880316431547081e+00 0.0000000000000000e+00  2.4093814804161173e+00 5.6884885534876277e+00 0.0000000000000000e+00  2.4093819618121528e+00 5.7889454219444207e+00 0.0000000000000000e+00  2.4093824340747707e+00 5.8894022449970365e+00 0.0000000000000000e+00  2.4093828976274203e+00 5.9898590167935186e+00 0.0000000000000000e+00  2.4093833530845856e+00 6.0903157328493212e+00 0.0000000000000000e+00  2.4093838010849913e+00 6.1907723889397213e+00 0.0000000000000000e+00  2.4093842421054048e+00 6.2912289817181302e+00 0.0000000000000000e+00  2.4093846767255838e+00 6.3916855075655414e+00 0.0000000000000000e+00  2.4093851056319151e+00 6.4921419633350901e+00 0.0000000000000000e+00  2.4093855293361899e+00 6.5925983466889599e+00 0.0000000000000000e+00  2.4093859481672211e+00 6.6930546552478809e+00 0.0000000000000000e+00  2.4093863621342297e+00 6.7935108866752838e+00 0.0000000000000000e+00  2.4093867707669370e+00 6.8939670383207465e+00 0.0000000000000000e+00  2.4093871733573056e+00 6.9944231062130440e+00 0.0000000000000000e+00  2.4093875693168392e+00 7.0948790850492358e+00 0.0000000000000000e+00  2.4093879584292015e+00 7.1953349688009887e+00 0.0000000000000000e+00  2.4093883417808559e+00 7.2957907499576207e+00 0.0000000000000000e+00  2.4093887211189298e+00 7.3962464242148762e+00 0.0000000000000000e+00  2.4093890981826771e+00 7.4967019906110419e+00 0.0000000000000000e+00  2.4093894745134596e+00 7.5971574510017845e+00 0.0000000000000000e+00  2.4093898513468681e+00 7.6976128095626422e+00 0.0000000000000000e+00  2.4093902290564277e+00 7.7980680726907075e+00 0.0000000000000000e+00  2.4093906068299225e+00 7.8985232465436388e+00 0.0000000000000000e+00  2.4093909788741059e+00 7.9989783417383640e+00 0.0000000000000000e+00  2.4093913376783225e+00 8.0994333527427784e+00 0.0000000000000000e+00  2.4093916633255157e+00 8.1998882866978171e+00 0.0000000000000000e+00  2.4093919210822983e+00 8.3003431307025384e+00 0.0000000000000000e+00  2.4093920561748834e+00 8.4007978213459609e+00 0.0000000000000000e+00  2.3080334444227142e+00 3.2775381898489591e+00 0.0000000000000000e+00  2.3080333842982217e+00 3.3779920471022349e+00 0.0000000000000000e+00  2.3080334313020132e+00 3.4784463983332068e+00 0.0000000000000000e+00  2.3080335678056088e+00 3.5789011657709109e+00 0.0000000000000000e+00  2.3080337796813279e+00 3.6793562893579974e+00 0.0000000000000000e+00  2.3080340519675966e+00 3.7798117209806392e+00 0.0000000000000000e+00  2.3080343704738127e+00 3.8802674143585016e+00 0.0000000000000000e+00  2.3080347237078045e+00 3.9807233260262080e+00 0.0000000000000000e+00  2.3080350940162799e+00 4.0811794360203582e+00 0.0000000000000000e+00  2.3080354994231631e+00 4.1816356383285171e+00 0.0000000000000000e+00  2.3080359531860193e+00 4.2820919418685266e+00 0.0000000000000000e+00  2.3080364528875874e+00 4.3825483631920763e+00 0.0000000000000000e+00  2.3080369876713562e+00 4.4830049143086192e+00 0.0000000000000000e+00  2.3080375435471874e+00 4.5834615969196593e+00 0.0000000000000000e+00  2.3080381083398955e+00 4.6839183984591779e+00 0.0000000000000000e+00  2.3080386734328155e+00 4.7843752983455383e+00 0.0000000000000000e+00  2.3080392335439144e+00 4.8848322723320434e+00 0.0000000000000000e+00  2.3080397852955512e+00 4.9852892970606266e+00 0.0000000000000000e+00  2.3080403280925594e+00 5.0857463469516446e+00 0.0000000000000000e+00  2.3080408635964380e+00 5.1862034000367645e+00 0.0000000000000000e+00  2.3080413941568896e+00 5.2866604402521062e+00 0.0000000000000000e+00  2.3080419217283317e+00 5.3871174568098068e+00 0.0000000000000000e+00  2.3080424474474661e+00 5.4875744427684028e+00 0.0000000000000000e+00  2.3080429716030948e+00 5.5880313936009314e+00 0.0000000000000000e+00  2.3080434942671451e+00 5.6884883050175636e+00 0.0000000000000000e+00  2.3080440142961454e+00 5.7889451758040922e+00 0.0000000000000000e+00  2.3080445300830434e+00 5.8894020025767109e+00 0.0000000000000000e+00  2.3080450417669329e+00 5.9898587774968233e+00 0.0000000000000000e+00  2.3080455497928991e+00 6.0903154963540596e+00 0.0000000000000000e+00  2.3080460546307084e+00 6.1907721547766776e+00 0.0000000000000000e+00  2.3080465564019494e+00 6.2912287498395996e+00 0.0000000000000000e+00  2.3080470555420818e+00 6.3916852774477899e+00 0.0000000000000000e+00  2.3080475528199877e+00 6.4921417342902261e+00 0.0000000000000000e+00  2.3080480487951034e+00 6.5925981184393656e+00 0.0000000000000000e+00  2.3080485439443175e+00 6.6930544276558690e+00 0.0000000000000000e+00  2.3080490383702839e+00 6.7935106601386908e+00 0.0000000000000000e+00  2.3080495313360760e+00 6.8939668140378592e+00 0.0000000000000000e+00  2.3080500215888131e+00 6.9944228855472375e+00 0.0000000000000000e+00  2.3080505078448326e+00 7.0948788690468634e+00 0.0000000000000000e+00  2.3080509890779406e+00 7.1953347579790075e+00 0.0000000000000000e+00  2.3080514665305558e+00 7.2957905421184925e+00 0.0000000000000000e+00  2.3080519422840022e+00 7.3962462168332843e+00 0.0000000000000000e+00  2.3080524182414757e+00 7.4967017813417369e+00 0.0000000000000000e+00  2.3080528962779399e+00 7.5971572375254039e+00 0.0000000000000000e+00  2.3080533786176067e+00 7.6976125895042795e+00 0.0000000000000000e+00  2.3080538674227005e+00 7.7980678445959031e+00 0.0000000000000000e+00  2.3080543653572070e+00 7.8985230095604644e+00 0.0000000000000000e+00  2.3080548685522051e+00 7.9989781044022932e+00 0.0000000000000000e+00  2.3080553770081726e+00 8.0994331190692623e+00 0.0000000000000000e+00  2.3080558731398497e+00 8.1998880853460889e+00 0.0000000000000000e+00  2.3080563227869151e+00 8.3003430046983535e+00 0.0000000000000000e+00  2.3080566817508084e+00 8.4007978390686056e+00 0.0000000000000000e+00  2.3080569043892645e+00 8.5012525688113243e+00 0.0000000000000000e+00  2.2066969685152347e+00 3.3779919021164102e+00 0.0000000000000000e+00  2.2066968715157196e+00 3.4784462616781848e+00 0.0000000000000000e+00  2.2066968541873067e+00 3.5789010251595901e+00 0.0000000000000000e+00  2.2066969121560192e+00 3.6793561390526275e+00 0.0000000000000000e+00  2.2066970346163166e+00 3.7798115640520833e+00 0.0000000000000000e+00  2.2066972082808771e+00 3.8802672552931305e+00 0.0000000000000000e+00  2.2066974208496259e+00 3.9807231680511341e+00 0.0000000000000000e+00  2.2066976400193141e+00 4.0811793063210793e+00 0.0000000000000000e+00  2.2066979105920623e+00 4.1816354694182181e+00 0.0000000000000000e+00  2.2066982572884823e+00 4.2820917211830496e+00 0.0000000000000000e+00  2.2066986744905219e+00 4.3825480978209406e+00 0.0000000000000000e+00  2.2066991452134634e+00 4.4830046203830891e+00 0.0000000000000000e+00  2.2066996490668331e+00 4.5834612926241949e+00 0.0000000000000000e+00  2.2067001700681792e+00 4.6839180962895153e+00 0.0000000000000000e+00  2.2067006981314181e+00 4.7843750052453906e+00 0.0000000000000000e+00  2.2067012277472107e+00 4.8848319909677818e+00 0.0000000000000000e+00  2.2067017548872081e+00 4.9852890291084258e+00 0.0000000000000000e+00  2.2067022795771711e+00 5.0857460894035587e+00 0.0000000000000000e+00  2.2067028049328901e+00 5.1862031477822201e+00 0.0000000000000000e+00  2.2067033343787492e+00 5.2866601886911431e+00 0.0000000000000000e+00  2.2067038701720221e+00 5.3871172029086516e+00 0.0000000000000000e+00  2.2067044130794828e+00 5.4875741851879303e+00 0.0000000000000000e+00  2.2067049625425454e+00 5.5880311324504035e+00 0.0000000000000000e+00  2.2067055181214594e+00 5.6884880402024107e+00 0.0000000000000000e+00  2.2067060770357276e+00 5.7889449102860251e+00 0.0000000000000000e+00  2.2067066358623992e+00 5.8894017392843070e+00 0.0000000000000000e+00  2.2067071950417589e+00 5.9898585149903729e+00 0.0000000000000000e+00  2.2067077550549121e+00 6.0903152344552129e+00 0.0000000000000000e+00  2.2067083162695558e+00 6.1907718929296749e+00 0.0000000000000000e+00  2.2067088782137798e+00 6.2912284884953964e+00 0.0000000000000000e+00  2.2067094411559971e+00 6.3916850158663374e+00 0.0000000000000000e+00  2.2067100060462543e+00 6.4921414714004904e+00 0.0000000000000000e+00  2.2067105734303634e+00 6.5925978539285826e+00 0.0000000000000000e+00  2.2067111440448421e+00 6.6930541610933370e+00 0.0000000000000000e+00  2.2067117183220359e+00 6.7935103919595141e+00 0.0000000000000000e+00  2.2067122953661742e+00 6.8939665462461530e+00 0.0000000000000000e+00  2.2067128733920223e+00 6.9944226205036006e+00 0.0000000000000000e+00  2.2067134502556685e+00 7.0948786087836728e+00 0.0000000000000000e+00  2.2067140236497855e+00 7.1953345040144958e+00 0.0000000000000000e+00  2.2067145954823157e+00 7.2957902905496654e+00 0.0000000000000000e+00  2.2067151683727944e+00 7.3962459640427740e+00 0.0000000000000000e+00  2.2067157441502481e+00 7.4967015242230817e+00 0.0000000000000000e+00  2.2067163247211625e+00 7.5971569727304926e+00 0.0000000000000000e+00  2.2067169131736883e+00 7.6976123127806444e+00 0.0000000000000000e+00  2.2067175134761476e+00 7.7980675520639506e+00 0.0000000000000000e+00  2.2067181333290105e+00 7.8985226952016898e+00 0.0000000000000000e+00  2.2067187700281838e+00 7.9989777783436864e+00 0.0000000000000000e+00  2.2067194380392552e+00 8.0994327711876775e+00 0.0000000000000000e+00  2.2067201211292136e+00 8.1998877524922538e+00 0.0000000000000000e+00  2.2067207818414856e+00 8.3003427394610263e+00 0.0000000000000000e+00  2.2067213771098593e+00 8.4007977049876317e+00 0.0000000000000000e+00  2.2067218509438309e+00 8.5012526125206413e+00 0.0000000000000000e+00  2.1053599540460213e+00 3.4784461105847870e+00 0.0000000000000000e+00  2.1053598420045918e+00 3.5789008914535869e+00 0.0000000000000000e+00  2.1053597950899081e+00 3.6793560069948557e+00 0.0000000000000000e+00  2.1053598095708064e+00 3.7798114355469909e+00 0.0000000000000000e+00  2.1053598749164539e+00 3.8802671349840208e+00 0.0000000000000000e+00  2.1053599774103975e+00 3.9807230600854870e+00 0.0000000000000000e+00  2.1053600496922242e+00 4.0811792741832891e+00 0.0000000000000000e+00  2.1053601951820045e+00 4.1816353619343669e+00 0.0000000000000000e+00  2.1053604526982452e+00 4.2820915324344355e+00 0.0000000000000000e+00  2.1053608064616638e+00 4.3825478435032723e+00 0.0000000000000000e+00  2.1053612302195086e+00 4.4830043264764745e+00 0.0000000000000000e+00  2.1053616954089396e+00 4.5834609865991922e+00 0.0000000000000000e+00  2.1053621828751972e+00 4.6839177941655494e+00 0.0000000000000000e+00  2.1053626823827689e+00 4.7843747148809213e+00 0.0000000000000000e+00  2.1053631891012285e+00 4.8848317146014208e+00 0.0000000000000000e+00  2.1053636975015455e+00 4.9852887698427857e+00 0.0000000000000000e+00  2.1053642085283957e+00 5.0857458415346084e+00 0.0000000000000000e+00  2.1053647275912661e+00 5.1862029028987315e+00 0.0000000000000000e+00  2.1053652595862715e+00 5.2866599400470298e+00 0.0000000000000000e+