<?xml version="1.0"?>
<VTKFile type="UnstructuredGrid"  version="0.1"  >
<UnstructuredGrid>
<Piece  NumberOfPoints="2375" NumberOfCells="4530">
<Points>
<DataArray  type="Float64"  NumberOfComponents="3"  format="ascii">2.85 0.2416666666666667 0  2.85 0.25 0  2.858260869565217 0.25 0  2.213913043478261 0.25 0  2.222173913043478 0.25 0  2.222173913043478 0.2583333333333334 0  2.230434782608695 0.2583333333333334 0  2.858260869565217 0.2583333333333334 0  2.85 0.2583333333333334 0  2.866521739130435 0.2583333333333334 0  2.230434782608695 0.2666666666666667 0  2.238695652173913 0.2583333333333334 0  2.238695652173913 0.2666666666666667 0  2.24695652173913 0.2583333333333334 0  2.24695652173913 0.2666666666666667 0  2.255217391304348 0.2583333333333334 0  2.255217391304348 0.2666666666666667 0  2.263478260869565 0.2583333333333334 0  2.263478260869565 0.2666666666666667 0  2.271739130434783 0.2583333333333334 0  2.271739130434783 0.2666666666666667 0  2.28 0.2583333333333334 0  2.28 0.2666666666666667 0  2.288260869565217 0.2583333333333334 0  2.288260869565217 0.2666666666666667 0  2.296521739130434 0.2583333333333334 0  2.296521739130434 0.2666666666666667 0  2.304782608695652 0.2583333333333334 0  2.304782608695652 0.2666666666666667 0  2.31304347826087 0.2583333333333334 0  2.31304347826087 0.2666666666666667 0  2.321304347826087 0.2583333333333334 0  2.321304347826087 0.2666666666666667 0  2.329565217391304 0.2583333333333334 0  2.329565217391304 0.2666666666666667 0  2.337826086956521 0.2583333333333334 0  2.337826086956521 0.2666666666666667 0  2.346086956521739 0.2583333333333334 0  2.346086956521739 0.2666666666666667 0  2.354347826086956 0.2583333333333334 0  2.354347826086956 0.2666666666666667 0  2.362608695652174 0.2583333333333334 0  2.362608695652174 0.2666666666666667 0  2.370869565217391 0.2583333333333334 0  2.370869565217391 0.2666666666666667 0  2.379130434782609 0.2583333333333334 0  2.379130434782609 0.2666666666666667 0  2.387391304347826 0.2583333333333334 0  2.387391304347826 0.2666666666666667 0  2.395652173913044 0.2583333333333334 0  2.395652173913044 0.2666666666666667 0  2.403913043478261 0.2583333333333334 0  2.403913043478261 0.2666666666666667 0  2.412173913043478 0.2583333333333334 0  2.412173913043478 0.2666666666666667 0  2.420434782608695 0.2583333333333334 0  2.420434782608695 0.2666666666666667 0  2.428695652173913 0.2583333333333334 0  2.428695652173913 0.2666666666666667 0  2.43695652173913 0.2583333333333334 0  2.43695652173913 0.2666666666666667 0  2.445217391304348 0.2583333333333334 0  2.445217391304348 0.2666666666666667 0  2.453478260869565 0.2583333333333334 0  2.453478260869565 0.2666666666666667 0  2.461739130434782 0.2583333333333334 0  2.461739130434782 0.2666666666666667 0  2.47 0.2583333333333334 0  2.47 0.2666666666666667 0  2.478260869565217 0.2583333333333334 0  2.478260869565217 0.2666666666666667 0  2.486521739130435 0.2583333333333334 0  2.486521739130435 0.2666666666666667 0  2.494782608695652 0.2583333333333334 0  2.494782608695652 0.2666666666666667 0  2.503043478260869 0.2583333333333334 0  2.503043478260869 0.2666666666666667 0  2.511304347826087 0.2583333333333334 0  2.511304347826087 0.2666666666666667 0  2.519565217391305 0.2583333333333334 0  2.519565217391305 0.2666666666666667 0  2.527826086956522 0.2583333333333334 0  2.527826086956522 0.2666666666666667 0  2.536086956521739 0.2583333333333334 0  2.536086956521739 0.2666666666666667 0  2.544347826086956 0.2583333333333334 0  2.544347826086956 0.2666666666666667 0  2.552608695652174 0.2583333333333334 0  2.552608695652174 0.2666666666666667 0  2.560869565217391 0.2583333333333334 0  2.560869565217391 0.2666666666666667 0  2.569130434782608 0.2583333333333334 0  2.569130434782608 0.2666666666666667 0  2.577391304347826 0.2583333333333334 0  2.577391304347826 0.2666666666666667 0  2.585652173913043 0.2583333333333334 0  2.585652173913043 0.2666666666666667 0  2.593913043478261 0.2583333333333334 0  2.593913043478261 0.2666666666666667 0  2.602173913043478 0.2583333333333334 0  2.602173913043478 0.2666666666666667 0  2.610434782608696 0.2583333333333334 0  2.610434782608696 0.2666666666666667 0  2.618695652173913 0.2583333333333334 0  2.618695652173913 0.2666666666666667 0  2.62695652173913 0.2583333333333334 0  2.62695652173913 0.2666666666666667 0  2.635217391304348 0.2583333333333334 0  2.635217391304348 0.2666666666666667 0  2.643478260869565 0.2583333333333334 0  2.643478260869565 0.2666666666666667 0  2.651739130434783 0.2583333333333334 0  2.651739130434783 0.2666666666666667 0  2.66 0.2583333333333334 0  2.66 0.2666666666666667 0  2.668260869565217 0.2583333333333334 0  2.668260869565217 0.2666666666666667 0  2.676521739130435 0.2583333333333334 0  2.676521739130435 0.2666666666666667 0  2.684782608695652 0.2583333333333334 0  2.684782608695652 0.2666666666666667 0  2.693043478260869 0.2583333333333334 0  2.693043478260869 0.2666666666666667 0  2.701304347826087 0.2583333333333334 0  2.701304347826087 0.2666666666666667 0  2.709565217391304 0.2583333333333334 0  2.709565217391304 0.2666666666666667 0  2.717826086956522 0.2583333333333334 0  2.717826086956522 0.2666666666666667 0  2.726086956521739 0.2583333333333334 0  2.726086956521739 0.2666666666666667 0  2.734347826086956 0.2583333333333334 0  2.734347826086956 0.2666666666666667 0  2.742608695652174 0.2583333333333334 0  2.742608695652174 0.2666666666666667 0  2.750869565217391 0.2583333333333334 0  2.750869565217391 0.2666666666666667 0  2.759130434782609 0.2583333333333334 0  2.759130434782609 0.2666666666666667 0  2.767391304347826 0.2583333333333334 0  2.767391304347826 0.2666666666666667 0  2.775652173913044 0.2583333333333334 0  2.775652173913044 0.2666666666666667 0  2.783913043478261 0.2583333333333334 0  2.783913043478261 0.2666666666666667 0  2.792173913043478 0.2583333333333334 0  2.792173913043478 0.2666666666666667 0  2.800434782608696 0.2583333333333334 0  2.800434782608696 0.2666666666666667 0  2.808695652173913 0.2583333333333334 0  2.808695652173913 0.2666666666666667 0  2.81695652173913 0.2583333333333334 0  2.81695652173913 0.2666666666666667 0  2.825217391304347 0.2583333333333334 0  2.825217391304347 0.2666666666666667 0  2.833478260869565 0.2583333333333334 0  2.833478260869565 0.2666666666666667 0  2.841739130434783 0.2583333333333334 0  2.841739130434783 0.2666666666666667 0  2.85 0.2666666666666667 0  2.858260869565217 0.2666666666666667 0  2.866521739130435 0.2666666666666667 0  2.874782608695652 0.2666666666666667 0  2.238695652173913 0.275 0  2.24695652173913 0.275 0  2.255217391304348 0.275 0  2.263478260869565 0.275 0  2.271739130434783 0.275 0  2.28 0.275 0  2.288260869565217 0.275 0  2.296521739130434 0.275 0  2.304782608695652 0.275 0  2.31304347826087 0.275 0  2.321304347826087 0.275 0  2.329565217391304 0.275 0  2.337826086956521 0.275 0  2.346086956521739 0.275 0  2.354347826086956 0.275 0  2.362608695652174 0.275 0  2.370869565217391 0.275 0  2.379130434782609 0.275 0  2.387391304347826 0.275 0  2.395652173913044 0.275 0  2.403913043478261 0.275 0  2.412173913043478 0.275 0  2.420434782608695 0.275 0  2.428695652173913 0.275 0  2.43695652173913 0.275 0  2.445217391304348 0.275 0  2.453478260869565 0.275 0  2.461739130434782 0.275 0  2.47 0.275 0  2.478260869565217 0.275 0  2.486521739130435 0.275 0  2.494782608695652 0.275 0  2.503043478260869 0.275 0  2.511304347826087 0.275 0  2.519565217391305 0.275 0  2.527826086956522 0.275 0  2.536086956521739 0.275 0  2.544347826086956 0.275 0  2.552608695652174 0.275 0  2.560869565217391 0.275 0  2.569130434782608 0.275 0  2.577391304347826 0.275 0  2.585652173913043 0.275 0  2.593913043478261 0.275 0  2.602173913043478 0.275 0  2.610434782608696 0.275 0  2.618695652173913 0.275 0  2.62695652173913 0.275 0  2.635217391304348 0.275 0  2.643478260869565 0.275 0  2.651739130434783 0.275 0  2.66 0.275 0  2.668260869565217 0.275 0  2.676521739130435 0.275 0  2.684782608695652 0.275 0  2.693043478260869 0.275 0  2.701304347826087 0.275 0  2.709565217391304 0.275 0  2.717826086956522 0.275 0  2.726086956521739 0.275 0  2.734347826086956 0.275 0  2.742608695652174 0.275 0  2.750869565217391 0.275 0  2.759130434782609 0.275 0  2.767391304347826 0.275 0  2.775652173913044 0.275 0  2.783913043478261 0.275 0  2.792173913043478 0.275 0  2.800434782608696 0.275 0  2.808695652173913 0.275 0  2.81695652173913 0.275 0  2.825217391304347 0.275 0  2.833478260869565 0.275 0  2.841739130434783 0.275 0  2.85 0.275 0  2.858260869565217 0.275 0  2.866521739130435 0.275 0  2.874782608695652 0.275 0  2.88304347826087 0.275 0  2.24695652173913 0.2833333333333333 0  2.255217391304348 0.2833333333333333 0  2.263478260869565 0.2833333333333333 0  2.271739130434783 0.2833333333333333 0  2.28 0.2833333333333333 0  2.288260869565217 0.2833333333333333 0  2.296521739130434 0.2833333333333333 0  2.304782608695652 0.2833333333333333 0  2.31304347826087 0.2833333333333333 0  2.321304347826087 0.2833333333333333 0  2.329565217391304 0.2833333333333333 0  2.337826086956521 0.2833333333333333 0  2.346086956521739 0.2833333333333333 0  2.354347826086956 0.2833333333333333 0  2.362608695652174 0.2833333333333333 0  2.370869565217391 0.2833333333333333 0  2.379130434782609 0.2833333333333333 0  2.387391304347826 0.2833333333333333 0  2.395652173913044 0.2833333333333333 0  2.403913043478261 0.2833333333333333 0  2.412173913043478 0.2833333333333333 0  2.420434782608695 0.2833333333333333 0  2.428695652173913 0.2833333333333333 0  2.43695652173913 0.2833333333333333 0  2.445217391304348 0.2833333333333333 0  2.453478260869565 0.2833333333333333 0  2.461739130434782 0.2833333333333333 0  2.47 0.2833333333333333 0  2.478260869565217 0.2833333333333333 0  2.486521739130435 0.2833333333333333 0  2.494782608695652 0.2833333333333333 0  2.503043478260869 0.2833333333333333 0  2.511304347826087 0.2833333333333333 0  2.519565217391305 0.2833333333333333 0  2.527826086956522 0.2833333333333333 0  2.53608695
[...]
<PointData  Vectors="Displacement"> 
<DataArray  type="Float64"  Name="Displacement"  NumberOfComponents="3" format="ascii">-1.9100353832817249e-01 3.6025766610184064e+01 0.0000000000000000e+00  -4.4212976415544952e-01 3.6032919447102024e+01 0.0000000000000000e+00  -4.4158279982143017e-01 3.6312645105566077e+01 0.0000000000000000e+00  -6.9309501530844331e-01 1.5589204236613785e+01 0.0000000000000000e+00  -6.9550299013178207e-01 1.5819955557405272e+01 0.0000000000000000e+00  -8.8685441472915172e-01 1.5824736693872730e+01 0.0000000000000000e+00  -8.8971543618284266e-01 1.6043051956744190e+01 0.0000000000000000e+00  -6.9904168583286597e-01 3.6320117659162470e+01 0.0000000000000000e+00  -6.9642545028389102e-01 3.6040294761717625e+01 0.0000000000000000e+00  -7.0252369529659464e-01 3.6602107707494618e+01 0.0000000000000000e+00  -1.0733146073903614e+00 1.6037376372838178e+01 0.0000000000000000e+00  -8.8971545044071443e-01 1.6241396985400204e+01 0.0000000000000000e+00  -1.0898002071656752e+00 1.6241396988989180e+01 0.0000000000000000e+00  -8.8539463697100418e-01 1.6449985478956645e+01 0.0000000000000000e+00  -1.0937518620907174e+00 1.6450753619613003e+01 0.0000000000000000e+00  -8.8539463378003458e-01 1.6664263436213634e+01 0.0000000000000000e+00  -1.1015521125492018e+00 1.6664263440467952e+01 0.0000000000000000e+00  -8.8338235642207363e-01 1.6902755888585510e+01 0.0000000000000000e+00  -1.0971350141681697e+00 1.6901055152153670e+01 0.0000000000000000e+00  -8.8338232910817360e-01 1.7114649902744681e+01 0.0000000000000000e+00  -1.0971350026434030e+00 1.7114649866723234e+01 0.0000000000000000e+00  -8.7442585949405160e-01 1.7361264703762643e+01 0.0000000000000000e+00  -1.0975872810836182e+00 1.7353198933276612e+01 0.0000000000000000e+00  -8.6018742746886834e-01 1.7609384175882322e+01 0.0000000000000000e+00  -1.0954637870359554e+00 1.7597065151805374e+01 0.0000000000000000e+00  -8.6018736795932171e-01 1.7842261408979258e+01 0.0000000000000000e+00  -1.0951073234386826e+00 1.7842261357937126e+01 0.0000000000000000e+00  -8.6018730760267703e-01 1.8077721366490241e+01 0.0000000000000000e+00  -1.0977126291279455e+00 1.8077721325760180e+01 0.0000000000000000e+00  -8.6018726999501849e-01 1.8316275087140557e+01 0.0000000000000000e+00  -1.1008334791459391e+00 1.8316275072349459e+01 0.0000000000000000e+00  -8.6018725355002579e-01 1.8558029329820066e+01 0.0000000000000000e+00  -1.1040620449146834e+00 1.8558029317727460e+01 0.0000000000000000e+00  -8.6018726228581266e-01 1.8803351684615702e+01 0.0000000000000000e+00  -1.1076613995265883e+00 1.8803351671495278e+01 0.0000000000000000e+00  -8.6018732828027222e-01 1.9046935423377068e+01 0.0000000000000000e+00  -1.1059076215454369e+00 1.9046935431121561e+01 0.0000000000000000e+00  -8.6018740090557866e-01 1.9290519572448360e+01 0.0000000000000000e+00  -1.1059080831316002e+00 1.9290519589004276e+01 0.0000000000000000e+00  -8.6018745039200140e-01 1.9534104078226580e+01 0.0000000000000000e+00  -1.1059084838155966e+00 1.9534104096534008e+01 0.0000000000000000e+00  -8.6018744351724263e-01 1.9777688745738818e+01 0.0000000000000000e+00  -1.1059086202501964e+00 1.9777688752518969e+01 0.0000000000000000e+00  -8.6018736935494666e-01 2.0021272956216276e+01 0.0000000000000000e+00  -1.1059079636409102e+00 2.0021272948009585e+01 0.0000000000000000e+00  -8.4287882378767376e-01 2.0301312280985769e+01 0.0000000000000000e+00  -1.0819540127414882e+00 2.0298632858047547e+01 0.0000000000000000e+00  -8.1763340505329662e-01 2.0586036959450393e+01 0.0000000000000000e+00  -1.0684199229263971e+00 2.0568783078143881e+01 0.0000000000000000e+00  -8.1763332278893774e-01 2.0834543787702295e+01 0.0000000000000000e+00  -1.0683198232334432e+00 2.0834543734789161e+01 0.0000000000000000e+00  -8.1763329682537245e-01 2.1087727907320531e+01 0.0000000000000000e+00  -1.0730380529463377e+00 2.1087727930511434e+01 0.0000000000000000e+00  -8.1979543594041560e-01 2.1365050177775771e+01 0.0000000000000000e+00  -1.0533956130483642e+00 2.1367813395412107e+01 0.0000000000000000e+00  -8.2084240456969160e-01 2.1639181970892437e+01 0.0000000000000000e+00  -1.0457001662346765e+00 2.1646639633473121e+01 0.0000000000000000e+00  -8.2051484045044198e-01 2.1912103974256009e+01 0.0000000000000000e+00  -1.0414792285750620e+00 2.1918991299003515e+01 0.0000000000000000e+00  -8.1838802117377962e-01 2.2185559809972023e+01 0.0000000000000000e+00  -1.0376728958826487e+00 2.2192051678553629e+01 0.0000000000000000e+00  -8.1569866064409713e-01 2.2460524729479740e+01 0.0000000000000000e+00  -1.0356887871353284e+00 2.2468396996799790e+01 0.0000000000000000e+00  -8.1254784705836325e-01 2.2733738915455383e+01 0.0000000000000000e+00  -1.0341617664034219e+00 2.2740804786063851e+01 0.0000000000000000e+00  -8.0899521628263493e-01 2.3006866076928176e+01 0.0000000000000000e+00  -1.0325422217872784e+00 2.3012943863145743e+01 0.0000000000000000e+00  -8.0507918109657317e-01 2.3281618766446151e+01 0.0000000000000000e+00  -1.0304014404757069e+00 2.3286421084807987e+01 0.0000000000000000e+00  -8.0164930127687761e-01 2.3561553725405922e+01 0.0000000000000000e+00  -1.0291814022438590e+00 2.3566970529376611e+01 0.0000000000000000e+00  -7.9873790728424265e-01 2.3844629333062880e+01 0.0000000000000000e+00  -1.0286830951290782e+00 2.3850003254512391e+01 0.0000000000000000e+00  -7.9620099238559494e-01 2.4130290169844290e+01 0.0000000000000000e+00  -1.0282217346220930e+00 2.4134812326537727e+01 0.0000000000000000e+00  -7.9354372769469128e-01 2.4418117585994402e+01 0.0000000000000000e+00  -1.0269650390998684e+00 2.4420347328179485e+01 0.0000000000000000e+00  -7.8958379429532366e-01 2.4708116394951507e+01 0.0000000000000000e+00  -1.0246113792460121e+00 2.4706392605776866e+01 0.0000000000000000e+00  -7.8369503009437025e-01 2.4984529505895210e+01 0.0000000000000000e+00  -1.0217843221394027e+00 2.4985719901256882e+01 0.0000000000000000e+00  -7.7821705157297383e-01 2.5263200925445560e+01 0.0000000000000000e+00  -1.0209175355246061e+00 2.5264821993817737e+01 0.0000000000000000e+00  -7.6540676403321262e-01 2.5552203517854338e+01 0.0000000000000000e+00  -1.0212331332262061e+00 2.5545575010646697e+01 0.0000000000000000e+00  -7.6540674198411451e-01 2.5810810671911256e+01 0.0000000000000000e+00  -1.0262821009758296e+00 2.5810810666043125e+01 0.0000000000000000e+00  -7.7092183490748889e-01 2.6100604459146950e+01 0.0000000000000000e+00  -1.0005434903311987e+00 2.6104590833654136e+01 0.0000000000000000e+00  -7.7092182648286545e-01 2.6350928573745197e+01 0.0000000000000000e+00  -1.0005434364049202e+00 2.6358573360691480e+01 0.0000000000000000e+00  -7.5168775112320474e-01 2.6662324520522265e+01 0.0000000000000000e+00  -9.7577285403830560e-01 2.6669852805844954e+01 0.0000000000000000e+00  -7.3941831503719335e-01 2.6944069213048088e+01 0.0000000000000000e+00  -9.7577280255360610e-01 2.6933921135218647e+01 0.0000000000000000e+00  -7.3037865886185183e-01 2.7228233821529823e+01 0.0000000000000000e+00  -9.5545303264039905e-01 2.7226677215272002e+01 0.0000000000000000e+00  -7.2318906636545555e-01 2.7504733334661182e+01 0.0000000000000000e+00  -9.5545296625423237e-01 2.7504825179878939e+01 0.0000000000000000e+00  -7.1772421059475289e-01 2.7784214758601046e+01 0.0000000000000000e+00  -9.5545290728255572e-01 2.7789119217871487e+01 0.0000000000000000e+00  -7.0857187075628947e-01 2.8067980396269967e+01 0.0000000000000000e+00  -9.5545283696011751e-01 2.8072175238284007e+01 0.0000000000000000e+00  -6.8388440797412009e-01 2.8370772299223699e+01 0.0000000000000000e+00  -9.5545277903323556e-01 2.8359040560032565e+01 0.0000000000000000e+00  -6.8388428529831113e-01 2.8639979556187878e+01 0.0000000000000000e+00  -9.5545277491595215e-01 2.8639979452452280e+01 0.0000000000000000e+00  -6.8388422602858823e-01 2.8909187092783441e+01 0.0000000000000000e+00  -9.5545279385059823e-01 2.8909187108536717e+01 0.0000000000000000e+00  -6.8388422440923591e-01 2.9178394311143649e+01 0.0000000000000000e+00  -9.5545269015689582e-01 2.9178394324299919e+01 0.0000000000000000e+00  -6.8388426574831684e-01 2.9447601310656246e+01 0.0000000000000000e+00  -9.5545257290184737e-01 2.9447601380869418e+01 0.0000000000000000e+00  -6.8388423422578881e-01 2.9716808059347059e+01 0.0000000000000000e+00  -9.5545245533446244e-01 2.9716807981154552e+01 0.0000000000000000e+00  -6.8388419271474099e-01 2.9982438306395274e+01 0.0000000000000000e+00  -9.5184423664183948e-01 2.9982438293838907e+01 0.0000000000000000e+00  -6.8388426224832499e-01 3.0248068262273172e+01 0.0000000000000000e+00  -9.5184413113593502e-01 3.0248068356001060e+01 0.0000000000000000e+00  -7.0254979782908900e-01 3.0506426615932938e+01 0.0000000000000000e+00  -9.5184395742061068e-01 3.0517912226570129e+01 0.0000000000000000e+00  -7.0489021813381958e-01 3.0786390555316615e+01 0.0000000000000000e+00  -9.5184388513113383e-01 3.0785646146511237e+01 0.0000000000000000e+00  -7.0202192044519185e-01 3.1071975163699587e+01 0.0000000000000000e+00  -9.2839708936966103e-01 3.1082416456361905e+01 0.0000000000000000e+00  -6.9969346535893295e-01 3.1346812908693117e+01 0.0000000000000000e+00  -9.2839700667510328e-01 3.1352427991348659e+01 0.0000000000000000e+00  -6.9732583986702723e-01 3.1621031215245718e+01 0.0000000000000000e+00  -9.2839693721119754e-01 3.1625122140079448e+01 0.0000000000000000e+00  -6.9391467100078508e-01 3.1896030068585524e+01 0.0000000000000000e+00  -9.2839692095024617e-01 3.1896704415659407e+01 0.0000000000000000e+00  -6.9193842332266664e-01 3.2180352273609692e+01 0.0000000000000000e+00  -9.3115567778082697e-01 3.2185971053813446e+01 0.0000000000000000e+00  -6.9077534850253364e-01 3.2463028440599068e+01 0.0000000000000000e+00  -9.3141735450716923e-01 3.2469120820015320e+01 0.0000000000000000e+00  -6.9046587257089564e-01 3.2746774752846456e+01 0.0000000000000000e+00  -9.3193239779975745e-01 3.2754871303243632e+01 0.0000000000000000e+00  -6.9087802859629466e-01 3.3029027189655331e+01 0.0000000000000000e+00  -9.3354322614327490e-01 3.3038367195800426e+01 0.0000000000000000e+00  -6.9139635740627392e-01 3.3307953088911319e+01 0.0000000000000000e+00  -9.3503299829399666e-01 3.3316731392591272e+01 0.0000000000000000e+00  -6.9185617658272525e-01 3.3584285471095470e+01 0.0000000000000000e+00  -9.3620799929814724e-01 3.3592420247847329e+01 0.0000000000000000e+00  -6.9245513992197261e-01 3.3858679292536813e+01 0.0000000000000000e+00  -9.3759886925206259e-01 3.3866457496266833e+01 0.0000000000000000e+00  -6.9299575957874848e-01 3.4130878789510774e+01 0.0000000000000000e+00  -9.3882097628738970e-01 3.4137556669765324e+01 0.0000000000000000e+00  -6.9328736097485655e-01 3.4401880115232288e+01 0.0000000000000000e+00  -9.3957052556703047e-01 3.4407248613711779e+01 0.0000000000000000e+00  -6.9349474425011759e-01 3.4673242624948116e+01 0.0000000000000000e+00  -9.4042438729378430e-01 3.4677957699971387e+01 0.0000000000000000e+00  -6.9341673809777271e-01 3.4944541663570575e+01 0.0000000000000000e+00  -9.4142357173667468e-01 3.4948497708517372e+01 0.0000000000000000e+00  -6.9334380715937927e-01 3.5210577883953732e+01 0.0000000000000000e+00  -9.4261292192990087e-01 3.5217245382588686e+01 0.0000000000000000e+00  -6.9456230489906567e-01 3.5484006430957564e+01 0.0000000000000000e+00  -9.4448281940755330e-01 3.5490352732399693e+01 0.0000000000000000e+00  -6.9480735943565497e-01 3.5761166891763963e+01 0.0000000000000000e+00  -9.4597405307589832e-01 3.5767124608356923e+01 0.0000000000000000e+00  -9.4804991182518972e-01 3.6047763867061548e+01 0.0000000000000000e+00  -9.4981730204457437e-01 3.6327075633120167e+01 0.0000000000000000e+00  -9.5025561960472471e-01 3.6606803964845660e+01 0.0000000000000000e+00  -9.4901465736070256e-01 3.6881264537364530e+01 0.0000000000000000e+00  -1.2730321163545304e+00 1.6248591593972172e+01 0.0000000000000000e+00  -1.2879151449077966e+00 1.6454416158544653e+01 0.0000000000000000e+00  -1.2979814050576801e+00 1.6667994602748671e+01 0.0000000000000000e+00  -1.3038899165381121e+00 1.6896197104194663e+01 0.0000000000000000e+00  -1.3126032650338477e+00 1.7114649849281708e+01 0.0000000000000000e+00  -1.3138242691863657e+00 1.7347840203298819e+01 0.0000000000000000e+00  -1.3131311895212650e+00 1.7588140862481907e+01 0.0000000000000000e+00  -1.3105908898357623e+00 1.7830497536240699e+01 0.0000000000000000e+00  -1.3041465067656532e+00 1.8068889171064800e+01 0.0000000000000000e+00  -1.2975882629672089e+00 1.8312890146574304e+01 0.0000000000000000e+00  -1.2857253700941063e+00 1.8555007498057808e+01 0.0000000000000000e+00  -1.2857252198842644e+00 1.8793965647147129e+01 0.0000000000000000e+00  -1.2774377725225443e+00 1.9032923799911778e+01 0.0000000000000000e+00  -1.2752366189686570e+00 1.9280097382987080e+01 0.0000000000000000e+00  -1.2734888620873306e+00 1.9529452852155995e+01 0.0000000000000000e+00  -1.2694741494826804e+00 1.9780540788555051e+01 0.0000000000000000e+00  -1.2635062769487271e+00 2.0035608465642266e+01 0.0000000000000000e+00  -1.2627612476472905e+00 2.0296592133863768e+01 0.0000000000000000e+00  -1.2526237970399610e+00 2.0558314286728436e+01 0.0000000000000000e+00  -1.2558272007333056e+00 2.0830085820190174e+01 0.0000000000000000e+00  -1.2561677757931489e+00 2.1107997061909870e+01 0.0000000000000000e+00  -1.2561677705067589e+00 2.1366806241188545e+01 0.0000000000000000e+00  -1.2593963867501090e+00 2.1654387319464416e+01 0.0000000000000000e+00  -1.2602470388894189e+00 2.1923914056723088e+01 0.0000000000000000e+00  -1.2556009760062472e+00 2.2197184977821205e+01 0.0000000000000000e+00  -1.2539404281694320e+00 2.2477937553120643e+01 0.0000000000000000e+00  -1.2534392850673808e+00 2.2749028794734727e+01 0.0000000000000000e+00  -1.2530884408239569e+00 2.3020149192171207e+01 0.0000000000000000e+00  -1.2529280316577991e+00 2.3291182539228632e+01 0.0000000000000000e+00  -1.2546754732622298e+00 2.3573612165179334e+01 0.0000000000000000e+00  -1.2569247732988149e+00 2.3856607801706872e+01 0.0000000000000000e+00  -1.2585382356183812e+00 2.4140411328079388e+01 0.0000000000000000e+00  -1.2585647969764748e+00 2.4423499092496101e+01 0.0000000000000000e+00  -1.2576101315431527e+00 2.4707643246434557e+01 0.0000000000000000e+00  -1.2564706556804892e+00 2.4988276630020156e+01 0.0000000000000000e+00  -1.2560176126781613e+00 2.5267470256573592e+01 0.0000000000000000e+00  -1.2555834374469603e+00 2.5545865851676368e+01 0.0000000000000000e+00  -1.2552447568591849e+00 2.5817671054822821e+01 0.0000000000000000e+00  -1.2555061846799878e+00 2.6094068427571930e+01 0.0000000000000000e+00  -1.2567537749367568e+00 2.6358573359574336e+01 0.0000000000000000e+00  -1.2492452536682561e+00 2.6653780359033828e+01 0.0000000000000000e+00  -1.2421572782497248e+00 2.6933921157503690e+01 0.0000000000000000e+00  -1.2373287620342888e+00 2.7212220946251126e+01 0.0000000000000000e+00  -1.2360407319843343e+00 2.7504825150239721e+01 0.0000000000000000e+00  -1.2422406446936045e+00 2.7789119202628342e+01 0.0000000000000000e+00  -1.2409916986885097e+00 2.8072175187489577e+01 0.0000000000000000e+00  -1.2448342317680405e+00 2.8359040520934371e+01 0.0000000000000000e+00  -1.2388557964791538e+00 2.8639979447673873e+01 0.0000000000000000e+00  -1.2270218411079619e+00 2.8909187138852364e+01 0.0000000000000000e+00  -1.2270211983164983e+00 2.9178394286738097e+01 0.0000000000000000e+00  -1.2270209204649876e+00 2.9447601338528866e+01 0.0000000000000000e+00  -1.2270202107337100e+00 2.9716807929417342e+01 0.0000000000000000e+00  -1.2087511851819799e+00 2.9990952802641811e+01 0.0000000000000000e+00  -1.2075167369818156e+00 3.0259207003855181e+01 0.0000000000000000e+00  -1.2240545886726697e+00 3.0517912167661688e+01 0.0000000000000000e+00  -1.2219261316340526e+00 3.0785646152827830e+01 0.0000000000000000e+00  -1.2051746481400274e+00 3.1075733136456844e+01 0.0000000000000000e+00  -1.2007769495621534e+00 3.1352427942427987e+01 0.0000000000000000e+00  -1.2034829416675525e+00 3.1625122111789363e+01 0.0000000000000000e+00  -1.2023612854238919e+00 3.1896704442378212e+01 0.0000000000000000e+00  -1.1862708658661671e+00 3.2191700190064907e+01 0.0000000000000000e+00  -1.1778947609838746e+00 3.2473871234864625e+01 0.0000000000000000e+00  -1.1752038619264960e+00 3.2763766664959093e+01 0.0000000000000000e+00  -1.1765657995097809e+00 3.3049437536800696e+01 0.0000000000000000e+00  -1.1779337091930291e+00 3.3326471903742998e+01 0.0000000000000000e+00  -1.1788583688418974e+00 3.3601375394102014e+01 0.0000000000000000e+00  -1.1805805847207054e+00 3.3875492845658748e+01 0.0000000000000000e+00  -1.1823352222499495e+00 3.4145034954804473e+01 0.0000000000000000e+00  -1.1835644059660384e+00 3.4412991862951799e+01 0.0000000000000000e+00  -1.1856536424630888e+00 3.4683749163987891e+01 0.0000000000000000e+00  -1.1887500050339179e+00 3.4954189267940805e+01 0.0000000000000000e+00  -1.1922434198356333e+00 3.5223751437867229e+01 0.0000000000000000e+00  -1.1954127149049685e+00 3.5496230803200987e+01 0.0000000000000000e+00  -1.1975223388840779e+00 3.5772980565979736e+01 0.0000000000000000e+00  -1.2007345647551080e+00 3.6055846174871263e+01 0.0000000000000000e+00  -1.2027626660216799e+00 3.6333527265988941e+01 0.0000000000000000e+00  -1.2029903841729710e+00 3.6611636168175480e+01 0.0000000000000000e+00  -1.2015407829412252e+00 3.6887190858984816e+01 0.0000000000000000e+00  -1.2002566076545031e+00 3.7162373409373380e+01 0.0000000000000000e+00  -1.4917344092576212e+00 1.6461457445615174e+01 0.0000000000000000e+00  -1.5051644906308865e+00 1.6672054751443266e+01 0.0000000000000000e+00  -1.5197125993385234e+00 1.6896197111178861e+01 0.0000000000000000e+00  -1.5197126203742084e+00 1.7110143153796376e+01 0.0000000000000000e+00  -1.5259189176934522e+00 1.7342927945687283e+01 0.0000000000000000e+00  -1.5305206733697831e+00 1.7580620277924709e+01 0.0000000000000000e+00  -1.5316895295088169e+00 1.7821361194172358e+01 0.0000000000000000e+00  -1.5316895186459611e+00 1.8055822685348033e+01 0.0000000000000000e+00  -1.5267794456837476e+00 1.8310813562435051e+01 0.0000000000000000e+00  -1.5267794121728795e+00 1.8555007473104851e+01 0.0000000000000000e+00  -1.5267793936971552e+00 1.8793965604086001e+01 0.0000000000000000e+00  -1.5267793377087910e+00 1.9032923732355545e+01 0.0000000000000000e+00  -1.5267792732457868e+00 1.9280097326288093e+01 0.0000000000000000e+00  -1.5267792040384525e+00 1.9529452809183315e+01 0.0000000000000000e+00  -1.5267791346386070e+00 1.9780540761352132e+01 0.0000000000000000e+00  -1.5267790695855452e+00 2.0035608460104246e+01 0.0000000000000000e+00  -1.5267790147959048e+00 2.0296592141375235e+01 0.0000000000000000e+00  -1.5267789883711307e+00 2.0558314240308842e+01 0.0000000000000000e+00  -1.5267789472366944e+00 2.0830085782661268e+01 0.0000000000000000e+00  -1.5267788915405467e+00 2.1098681579414368e+01 0.0000000000000000e+00  -1.5172469769464505e+00 2.1366806266735324e+01 0.0000000000000000e+00  -1.4828783407813624e+00 2.1670588353546695e+01 0.0000000000000000e+00  -1.4828782585311451e+00 2.1931527839098884e+01 0.0000000000000000e+00  -1.4828782180921602e+00 2.2195367545023959e+01 0.0000000000000000e+00  -1.4687235730579766e+00 2.2490283093025141e+01 0.0000000000000000e+00  -1.4687235208224991e+00 2.2757763470446129e+01 0.0000000000000000e+00  -1.4687234857266374e+00 2.3027914929892734e+01 0.0000000000000000e+00  -1.4687234980283144e+00 2.3297171241072508e+01 0.0000000000000000e+00  -1.4795684378320983e+00 2.3582665269483623e+01 0.0000000000000000e+00  -1.4856450593115285e+00 2.3864732305286271e+01 0.0000000000000000e+00  -1.4891031600856148e+00 2.4147176550725789e+01 0.0000000000000000e+00  -1.4896622055683051e+00 2.4427147119147261e+01 0.0000000000000000e+00  -1.4894673473868310e+00 2.4710747127972443e+01 0.0000000000000000e+00  -1.4894441088153558e+00 2.4992012503766436e+01 0.0000000000000000e+00  -1.4894484911124635e+00 2.5270601189133636e+01 0.0000000000000000e+00  -1.4893354574649986e+00 2.5547831074344082e+01 0.0000000000000000e+00  -1.4896740945877380e+00 2.5821848574245550e+01 0.0000000000000000e+00  -1.4913456706086068e+00 2.6096983816518652e+01 0.0000000000000000e+