<?xml version="1.0"?>
<VTKFile type="UnstructuredGrid"  version="0.1"  >
<UnstructuredGrid>
<Piece  NumberOfPoints="617" NumberOfCells="1135">
<Points>
<DataArray  type="Float64"  NumberOfComponents="3"  format="ascii">0 0 0  0.01652173913043478 0 0  0.01652173913043478 0.01666666666666667 0  0 0.01666666666666667 0  0.03304347826086956 0 0  0.03304347826086956 0.01666666666666667 0  0.04956521739130434 0 0  0.04956521739130434 0.01666666666666667 0  0.06608695652173913 0 0  0.06608695652173913 0.01666666666666667 0  0.08260869565217391 0 0  0.08260869565217391 0.01666666666666667 0  0.09913043478260869 0.01666666666666667 0  0.01652173913043478 0.03333333333333333 0  0 0.03333333333333333 0  0.03304347826086956 0.03333333333333333 0  0.04956521739130434 0.03333333333333333 0  0.06608695652173913 0.03333333333333333 0  0.08260869565217391 0.03333333333333333 0  0.09913043478260869 0.03333333333333333 0  0.1156521739130435 0.03333333333333333 0  0.01652173913043478 0.05 0  0 0.05 0  0.03304347826086956 0.05 0  0.04956521739130434 0.05 0  0.06608695652173913 0.05 0  0.08260869565217391 0.05 0  0.09913043478260869 0.05 0  0.1156521739130435 0.05 0  0.1321739130434783 0.05 0  0.01652173913043478 0.06666666666666667 0  0 0.06666666666666667 0  0.03304347826086956 0.06666666666666667 0  0.04956521739130434 0.06666666666666667 0  0.06608695652173913 0.06666666666666667 0  0.08260869565217391 0.06666666666666667 0  0.09913043478260869 0.06666666666666667 0  0.1156521739130435 0.06666666666666667 0  0.1321739130434783 0.06666666666666667 0  0.148695652173913 0.06666666666666667 0  0.01652173913043478 0.08333333333333333 0  0 0.08333333333333333 0  0.03304347826086956 0.08333333333333333 0  0.04956521739130434 0.08333333333333333 0  0.06608695652173913 0.08333333333333333 0  0.08260869565217391 0.08333333333333333 0  0.09913043478260869 0.08333333333333333 0  0.1156521739130435 0.08333333333333333 0  0.1321739130434783 0.08333333333333333 0  0.148695652173913 0.08333333333333333 0  0.1652173913043478 0.08333333333333333 0  0.01652173913043478 0.1 0  0 0.1 0  0.03304347826086956 0.1 0  0.04956521739130434 0.1 0  0.06608695652173913 0.1 0  0.08260869565217391 0.1 0  0.09913043478260869 0.1 0  0.1156521739130435 0.1 0  0.1321739130434783 0.1 0  0.148695652173913 0.1 0  0.1652173913043478 0.1 0  0.1817391304347826 0.1 0  0.01652173913043478 0.1166666666666667 0  0 0.1166666666666667 0  0.03304347826086956 0.1166666666666667 0  0.04956521739130434 0.1166666666666667 0  0.06608695652173913 0.1166666666666667 0  0.08260869565217391 0.1166666666666667 0  0.09913043478260869 0.1166666666666667 0  0.1156521739130435 0.1166666666666667 0  0.1321739130434783 0.1166666666666667 0  0.148695652173913 0.1166666666666667 0  0.1652173913043478 0.1166666666666667 0  0.1817391304347826 0.1166666666666667 0  0.1982608695652174 0.1166666666666667 0  0.01652173913043478 0.1333333333333333 0  0 0.1333333333333333 0  0.03304347826086956 0.1333333333333333 0  0.04956521739130434 0.1333333333333333 0  0.06608695652173913 0.1333333333333333 0  0.08260869565217391 0.1333333333333333 0  0.09913043478260869 0.1333333333333333 0  0.1156521739130435 0.1333333333333333 0  0.1321739130434783 0.1333333333333333 0  0.148695652173913 0.1333333333333333 0  0.1652173913043478 0.1333333333333333 0  0.1817391304347826 0.1333333333333333 0  0.1982608695652174 0.1333333333333333 0  0.2147826086956522 0.1333333333333333 0  0.01652173913043478 0.15 0  0 0.15 0  0.03304347826086956 0.15 0  0.04956521739130434 0.15 0  0.06608695652173913 0.15 0  0.08260869565217391 0.15 0  0.09913043478260869 0.15 0  0.1156521739130435 0.15 0  0.1321739130434783 0.15 0  0.148695652173913 0.15 0  0.1652173913043478 0.15 0  0.1817391304347826 0.15 0  0.1982608695652174 0.15 0  0.2147826086956522 0.15 0  0.2313043478260869 0.15 0  0.01652173913043478 0.1666666666666667 0  0 0.1666666666666667 0  0.03304347826086956 0.1666666666666667 0  0.04956521739130434 0.1666666666666667 0  0.06608695652173913 0.1666666666666667 0  0.08260869565217391 0.1666666666666667 0  0.09913043478260869 0.1666666666666667 0  0.1156521739130435 0.1666666666666667 0  0.1321739130434783 0.1666666666666667 0  0.148695652173913 0.1666666666666667 0  0.1652173913043478 0.1666666666666667 0  0.1817391304347826 0.1666666666666667 0  0.1982608695652174 0.1666666666666667 0  0.2147826086956522 0.1666666666666667 0  0.2313043478260869 0.1666666666666667 0  0.2478260869565218 0.1666666666666667 0  0.01652173913043478 0.1833333333333333 0  0 0.1833333333333333 0  0.03304347826086956 0.1833333333333333 0  0.04956521739130434 0.1833333333333333 0  0.06608695652173913 0.1833333333333333 0  0.08260869565217391 0.1833333333333333 0  0.09913043478260869 0.1833333333333333 0  0.1156521739130435 0.1833333333333333 0  0.1321739130434783 0.1833333333333333 0  0.148695652173913 0.1833333333333333 0  0.1652173913043478 0.1833333333333333 0  0.1817391304347826 0.1833333333333333 0  0.1982608695652174 0.1833333333333333 0  0.2147826086956522 0.1833333333333333 0  0.2313043478260869 0.1833333333333333 0  0.2478260869565218 0.1833333333333333 0  0.2643478260869565 0.1833333333333333 0  0.01652173913043478 0.2 0  0 0.2 0  0.03304347826086956 0.2 0  0.04956521739130434 0.2 0  0.06608695652173913 0.2 0  0.08260869565217391 0.2 0  0.09913043478260869 0.2 0  0.1156521739130435 0.2 0  0.1321739130434783 0.2 0  0.148695652173913 0.2 0  0.1652173913043478 0.2 0  0.1817391304347826 0.2 0  0.1982608695652174 0.2 0  0.2147826086956522 0.2 0  0.2313043478260869 0.2 0  0.2478260869565218 0.2 0  0.2643478260869565 0.2 0  0.2808695652173913 0.2 0  0.01652173913043478 0.2166666666666667 0  0 0.2166666666666667 0  0.03304347826086956 0.2166666666666667 0  0.04956521739130434 0.2166666666666667 0  0.06608695652173913 0.2166666666666667 0  0.08260869565217391 0.2166666666666667 0  0.09913043478260869 0.2166666666666667 0  0.1156521739130435 0.2166666666666667 0  0.1321739130434783 0.2166666666666667 0  0.148695652173913 0.2166666666666667 0  0.1652173913043478 0.2166666666666667 0  0.1817391304347826 0.2166666666666667 0  0.1982608695652174 0.2166666666666667 0  0.2147826086956522 0.2166666666666667 0  0.2313043478260869 0.2166666666666667 0  0.2478260869565218 0.2166666666666667 0  0.2643478260869565 0.2166666666666667 0  0.2808695652173913 0.2166666666666667 0  0.2973913043478261 0.2166666666666667 0  0.01652173913043478 0.2333333333333333 0  0 0.2333333333333333 0  0.03304347826086956 0.2333333333333333 0  0.04956521739130434 0.2333333333333333 0  0.06608695652173913 0.2333333333333333 0  0.08260869565217391 0.2333333333333333 0  0.09913043478260869 0.2333333333333333 0  0.1156521739130435 0.2333333333333333 0  0.1321739130434783 0.2333333333333333 0  0.148695652173913 0.2333333333333333 0  0.1652173913043478 0.2333333333333333 0  0.1817391304347826 0.2333333333333333 0  0.1982608695652174 0.2333333333333333 0  0.2147826086956522 0.2333333333333333 0  0.2313043478260869 0.2333333333333333 0  0.2478260869565218 0.2333333333333333 0  0.2643478260869565 0.2333333333333333 0  0.2808695652173913 0.2333333333333333 0  0.2973913043478261 0.2333333333333333 0  0.01652173913043478 0.25 0  0 0.25 0  0.03304347826086956 0.25 0  0.04956521739130434 0.25 0  0.06608695652173913 0.25 0  0.08260869565217391 0.25 0  0.09913043478260869 0.25 0  0.1156521739130435 0.25 0  0.1321739130434783 0.25 0  0.148695652173913 0.25 0  0.1652173913043478 0.25 0  0.1817391304347826 0.25 0  0.1982608695652174 0.25 0  0.2147826086956522 0.25 0  0.2313043478260869 0.25 0  0.2478260869565218 0.25 0  0.2643478260869565 0.25 0  0.2808695652173913 0.25 0  0.2973913043478261 0.25 0  0.01652173913043478 0.2666666666666667 0  0 0.2666666666666667 0  0.03304347826086956 0.2666666666666667 0  0.04956521739130434 0.2666666666666667 0  0.06608695652173913 0.2666666666666667 0  0.08260869565217391 0.2666666666666667 0  0.09913043478260869 0.2666666666666667 0  0.1156521739130435 0.2666666666666667 0  0.1321739130434783 0.2666666666666667 0  0.148695652173913 0.2666666666666667 0  0.1652173913043478 0.2666666666666667 0  0.1817391304347826 0.2666666666666667 0  0.1982608695652174 0.2666666666666667 0  0.2147826086956522 0.2666666666666667 0  0.2313043478260869 0.2666666666666667 0  0.2478260869565218 0.2666666666666667 0  0.2643478260869565 0.2666666666666667 0  0.2808695652173913 0.2666666666666667 0  0.2973913043478261 0.2666666666666667 0  0.3139130434782609 0.2666666666666667 0  0.01652173913043478 0.2833333333333333 0  0 0.2833333333333333 0  0.03304347826086956 0.2833333333333333 0  0.04956521739130434 0.2833333333333333 0  0.06608695652173913 0.2833333333333333 0  0.08260869565217391 0.2833333333333333 0  0.09913043478260869 0.2833333333333333 0  0.1156521739130435 0.2833333333333333 0  0.1321739130434783 0.2833333333333333 0  0.148695652173913 0.2833333333333333 0  0.1652173913043478 0.2833333333333333 0  0.1817391304347826 0.2833333333333333 0  0.1982608695652174 0.2833333333333333 0  0.2147826086956522 0.2833333333333333 0  0.2313043478260869 0.2833333333333333 0  0.2478260869565218 0.2833333333333333 0  0.2643478260869565 0.2833333333333333 0  0.2808695652173913 0.2833333333333333 0  0.2973913043478261 0.2833333333333333 0  0.3139130434782609 0.2833333333333333 0  0.3304347826086956 0.2833333333333333 0  0.01652173913043478 0.3 0  0 0.3 0  0.03304347826086956 0.3 0  0.04956521739130434 0.3 0  0.06608695652173913 0.3 0  0.08260869565217391 0.3 0  0.09913043478260869 0.3 0  0.1156521739130435 0.3 0  0.1321739130434783 0.3 0  0.148695652173913 0.3 0  0.1652173913043478 0.3 0  0.1817391304347826 0.3 0  0.1982608695652174 0.3 0  0.2147826086956522 0.3 0  0.2313043478260869 0.3 0  0.2478260869565218 0.3 0  0.2643478260869565 0.3 0  0.2808695652173913 0.3 0  0.2973913043478261 0.3 0  0.3139130434782609 0.3 0  0.3304347826086956 0.3 0  0.3469565217391304 0.3 0  0.01652173913043478 0.3166666666666667 0  0 0.3166666666666667 0  0.03304347826086956 0.3166666666666667 0  0.04956521739130434 0.31666666
[...]
<PointData  Vectors="Displacement"> 
<DataArray  type="Float64"  Name="Displacement"  NumberOfComponents="3" format="ascii">0.0000000000000000e+00 0.0000000000000000e+00 0.0000000000000000e+00  6.9298143537127181e-06 3.6058223199686851e-06 0.0000000000000000e+00  3.6996008437818503e-06 1.9765912383591933e-06 0.0000000000000000e+00  0.0000000000000000e+00 0.0000000000000000e+00 0.0000000000000000e+00  1.3269256392487053e-05 8.2984936894243098e-06 0.0000000000000000e+00  7.7593208640954435e-06 6.6105846835365211e-06 0.0000000000000000e+00  1.9395158961302014e-05 1.5088605940796313e-05 0.0000000000000000e+00  1.1665814597091056e-05 1.3443156409700270e-05 0.0000000000000000e+00  2.5340886994829695e-05 2.4058586740633194e-05 0.0000000000000000e+00  1.5419035460740768e-05 2.2466900718034244e-05 0.0000000000000000e+00  3.1111795246691714e-05 3.5174125789157518e-05 0.0000000000000000e+00  1.9030746166320811e-05 3.3638889537015166e-05 0.0000000000000000e+00  2.2507419888803458e-05 4.6899345257627114e-05 0.0000000000000000e+00  1.2958100180673574e-06 1.3868078894592286e-06 0.0000000000000000e+00  0.0000000000000000e+00 0.0000000000000000e+00 0.0000000000000000e+00  2.7859004540028389e-06 5.7320705796183779e-06 0.0000000000000000e+00  4.3244736671631760e-06 1.2552344906131975e-05 0.0000000000000000e+00  5.8202379687019179e-06 2.1611122938437415e-05 0.0000000000000000e+00  7.2470610299131282e-06 3.2836023261340034e-05 0.0000000000000000e+00  8.5768417259113281e-06 4.6152723439786498e-05 0.0000000000000000e+00  9.8087032685826496e-06 6.1446268694589508e-05 0.0000000000000000e+00  -1.0170638731080032e-06 1.4236039746033583e-06 0.0000000000000000e+00  0.0000000000000000e+00 0.0000000000000000e+00 0.0000000000000000e+00  -1.9980908230597915e-06 5.6784185545727390e-06 0.0000000000000000e+00  -2.8645987738890451e-06 1.2451137894724527e-05 0.0000000000000000e+00  -3.6301324990346068e-06 2.1500011971327722e-05 0.0000000000000000e+00  -4.3675303963532490e-06 3.2750796793668097e-05 0.0000000000000000e+00  -5.1184240685265297e-06 4.6140118696652634e-05 0.0000000000000000e+00  -5.9372230877014323e-06 6.1439476410903707e-05 0.0000000000000000e+00  -6.8861315782796208e-06 7.8580852777097090e-05 0.0000000000000000e+00  -3.4943871006180818e-06 2.1141756544800542e-06 0.0000000000000000e+00  0.0000000000000000e+00 0.0000000000000000e+00 0.0000000000000000e+00  -6.9892046042349764e-06 6.3871067600968499e-06 0.0000000000000000e+00  -1.0216500089000128e-05 1.3109700166142363e-05 0.0000000000000000e+00  -1.3155488380822632e-05 2.2062410073382765e-05 0.0000000000000000e+00  -1.5877492301477891e-05 3.3312629818272814e-05 0.0000000000000000e+00  -1.8566804186027738e-05 4.6612514914560792e-05 0.0000000000000000e+00  -2.0692723022412636e-05 6.1800158603032154e-05 0.0000000000000000e+00  -2.2722883261078881e-05 7.8750316911159766e-05 0.0000000000000000e+00  -2.6641845358806890e-05 9.8471597586802809e-05 0.0000000000000000e+00  -5.7328376022389558e-06 3.3126007589592909e-06 0.0000000000000000e+00  0.0000000000000000e+00 0.0000000000000000e+00 0.0000000000000000e+00  -1.1448584784637069e-05 7.6238354387954772e-06 0.0000000000000000e+00  -1.6850819212570558e-05 1.4223096549899485e-05 0.0000000000000000e+00  -2.1159872499023878e-05 2.2996016889913962e-05 0.0000000000000000e+00  -2.6778096564904612e-05 3.4187969924735881e-05 0.0000000000000000e+00  -3.1981799158375988e-05 4.7507920572130790e-05 0.0000000000000000e+00  -3.2829303498982606e-05 6.2932859069335674e-05 0.0000000000000000e+00  -3.0518756890467472e-05 8.2418044643551167e-05 0.0000000000000000e+00  -3.1457777173321053e-05 1.0246285526632354e-04 0.0000000000000000e+00  -3.3574830605991011e-05 1.2413773644314420e-04 0.0000000000000000e+00  -3.7800134546710247e-06 5.6413541856547870e-06 0.0000000000000000e+00  0.0000000000000000e+00 0.0000000000000000e+00 0.0000000000000000e+00  -8.3525001392581052e-06 1.1425687777119448e-05 0.0000000000000000e+00  -1.3160673220460701e-05 1.8703420802415296e-05 0.0000000000000000e+00  -1.7831113143135932e-05 2.7787761173390523e-05 0.0000000000000000e+00  -2.2312125020374576e-05 3.9180381313724730e-05 0.0000000000000000e+00  -2.6264253400175176e-05 5.2227473451693012e-05 0.0000000000000000e+00  -2.9167783917949170e-05 6.6872683556592967e-05 0.0000000000000000e+00  -3.1104234851231973e-05 8.4674088679141432e-05 0.0000000000000000e+00  -3.2743993755812904e-05 1.0484129660593314e-04 0.0000000000000000e+00  -3.4689325560403701e-05 1.2624135275335940e-04 0.0000000000000000e+00  -3.6661420285335004e-05 1.4874142498608531e-04 0.0000000000000000e+00  -3.1068450920423260e-06 6.9915390297192113e-06 0.0000000000000000e+00  0.0000000000000000e+00 0.0000000000000000e+00 0.0000000000000000e+00  -6.8600024478615490e-06 1.4129470305744412e-05 0.0000000000000000e+00  -1.1055514018148936e-05 2.2250748426068087e-05 0.0000000000000000e+00  -1.5374567877361440e-05 3.1821766040814555e-05 0.0000000000000000e+00  -1.9581129803834413e-05 4.3199390895039818e-05 0.0000000000000000e+00  -2.3449936539752920e-05 5.6174057076477721e-05 0.0000000000000000e+00  -2.6924794533680370e-05 7.0810406472346363e-05 0.0000000000000000e+00  -3.0006773628285393e-05 8.7874284760242207e-05 0.0000000000000000e+00  -3.2618897718781241e-05 1.0714429045633410e-04 0.0000000000000000e+00  -3.4891567813773792e-05 1.2793946765019741e-04 0.0000000000000000e+00  -3.6944444551305799e-05 1.4988444148293916e-04 0.0000000000000000e+00  -3.8746360387145417e-05 1.7295740040137916e-04 0.0000000000000000e+00  -2.8345607145467055e-06 7.9252320730471464e-06 0.0000000000000000e+00  0.0000000000000000e+00 0.0000000000000000e+00 0.0000000000000000e+00  -6.1679584851746067e-06 1.6074211624227926e-05 0.0000000000000000e+00  -9.9192505139558805e-06 2.4983410126754136e-05 0.0000000000000000e+00  -1.3895600646671471e-05 3.5053389764635746e-05 0.0000000000000000e+00  -1.7897513745338688e-05 4.6579411691945016e-05 0.0000000000000000e+00  -2.1758874325133110e-05 5.9590435570124684e-05 0.0000000000000000e+00  -2.5425181005231953e-05 7.4225868919555640e-05 0.0000000000000000e+00  -2.8846017987738057e-05 9.0849104818902090e-05 0.0000000000000000e+00  -3.1882897733648891e-05 1.0936792820757475e-04 0.0000000000000000e+00  -3.4496731272023441e-05 1.2942029291038639e-04 0.0000000000000000e+00  -3.6743053180342051e-05 1.5070697742829023e-04 0.0000000000000000e+00  -3.8655152214484854e-05 1.7308983045296442e-04 0.0000000000000000e+00  -4.0203728887722756e-05 1.9646162481765260e-04 0.0000000000000000e+00  -2.7389182806199620e-06 8.6223824407182150e-06 0.0000000000000000e+00  0.0000000000000000e+00 0.0000000000000000e+00 0.0000000000000000e+00  -5.8667872735671320e-06 1.7527513475382795e-05 0.0000000000000000e+00  -9.3453313530659939e-06 2.7083900513439863e-05 0.0000000000000000e+00  -1.3060934337290851e-05 3.7610409451264026e-05 0.0000000000000000e+00  -1.6874167621374356e-05 4.9358525399157968e-05 0.0000000000000000e+00  -2.0657944440741249e-05 6.2454179564663630e-05 0.0000000000000000e+00  -2.4335070735963490e-05 7.7050880332164089e-05 0.0000000000000000e+00  -2.7824424524153322e-05 9.3339296189144278e-05 0.0000000000000000e+00  -3.1004183674673286e-05 1.1127286320329911e-04 0.0000000000000000e+00  -3.3801716812231029e-05 1.3065039330641178e-04 0.0000000000000000e+00  -3.6213881767333270e-05 1.5126509155596245e-04 0.0000000000000000e+00  -3.8258295477819423e-05 1.7296486207488747e-04 0.0000000000000000e+00  -3.9934407046014022e-05 1.9561860276964211e-04 0.0000000000000000e+00  -4.1230671618185393e-05 2.1909032852557330e-04 0.0000000000000000e+00  -2.7307573433975038e-06 9.1596907701362020e-06 0.0000000000000000e+00  0.0000000000000000e+00 0.0000000000000000e+00 0.0000000000000000e+00  -5.7650945011359127e-06 1.8635082037651358e-05 0.0000000000000000e+00  -9.0803181170575725e-06 2.8698461566840821e-05 0.0000000000000000e+00  -1.2605925508944609e-05 3.9605517299203179e-05 0.0000000000000000e+00  -1.6246229278840244e-05 5.1572490423531084e-05 0.0000000000000000e+00  -1.9903350055680012e-05 6.4751599175857154e-05 0.0000000000000000e+00  -2.3495238332249350e-05 7.9286007842046388e-05 0.0000000000000000e+00  -2.6934498356493937e-05 9.5293440131692740e-05 0.0000000000000000e+00  -3.0119647249774252e-05 1.1275405158361762e-04 0.0000000000000000e+00  -3.2978538569006058e-05 1.3155138722063372e-04 0.0000000000000000e+00  -3.5483221009801205e-05 1.5154374675895079e-04 0.0000000000000000e+00  -3.7631442659146350e-05 1.7259854379909784e-04 0.0000000000000000e+00  -3.9425261022769842e-05 1.9458826455832678e-04 0.0000000000000000e+00  -4.0866897155390402e-05 2.1738609971422800e-04 0.0000000000000000e+00  -4.1963382191553671e-05 2.4086924725006808e-04 0.0000000000000000e+00  -2.7657657809363460e-06 9.5744949031753394e-06 0.0000000000000000e+00  0.0000000000000000e+00 0.0000000000000000e+00 0.0000000000000000e+00  -5.7638982834115909e-06 1.9476724552393955e-05 0.0000000000000000e+00  -8.9774365339129288e-06 2.9922397140391888e-05 0.0000000000000000e+00  -1.2359242631321327e-05 4.1122674080387981e-05 0.0000000000000000e+00  -1.5841848836609515e-05 5.3265144974170769e-05 0.0000000000000000e+00  -1.9349643710204085e-05 6.6499697865151736e-05 0.0000000000000000e+00  -2.2807929179632427e-05 8.0953381515896263e-05 0.0000000000000000e+00  -2.6136862379689705e-05 9.6712380750800631e-05 0.0000000000000000e+00  -2.9253416149857171e-05 1.1377520341705241e-04 0.0000000000000000e+00  -3.2093968751654666e-05 1.3207394417139197e-04 0.0000000000000000e+00  -3.4623604267075027e-05 1.5151054835664998e-04 0.0000000000000000e+00  -3.6829374004921945e-05 1.7197742172864362e-04 0.0000000000000000e+00  -3.8709936910767059e-05 1.9336189347030080e-04 0.0000000000000000e+00  -4.0270752870562041e-05 2.1554934073370941e-04 0.0000000000000000e+00  -4.1523267161057913e-05 2.3842714360750183e-04 0.0000000000000000e+00  -4.2484517996677793e-05 2.6188591697942762e-04 0.0000000000000000e+00  -2.8196135795373102e-06 9.8862092613101283e-06 0.0000000000000000e+00  0.0000000000000000e+00 0.0000000000000000e+00 0.0000000000000000e+00  -5.8084846460381689e-06 2.0097428257765497e-05 0.0000000000000000e+00  -8.9518598575804685e-06 3.0815507787073602e-05 0.0000000000000000e+00  -1.2215988154230620e-05 4.2221208455868182e-05 0.0000000000000000e+00  -1.5551933974276777e-05 5.4479575561876504e-05 0.0000000000000000e+00  -1.8901610363442596e-05 6.7729373984431058e-05 0.0000000000000000e+00  -2.2202685766872669e-05 8.2082948616353429e-05 0.0000000000000000e+00  -2.5388489509395575e-05 9.7612194741539301e-05 0.0000000000000000e+00  -2.8392813041155545e-05 1.1432831430543459e-04 0.0000000000000000e+00  -3.1162692796968872e-05 1.3219310475138301e-04 0.0000000000000000e+00  -3.3664469720363335e-05 1.5113836418551810e-04 0.0000000000000000e+00  -3.5881766553450379e-05 1.7107902217345167e-04 0.0000000000000000e+00  -3.7810722811431299e-05 1.9191941439606160e-04 0.0000000000000000e+00  -3.9456606663604988e-05 2.1355836869192701e-04 0.0000000000000000e+00  -4.0831823015439575e-05 2.3589347174470036e-04 0.0000000000000000e+00  -4.1954519423494266e-05 2.5882290852036102e-04 0.0000000000000000e+00  -4.2847727652213886e-05 2.8224527784518678e-04 0.0000000000000000e+00  -2.8782958404765041e-06 1.0105256286994709e-05 0.0000000000000000e+00  0.0000000000000000e+00 0.0000000000000000e+00 0.0000000000000000e+00  -5.8673696472685040e-06 2.0523099763347770e-05 0.0000000000000000e+00  -8.9536949247758120e-06 3.1415221030939906e-05 0.0000000000000000e+00  -1.2112129423524629e-05 4.2942245300311879e-05 0.0000000000000000e+00  -1.5306907796981882e-05 5.5252422708162919e-05 0.0000000000000000e+00  -1.8494370352514752e-05 6.8472815022266071e-05 0.0000000000000000e+00  -2.1625749601976252e-05 8.2704436226588773e-05 0.0000000000000000e+00  -2.4648893836572939e-05 9.8012340699808924e-05 0.0000000000000000e+00  -2.7512940062059446e-05 1.1441638675796044e-04 0.0000000000000000e+00  -3.0176059386628357e-05 1.3189735527496024e-04 0.0000000000000000e+00  -3.2609652105000328e-05 1.5040787900058494e-04 0.0000000000000000e+00  -3.4798260875702396e-05 1.6988123323210711e-04 0.0000000000000000e+00  -3.6737551464896254e-05 1.9023731480341657e-04 0.0000000000000000e+00  -3.8432269286807812e-05 2.1138779394201782e-04 0.0000000000000000e+00  -3.9894491696372313e-05 2.3324028162387476e-04 0.0000000000000000e+00  -4.1142213367406134e-05 2.5570071610300728e-04 0.0000000000000000e+00  -4.2198522245218809e-05 2.7867422092232104e-04 0.0000000000000000e+00  -4.3091644556879730e-05 3.0206497317041280e-04 0.0000000000000000e+00  -2.9334825314275625e-06 1.0237158002703381e-05 0.0000000000000000e+00  0.0000000000000000e+00 0.0000000000000000e+00 0.0000000000000000e+00  -5.9217620513589686e-06 2.0768552557622845e-05 0.0000000000000000e+00  -8.9526219691461522e-06 3.1744613618642693e-05 0.0000000000000000e+00  -1.2007469372057618e-05 4.3313463944679451e-05 0.0000000000000000e+00  -1.5060968219419670e-05 5.5611781127755218e-05 0.0000000000000000e+00  -1.8081939801617528e-05 6.8757255410449686e-05 0.0000000000000000e+00  -2.1034852981667482e-05 8.2842947458508937e-05 0.0000000000000000e+00  -2.3881651486313922e-05 9.7930487975962365e-05 0.0000000000000000e+00  -2.6585413338641340e-05 1.1404557581645822e-04 0.0000000000000000e+00  -2.9115247745808309e-05 1.3118143105871727e-04 0.0000000000000000e+00  -3.1449301333867841e-05 1.4930532973500625e-04 0.0000000000000000e+00  -3.3575414156233156e-05 1.6836476068502788e-04 0.0000000000000000e+00  -3.5490446023891155e-05 1.8829257149977381e-04 0.0000000000000000e+00  -3.7199183638816712e-05 2.0901163381147400e-04 0.0000000000000000e+00  -3.8713137793409380e-05 2.3043873973676451e-04 0.0000000000000000e+00  -4.0049453215696460e-05 2.5248729622992679e-04 0.0000000000000000e+00  -4.1230216821986116e-05 2.7506897026345379e-04 0.0000000000000000e+00  -4.2282366638853059e-05 2.9809479158705263e-04 0.0000000000000000e+00  -2.9799884581207328e-06 1.0284420823061836e-05 0.0000000000000000e+00  0.0000000000000000e+00 0.0000000000000000e+00 0.0000000000000000e+00  -5.9597910090152313e-06 2.0841492294630255e-05 0.0000000000000000e+00  -8.9290603452480420e-06 3.1816843849995341e-05 0.0000000000000000e+00  -1.1875163214008287e-05 4.3352069294661427e-05 0.0000000000000000e+00  -1.4782005551148842e-05 5.5576857274068951e-05 0.0000000000000000e+00  -1.7629770492467141e-05 6.8602525225929743e-05 0.0000000000000000e+00  -2.0395442837927919e-05 8.2516963488977275e-05 0.0000000000000000e+00  -2.3054112383114957e-05 9.7380038533413581e-05 0.0000000000000000e+00  -2.5581516012161614e-05 1.1322130950270627e-04 0.0000000000000000e+00  -2.7957181923433691e-05 1.3004216865993693e-04 0.0000000000000000e+00  -3.0166598715867423e-05 1.4782006770908647e-04 0.0000000000000000e+00  -3.2202078158057142e-05 1.6651305224994832e-04 0.0000000000000000e+00  -3.4062728618815910e-05 1.8606408538804676e-04 0.0000000000000000e+00  -3.5753977409515487e-05 2.0640515460999440e-04 0.0000000000000000e+00  -3.7286871075230442e-05 2.2746086663905552e-04 0.0000000000000000e+00  -3.8677362232102362e-05 2.4915125806707663e-04 0.0000000000000000e+00  -3.9945799604684133e-05 2.7139389751083072e-04 0.0000000000000000e+00  -4.1116741510300486e-05 2.9410562906631826e-04 0.0000000000000000e+00  -3.0142783369098776e-06 1.0247302860263995e-05 0.0000000000000000e+00  0.0000000000000000e+00 0.0000000000000000e+00 0.0000000000000000e+00  -5.9731152326087319e-06 2.0744346614750509e-05 0.0000000000000000e+00  -8.8688963384692359e-06 3.1637390482855762e-05 0.0000000000000000e+00  -1.1695260317808161e-05 4.3066483760900483e-05 0.0000000000000000e+00  -1.4445156851065395e-05 5.5158246461796700e-05 0.0000000000000000e+00  -1.7109646584103901e-05 6.8020394550491280e-05 0.0000000000000000e+00  -1.9677595725797510e-05 8.1737708189840965e-05 0.0000000000000000e+00  -2.2136291497154278e-05 9.6369061634505562e-05 0.0000000000000000e+00  -2.4473018937260754e-05 1.1194638071136627e-04 0.0000000000000000e+00  -2.6677064076132413e-05 1.2847622978493477e-04 0.0000000000000000e+00  -2.8741264317445675e-05 1.4594284122005272e-04 0.0000000000000000e+00  -3.0662844104916883e-05 1.6431166216899343e-04 0.0000000000000000e+00  -3.2443682239867228e-05 1.8353303600451233e-04 0.0000000000000000e+00  -3.4090218899175032e-05 2.0354584378656893e-04 0.0000000000000000e+00  -3.5613149663177690e-05 2.2428083441852688e-04 0.0000000000000000e+00  -3.7027051528183531e-05 2.4566343739744489e-04 0.0000000000000000e+00  -3.8350074851759506e-05 2.6761606875840748e-04 0.0000000000000000e+00  -3.9603754601601738e-05 2.9006012253552640e-04 0.0000000000000000e+00  -4.0812850983009450e-05 3.1291797323026337e-04 0.0000000000000000e+00  -3.0334936003150737e-06 1.0123939851170430e-05 0.0000000000000000e+00  0.0000000000000000e+00 0.0000000000000000e+00 0.0000000000000000e+00  -5.9547383552957909e-06 2.0474841860826840e-05 0.0000000000000000e+00  -8.7600969152080916e-06 3.1204946730464350e-05 0.0000000000000000e+00  -1.1450509474954087e-05 4.2457168038256619e-05 0.0000000000000000e+00  -1.4028495065854781e-05 5.4358300889552915e-05 0.0000000000000000e+00  -1.6496018275477153e-05 6.7014644580947461e-05 0.0000000000000000e+00  -1.8853431491274396e-05 8.0509195285441394e-05 0.0000000000000000e+00  -2.1099439373326773e-05 9.4900024443018738e-05 0.0000000000000000e+00  -2.3231933484928196e-05 1.1022014196053217e-04 0.0000000000000000e+00  -2.5249244662783528e-05 1.2647897434968553e-04 0.0000000000000000e+00  -2.7151237635130315e-05 1.4366480227229024e-04 0.0000000000000000e+00  -2.8940031819862359e-05 1.6174772686601286e-04 0.0000000000000000e+00  -3.0620387266815318e-05 1.8068291793333174e-04 0.0000000000000000e+00  -3.2199854747539350e-05 2.0041393282924059e-04 0.0000000000000000e+00  -3.3688772111353850e-05 2.2087585276486988e-04 0.0000000000000000e+00  -3.5100185318676020e-05 2.4199804953957467e-04 0.0000000000000000e+00  -3.6449757229325267e-05 2.6370654093526999e-04 0.0000000000000000e+00  -3.7755668291922073e-05 2.8592600679605253e-04 0.0000000000000000e+00  -3.9038415568197233e-05 3.0858159063511964e-04 0.0000000000000000e+00  -4.0320313888655390e-05 3.3160052423645143e-04 0.0000000000000000e+00  -3.0346998883207506e-06 9.9099956250155775e-06 0.0000000000000000e+00  0.0000000000000000e+00 0.0000000000000000e+00 0.0000000000000000e+00  -5.8973480836290222e-06 2.0025722207197073e-05 0.0000000000000000e+00  -8.5902063068894483e-06 3.0511416701262461e-05 0.0000000000000000e+00  -1.1123304074102616e-05 4.1516826980065543e-05 0.0000000000000000e+00  -1.3509858834641868e-05 5.3171387430056098e-05 0.0000000000000000e+00  -1.5763163489642429e-05 6.5581381323077451e-05 0.0000000000000000e+00  -1.7894886747967869e-05 7.8828595285272083e-05 0.0000000000000000e+00  -1.9914531845744219e-05 9.2969981098931341e-05 0.0000000000000000e+00  -2.1829773998965520e-05 1.0803836192997085e-04 0.0000000000000000e+00  -2.3647252144482352e-05 1.2404406837182238e-04 0.0000000000000000e+00  -2.5373340532902789e-05 1.4097709227193597e-04 0.0000000000000000e+00  -2.7014732646275729e-05 1.5880972947469817e-04 0.0000000000000000e+00  -2.8578864256572656e-05 1.7749958920001613e-04 0.0000000000000000e+00  -3.0074232198441400e-05 1.9699274586235885e-04 0.0000000000000000e+00  -3.1510641168806960e-05 2.1722677248446658e-04 0.0000000000000000e+00  -3.2899397094516087e-05 2.3813346188408178e-04 0.0000000000000000e+00  -3.4253454522633986e-05 2.5964115740171115e-04 0.0000000000000000e+00  -3.5587486322068326e-05 2.8167668315631902e-04 0.0000000000000000e+00  -3.6917776736882670e-05 3.0416688026205999e-04 0.0000000000000000e+00  -3.8261793311019251e-05 3.2703973172140292e-04 0.0000000000000000e+00  -3.9637331396779559e-05 3.5022495144429184e-04 0.0000000000000000e+00  -3.0141143376180222e-06 9.5977831365487211e-06 0.0000000000000000e+00  0.0000000000000000e+00 0.0000000000000000e+00 0.0000000000000000e+00  -5.7916785764581832e-06 1.9383701452303205e-05 0.0000000000000000e+00  -8.3440438451212695e-06 2.9541226224522300e-05 0.0000000000000000e+00  -1.0693032380121375e-05 4.02301724