<?xml version="1.0"?>
<VTKFile type="UnstructuredGrid"  version="0.1"  >
<UnstructuredGrid>
<Piece  NumberOfPoints="640" NumberOfCells="1181">
<Points>
<DataArray  type="Float64"  NumberOfComponents="3"  format="ascii">2.973913043478261 0 0  2.990434782608696 0 0  2.990434782608696 0.01666666666666667 0  2.973913043478261 0.01666666666666667 0  3.006956521739131 0 0  3.006956521739131 0.01666666666666667 0  3.023478260869565 0 0  3.023478260869565 0.01666666666666667 0  3.04 0 0  3.04 0.01666666666666667 0  3.056521739130435 0 0  3.056521739130435 0.01666666666666667 0  3.073043478260869 0 0  3.073043478260869 0.01666666666666667 0  3.089565217391304 0 0  3.089565217391304 0.01666666666666667 0  3.106086956521739 0 0  3.106086956521739 0.01666666666666667 0  3.122608695652174 0 0  3.122608695652174 0.01666666666666667 0  3.139130434782609 0 0  3.139130434782609 0.01666666666666667 0  3.155652173913043 0 0  3.155652173913043 0.01666666666666667 0  3.172173913043478 0 0  3.172173913043478 0.01666666666666667 0  3.188695652173913 0 0  3.188695652173913 0.01666666666666667 0  3.205217391304347 0 0  3.205217391304347 0.01666666666666667 0  3.221739130434782 0 0  3.221739130434782 0.01666666666666667 0  3.238260869565217 0 0  3.238260869565217 0.01666666666666667 0  2.990434782608696 0.03333333333333333 0  2.973913043478261 0.03333333333333333 0  3.006956521739131 0.03333333333333333 0  3.023478260869565 0.03333333333333333 0  3.04 0.03333333333333333 0  3.056521739130435 0.03333333333333333 0  3.073043478260869 0.03333333333333333 0  3.089565217391304 0.03333333333333333 0  3.106086956521739 0.03333333333333333 0  3.122608695652174 0.03333333333333333 0  3.139130434782609 0.03333333333333333 0  3.155652173913043 0.03333333333333333 0  3.172173913043478 0.03333333333333333 0  3.188695652173913 0.03333333333333333 0  3.205217391304347 0.03333333333333333 0  3.221739130434782 0.03333333333333333 0  3.238260869565217 0.03333333333333333 0  3.254782608695652 0.03333333333333333 0  2.990434782608696 0.05 0  3.006956521739131 0.05 0  3.023478260869565 0.05 0  3.04 0.05 0  3.056521739130435 0.05 0  3.073043478260869 0.05 0  3.089565217391304 0.05 0  3.106086956521739 0.05 0  3.122608695652174 0.05 0  3.139130434782609 0.05 0  3.155652173913043 0.05 0  3.172173913043478 0.05 0  3.188695652173913 0.05 0  3.205217391304347 0.05 0  3.221739130434782 0.05 0  3.238260869565217 0.05 0  3.254782608695652 0.05 0  3.271304347826087 0.05 0  3.006956521739131 0.06666666666666667 0  2.990434782608696 0.06666666666666667 0  3.023478260869565 0.06666666666666667 0  3.04 0.06666666666666667 0  3.056521739130435 0.06666666666666667 0  3.073043478260869 0.06666666666666667 0  3.089565217391304 0.06666666666666667 0  3.106086956521739 0.06666666666666667 0  3.122608695652174 0.06666666666666667 0  3.139130434782609 0.06666666666666667 0  3.155652173913043 0.06666666666666667 0  3.172173913043478 0.06666666666666667 0  3.188695652173913 0.06666666666666667 0  3.205217391304347 0.06666666666666667 0  3.221739130434782 0.06666666666666667 0  3.238260869565217 0.06666666666666667 0  3.254782608695652 0.06666666666666667 0  3.271304347826087 0.06666666666666667 0  3.287826086956521 0.06666666666666667 0  3.006956521739131 0.08333333333333333 0  3.023478260869565 0.08333333333333333 0  3.04 0.08333333333333333 0  3.056521739130435 0.08333333333333333 0  3.073043478260869 0.08333333333333333 0  3.089565217391304 0.08333333333333333 0  3.106086956521739 0.08333333333333333 0  3.122608695652174 0.08333333333333333 0  3.139130434782609 0.08333333333333333 0  3.155652173913043 0.08333333333333333 0  3.172173913043478 0.08333333333333333 0  3.188695652173913 0.08333333333333333 0  3.205217391304347 0.08333333333333333 0  3.221739130434782 0.08333333333333333 0  3.238260869565217 0.08333333333333333 0  3.254782608695652 0.08333333333333333 0  3.271304347826087 0.08333333333333333 0  3.287826086956521 0.08333333333333333 0  3.304347826086957 0.08333333333333333 0  3.023478260869565 0.1 0  3.006956521739131 0.1 0  3.04 0.1 0  3.056521739130435 0.1 0  3.073043478260869 0.1 0  3.089565217391304 0.1 0  3.106086956521739 0.1 0  3.122608695652174 0.1 0  3.139130434782609 0.1 0  3.155652173913043 0.1 0  3.172173913043478 0.1 0  3.188695652173913 0.1 0  3.205217391304347 0.1 0  3.221739130434782 0.1 0  3.238260869565217 0.1 0  3.254782608695652 0.1 0  3.271304347826087 0.1 0  3.287826086956521 0.1 0  3.304347826086957 0.1 0  3.320869565217391 0.1 0  3.023478260869565 0.1166666666666667 0  3.04 0.1166666666666667 0  3.056521739130435 0.1166666666666667 0  3.073043478260869 0.1166666666666667 0  3.089565217391304 0.1166666666666667 0  3.106086956521739 0.1166666666666667 0  3.122608695652174 0.1166666666666667 0  3.139130434782609 0.1166666666666667 0  3.155652173913043 0.1166666666666667 0  3.172173913043478 0.1166666666666667 0  3.188695652173913 0.1166666666666667 0  3.205217391304347 0.1166666666666667 0  3.221739130434782 0.1166666666666667 0  3.238260869565217 0.1166666666666667 0  3.254782608695652 0.1166666666666667 0  3.271304347826087 0.1166666666666667 0  3.287826086956521 0.1166666666666667 0  3.304347826086957 0.1166666666666667 0  3.320869565217391 0.1166666666666667 0  3.337391304347826 0.1166666666666667 0  3.04 0.1333333333333333 0  3.023478260869565 0.1333333333333333 0  3.056521739130435 0.1333333333333333 0  3.073043478260869 0.1333333333333333 0  3.089565217391304 0.1333333333333333 0  3.106086956521739 0.1333333333333333 0  3.122608695652174 0.1333333333333333 0  3.139130434782609 0.1333333333333333 0  3.155652173913043 0.1333333333333333 0  3.172173913043478 0.1333333333333333 0  3.188695652173913 0.1333333333333333 0  3.205217391304347 0.1333333333333333 0  3.221739130434782 0.1333333333333333 0  3.238260869565217 0.1333333333333333 0  3.254782608695652 0.1333333333333333 0  3.271304347826087 0.1333333333333333 0  3.287826086956521 0.1333333333333333 0  3.304347826086957 0.1333333333333333 0  3.320869565217391 0.1333333333333333 0  3.337391304347826 0.1333333333333333 0  3.353913043478261 0.1333333333333333 0  3.04 0.15 0  3.056521739130435 0.15 0  3.073043478260869 0.15 0  3.089565217391304 0.15 0  3.106086956521739 0.15 0  3.122608695652174 0.15 0  3.139130434782609 0.15 0  3.155652173913043 0.15 0  3.172173913043478 0.15 0  3.188695652173913 0.15 0  3.205217391304347 0.15 0  3.221739130434782 0.15 0  3.238260869565217 0.15 0  3.254782608695652 0.15 0  3.271304347826087 0.15 0  3.287826086956521 0.15 0  3.304347826086957 0.15 0  3.320869565217391 0.15 0  3.337391304347826 0.15 0  3.353913043478261 0.15 0  3.370434782608696 0.15 0  3.056521739130435 0.1666666666666667 0  3.073043478260869 0.1666666666666667 0  3.089565217391304 0.1666666666666667 0  3.106086956521739 0.1666666666666667 0  3.122608695652174 0.1666666666666667 0  3.139130434782609 0.1666666666666667 0  3.155652173913043 0.1666666666666667 0  3.172173913043478 0.1666666666666667 0  3.188695652173913 0.1666666666666667 0  3.205217391304347 0.1666666666666667 0  3.221739130434782 0.1666666666666667 0  3.238260869565217 0.1666666666666667 0  3.254782608695652 0.1666666666666667 0  3.271304347826087 0.1666666666666667 0  3.287826086956521 0.1666666666666667 0  3.304347826086957 0.1666666666666667 0  3.320869565217391 0.1666666666666667 0  3.337391304347826 0.1666666666666667 0  3.353913043478261 0.1666666666666667 0  3.370434782608696 0.1666666666666667 0  3.386956521739131 0.1666666666666667 0  3.073043478260869 0.1833333333333333 0  3.089565217391304 0.1833333333333333 0  3.106086956521739 0.1833333333333333 0  3.122608695652174 0.1833333333333333 0  3.139130434782609 0.1833333333333333 0  3.155652173913043 0.1833333333333333 0  3.172173913043478 0.1833333333333333 0  3.188695652173913 0.1833333333333333 0  3.205217391304347 0.1833333333333333 0  3.221739130434782 0.1833333333333333 0  3.238260869565217 0.1833333333333333 0  3.254782608695652 0.1833333333333333 0  3.271304347826087 0.1833333333333333 0  3.287826086956521 0.1833333333333333 0  3.304347826086957 0.1833333333333333 0  3.320869565217391 0.1833333333333333 0  3.337391304347826 0.1833333333333333 0  3.353913043478261 0.1833333333333333 0  3.370434782608696 0.1833333333333333 0  3.386956521739131 0.1833333333333333 0  3.403478260869565 0.1833333333333333 0  3.089565217391304 0.2 0  3.106086956521739 0.2 0  3.122608695652174 0.2 0  3.139130434782609 0.2 0  3.155652173913043 0.2 0  3.172173913043478 0.2 0  3.188695652173913 0.2 0  3.205217391304347 0.2 0  3.221739130434782 0.2 0  3.238260869565217 0.2 0  3.254782608695652 0.2 0  3.271304347826087 0.2 0  3.287826086956521 0.2 0  3.304347826086957 0.2 0  3.320869565217391 0.2 0  3.337391304347826 0.2 0  3.353913043478261 0.2 0  3.370434782608696 0.2 0  3.386956521739131 0.2 0  3.403478260869565 0.2 0  3.419999999999999 0.2 0  3.106086956521739 0.2166666666666667 0  3.122608695652174 0.2166666666666667 0  3.139130434782609 0.2166666666666667 0  3.155652173913043 0.2166666666666667 0  3.172173913043478 0.2166666666666667 0  3.188695652173913 0.2166666666666667 0  3.205217391304347 0.2166666666666667 0  3.221739130434782 0.2166666666666667 0  3.238260869565217 0.2166666666666667 0  3.254782608695652 0.2166666666666667 0  3.271304347826087 0.2166666666666667 0  3.287826086956521 0.2166666666666667 0  3.304347826086957 0.2166666666666667 0  3.320869565217391 0.2166666666666667 0  3.337391304347826 0.2166666666666667 0  3.353913043478261 0.2166666666666667 0  3.370434782608696 0.2166666666666667 0  3.386956521739131 0.2166666666666667 0  3.403478260869565 0.2166666666666667 0  3.419999999999999 0.2166666666666667 0  3.436521739130435 0.2166666666666667 0  3.122608695652174 0.2333333333333333 0  3.139130434782609 0.2333333333333333 0  3.155652173913043 0.2333333333333333 0  3.172173913043478 0.2333333333333333 0  3.188695652173913 0.2333333333333333 0  3.205217391304347 0.2333333333333333 0  3.221739130434782 0.2333333333333333 0  3.238260869565217 0.2333333333333333 0  3.254782
[...]
<PointData  Vectors="Displacement"> 
<DataArray  type="Float64"  Name="Displacement"  NumberOfComponents="3" format="ascii">3.7536207698084413e-04 5.3165464310606959e-03 0.0000000000000000e+00  3.7590526178532893e-04 5.3382260919846878e-03 0.0000000000000000e+00  3.5478476788565699e-04 5.3378347878700362e-03 0.0000000000000000e+00  3.5275718335236729e-04 5.3161153387822182e-03 0.0000000000000000e+00  3.7642636468385448e-04 5.3583167914833391e-03 0.0000000000000000e+00  3.5675182601422988e-04 5.3580110282664302e-03 0.0000000000000000e+00  3.7695248326129692e-04 5.3769857092698155e-03 0.0000000000000000e+00  3.5839238165178268e-04 5.3767969142198887e-03 0.0000000000000000e+00  3.7757234071664978e-04 5.3948927584315286e-03 0.0000000000000000e+00  3.5939359163436537e-04 5.3946733246387091e-03 0.0000000000000000e+00  3.7832033410773065e-04 5.4126799482031567e-03 0.0000000000000000e+00  3.6017792439462746e-04 5.4124409970184315e-03 0.0000000000000000e+00  3.7915636351606785e-04 5.4306110249141516e-03 0.0000000000000000e+00  3.6086717819774162e-04 5.4303649875888120e-03 0.0000000000000000e+00  3.8007109628074623e-04 5.4487527019208117e-03 0.0000000000000000e+00  3.6153961660940359e-04 5.4484817526363367e-03 0.0000000000000000e+00  3.8105295919900267e-04 5.4672123431880448e-03 0.0000000000000000e+00  3.6222652830384267e-04 5.4669097619208214e-03 0.0000000000000000e+00  3.8203777557016858e-04 5.4861009282156856e-03 0.0000000000000000e+00  3.6291952427451108e-04 5.4857823907185467e-03 0.0000000000000000e+00  3.8289793129411506e-04 5.5054291198678223e-03 0.0000000000000000e+00  3.6359040838138134e-04 5.5051421278556889e-03 0.0000000000000000e+00  3.8342999569823037e-04 5.5250228039775895e-03 0.0000000000000000e+00  3.6415230747431513e-04 5.5249097878718499e-03 0.0000000000000000e+00  3.8354945162169166e-04 5.5445027857562654e-03 0.0000000000000000e+00  3.6438534501766602e-04 5.5446275058116338e-03 0.0000000000000000e+00  3.9204446447092692e-04 5.5688815206340805e-03 0.0000000000000000e+00  3.6578361632454121e-04 5.5657775136207926e-03 0.0000000000000000e+00  4.0019111881016439e-04 5.5961132515883394e-03 0.0000000000000000e+00  3.7347635131617941e-04 5.5937666558622872e-03 0.0000000000000000e+00  4.0757484427785180e-04 5.6237783955751701e-03 0.0000000000000000e+00  3.7992908244316041e-04 5.6216158897548860e-03 0.0000000000000000e+00  4.1431286767951885e-04 5.6524668635306351e-03 0.0000000000000000e+00  3.8558651193669100e-04 5.6505066132522793e-03 0.0000000000000000e+00  3.3305863816018969e-04 5.3371428819435499e-03 0.0000000000000000e+00  3.2935110666333276e-04 5.3154464258934990e-03 0.0000000000000000e+00  3.3736976676989325e-04 5.3573087872531991e-03 0.0000000000000000e+00  3.4069942958131071e-04 5.3763924027977394e-03 0.0000000000000000e+00  3.4192090250870477e-04 5.3944945928187356e-03 0.0000000000000000e+00  3.4231305000143709e-04 5.4122456850654518e-03 0.0000000000000000e+00  3.4267698485605758e-04 5.4302004625717088e-03 0.0000000000000000e+00  3.4305725318331017e-04 5.4482764609798274e-03 0.0000000000000000e+00  3.4347437462122903e-04 5.4666364164917200e-03 0.0000000000000000e+00  3.4392326705563899e-04 5.4854480332405323e-03 0.0000000000000000e+00  3.4443806090816368e-04 5.5047689692717750e-03 0.0000000000000000e+00  3.4503153060171907e-04 5.5246807508206658e-03 0.0000000000000000e+00  3.4563153865339971e-04 5.5450656457455959e-03 0.0000000000000000e+00  3.4627857990572424e-04 5.5667296615606937e-03 0.0000000000000000e+00  3.5000943470987094e-04 5.5923206803839970e-03 0.0000000000000000e+00  3.5437320297007136e-04 5.6199307350946678e-03 0.0000000000000000e+00  3.5847994314806023e-04 5.6489629485076921e-03 0.0000000000000000e+00  3.6223250959178802e-04 5.6790583992561176e-03 0.0000000000000000e+00  3.1752792096728454e-04 5.3349141993756450e-03 0.0000000000000000e+00  3.2030313136701316e-04 5.3555434392918459e-03 0.0000000000000000e+00  3.2261992532655687e-04 5.3753926141951519e-03 0.0000000000000000e+00  3.2438689626682483e-04 5.3945547492058868e-03 0.0000000000000000e+00  3.2447778528823222e-04 5.4122260567690495e-03 0.0000000000000000e+00  3.2451651903154990e-04 5.4301968460254467e-03 0.0000000000000000e+00  3.2461917551577488e-04 5.4481628127776120e-03 0.0000000000000000e+00  3.2476664261762804e-04 5.4664074955113346e-03 0.0000000000000000e+00  3.2489383083139515e-04 5.4851464094924970e-03 0.0000000000000000e+00  3.2503748691994162e-04 5.5043615570138128e-03 0.0000000000000000e+00  3.2528865983336727e-04 5.5243213631510375e-03 0.0000000000000000e+00  3.2576486831092889e-04 5.5451636209325073e-03 0.0000000000000000e+00  3.2660277418878784e-04 5.5674353353575611e-03 0.0000000000000000e+00  3.2802346219682062e-04 5.5923650493934053e-03 0.0000000000000000e+00  3.2985382317240162e-04 5.6189872218451844e-03 0.0000000000000000e+00  3.3239300089128536e-04 5.6480031999795819e-03 0.0000000000000000e+00  3.3487476005797866e-04 5.6780133287812461e-03 0.0000000000000000e+00  3.3709352676454676e-04 5.7094946969787419e-03 0.0000000000000000e+00  3.0361440577746269e-04 5.3548430616029881e-03 0.0000000000000000e+00  3.0165776657084547e-04 5.3336671412521682e-03 0.0000000000000000e+00  3.0508487558366260e-04 5.3752422514253924e-03 0.0000000000000000e+00  3.0603054327290821e-04 5.3947631572620518e-03 0.0000000000000000e+00  3.0645288120359119e-04 5.4126297147293239e-03 0.0000000000000000e+00  3.0633440300907247e-04 5.4303572365589558e-03 0.0000000000000000e+00  3.0629227021026627e-04 5.4481262190461174e-03 0.0000000000000000e+00  3.0620434669057601e-04 5.4662339482190181e-03 0.0000000000000000e+00  3.0593378475367875e-04 5.4850044036972700e-03 0.0000000000000000e+00  3.0543924231162824e-04 5.5041729881444637e-03 0.0000000000000000e+00  3.0465226188786928e-04 5.5241098125061788e-03 0.0000000000000000e+00  3.0413312516680346e-04 5.5451137273890170e-03 0.0000000000000000e+00  3.0408284424467721e-04 5.5675936054658554e-03 0.0000000000000000e+00  3.0449557462315104e-04 5.5923795636963385e-03 0.0000000000000000e+00  3.0553228371318263e-04 5.6189598989766377e-03 0.0000000000000000e+00  3.0687991540057259e-04 5.6476342052774872e-03 0.0000000000000000e+00  3.0815757171875734e-04 5.6772616276445781e-03 0.0000000000000000e+00  3.0927720020760885e-04 5.7089864452894408e-03 0.0000000000000000e+00  3.1027344783049736e-04 5.7414618598342296e-03 0.0000000000000000e+00  2.8721871638106179e-04 5.3548642925765732e-03 0.0000000000000000e+00  2.8814581277922669e-04 5.3758991193981823e-03 0.0000000000000000e+00  2.8842380375767186e-04 5.3958669611601845e-03 0.0000000000000000e+00  2.8867934982625528e-04 5.4142137959572560e-03 0.0000000000000000e+00  2.8860211738318911e-04 5.4306975480179877e-03 0.0000000000000000e+00  2.8847973549617689e-04 5.4480761834079664e-03 0.0000000000000000e+00  2.8823238892756970e-04 5.4660060900296615e-03 0.0000000000000000e+00  2.8768555551604487e-04 5.4848780143989199e-03 0.0000000000000000e+00  2.8695262812473960e-04 5.5041707323344614e-03 0.0000000000000000e+00  2.8371298287168132e-04 5.5244405737891900e-03 0.0000000000000000e+00  2.8102829248921260e-04 5.5452687157501448e-03 0.0000000000000000e+00  2.7985898328967534e-04 5.5676213024961766e-03 0.0000000000000000e+00  2.7920538874440546e-04 5.5924961801599978e-03 0.0000000000000000e+00  2.7913095454204794e-04 5.6190799070835028e-03 0.0000000000000000e+00  2.7952397147520144e-04 5.6475755138463511e-03 0.0000000000000000e+00  2.8033090376559228e-04 5.6773092767047912e-03 0.0000000000000000e+00  2.8161341537949843e-04 5.7088297492152856e-03 0.0000000000000000e+00  2.8189781092629365e-04 5.7412836873526781e-03 0.0000000000000000e+00  2.8195981323703585e-04 5.7747333942280692e-03 0.0000000000000000e+00  2.7164773344760058e-04 5.3769986844614676e-03 0.0000000000000000e+00  2.7127111108523504e-04 5.3554703682182920e-03 0.0000000000000000e+00  2.7223369297074961e-04 5.3978597748409445e-03 0.0000000000000000e+00  2.7215397306095426e-04 5.4144129003957679e-03 0.0000000000000000e+00  2.7192958816263065e-04 5.4309118473747824e-03 0.0000000000000000e+00  2.7168738996196734e-04 5.4478783974081443e-03 0.0000000000000000e+00  2.7140052889394495e-04 5.4655588670047342e-03 0.0000000000000000e+00  2.7085606547723272e-04 5.4843166963572587e-03 0.0000000000000000e+00  2.6805671343729884e-04 5.5065683545146857e-03 0.0000000000000000e+00  2.6439845847778232e-04 5.5301783193617525e-03 0.0000000000000000e+00  2.5957736267775587e-04 5.5512472609480154e-03 0.0000000000000000e+00  2.5329507198520811e-04 5.5677016943444114e-03 0.0000000000000000e+00  2.5210535340318288e-04 5.5926301860736308e-03 0.0000000000000000e+00  2.5131541818382156e-04 5.6191740891756983e-03 0.0000000000000000e+00  2.5095342404951267e-04 5.6476605524396761e-03 0.0000000000000000e+00  2.5106658926618043e-04 5.6774874725644036e-03 0.0000000000000000e+00  2.5159483706739132e-04 5.7088305858743150e-03 0.0000000000000000e+00  2.5240003980731056e-04 5.7414838219273998e-03 0.0000000000000000e+00  2.5307067584135731e-04 5.7748790948470071e-03 0.0000000000000000e+00  2.5214356891407462e-04 5.8093798920026947e-03 0.0000000000000000e+00  2.5682697034374165e-04 5.3787688756178741e-03 0.0000000000000000e+00  2.5664216122612562e-04 5.3968261358453371e-03 0.0000000000000000e+00  2.5618420877763370e-04 5.4142464577894844e-03 0.0000000000000000e+00  2.5594250295812577e-04 5.4308954265986555e-03 0.0000000000000000e+00  2.5571750999104530e-04 5.4475800537157372e-03 0.0000000000000000e+00  2.5543517397612613e-04 5.4648508004545605e-03 0.0000000000000000e+00  2.5354780219024556e-04 5.4882304679946016e-03 0.0000000000000000e+00  2.4911535349175529e-04 5.5129112932523648e-03 0.0000000000000000e+00  2.4407874879482725e-04 5.5370383412056880e-03 0.0000000000000000e+00  2.3891293183604206e-04 5.5592990394662577e-03 0.0000000000000000e+00  2.3327598969775389e-04 5.5791602706026849e-03 0.0000000000000000e+00  2.2737430379141213e-04 5.6006335418516823e-03 0.0000000000000000e+00  2.2172880646950012e-04 5.6192559009160389e-03 0.0000000000000000e+00  2.2091461881758084e-04 5.6477390438730768e-03 0.0000000000000000e+00  2.2044003483358239e-04 5.6775999329558994e-03 0.0000000000000000e+00  2.2031704215417206e-04 5.7089511094308232e-03 0.0000000000000000e+00  2.2054114091862214e-04 5.7415763864077391e-03 0.0000000000000000e+00  2.2107443825443733e-04 5.7751280758578305e-03 0.0000000000000000e+00  2.2188643748766285e-04 5.8099115055755919e-03 0.0000000000000000e+00  2.2081251445542506e-04 5.8450582064624567e-03 0.0000000000000000e+00  2.4057523109684054e-04 5.3964047070738739e-03 0.0000000000000000e+00  2.4113920814217122e-04 5.3779141619299088e-03 0.0000000000000000e+00  2.4019325672424024e-04 5.4139964272351005e-03 0.0000000000000000e+00  2.3992309382684770e-04 5.4308384230008196e-03 0.0000000000000000e+00  2.3970912428307816e-04 5.4474220617175490e-03 0.0000000000000000e+00  2.3963595729197662e-04 5.4639637423830852e-03 0.0000000000000000e+00  2.3481778848424218e-04 5.4937480831349994e-03 0.0000000000000000e+00  2.2877669212524853e-04 5.5203353826507673e-03 0.0000000000000000e+00  2.2271271303244504e-04 5.5452617783569597e-03 0.0000000000000000e+00  2.1675728212286997e-04 5.5684424369578803e-03 0.0000000000000000e+00  2.1064925939229639e-04 5.5900306247825514e-03 0.0000000000000000e+00  2.0421752276833876e-04 5.6115047132562924e-03 0.0000000000000000e+00  1.9763410294633884e-04 5.6312330680963604e-03 0.0000000000000000e+00  1.8945121906654728e-04 5.6480848635070083e-03 0.0000000000000000e+00  1.8856658205006676e-04 5.6777285560086774e-03 0.0000000000000000e+00  1.8790501614543816e-04 5.7089967063116143e-03 0.0000000000000000e+00  1.8770880945974272e-04 5.7416937015500758e-03 0.0000000000000000e+00  1.8780857878694291e-04 5.7753069106031797e-03 0.0000000000000000e+00  1.8816948903694730e-04 5.8099934633627790e-03 0.0000000000000000e+00  1.8871183191192568e-04 5.8455076833281985e-03 0.0000000000000000e+00  1.8906873255467455e-04 5.8813557442791561e-03 0.0000000000000000e+00  2.2381269817261498e-04 5.3961198684307089e-03 0.0000000000000000e+00  2.2352201875559753e-04 5.4138709750026779e-03 0.0000000000000000e+00  2.2339540637150368e-04 5.4308851746769317e-03 0.0000000000000000e+00  2.2329438275360886e-04 5.4474301175499226e-03 0.0000000000000000e+00  2.1923982664144475e-04 5.4722043428569308e-03 0.0000000000000000e+00  2.1246030065413002e-04 5.5014904419402582e-03 0.0000000000000000e+00  2.0596655939366545e-04 5.5290062767483789e-03 0.0000000000000000e+00  1.9948211693308123e-04 5.5545640233493603e-03 0.0000000000000000e+00  1.9311203047595689e-04 5.5784782539185663e-03 0.0000000000000000e+00  1.8675151053621026e-04 5.6010971813076965e-03 0.0000000000000000e+00  1.8032186905066200e-04 5.6230958684949988e-03 0.0000000000000000e+00  1.7389625233397475e-04 5.6440215526872197e-03 0.0000000000000000e+00  1.6715606683327935e-04 5.6642635575768607e-03 0.0000000000000000e+00  1.6057924712210384e-04 5.6883254984596392e-03 0.0000000000000000e+00  1.5431186171451381e-04 5.7090224976363672e-03 0.0000000000000000e+00  1.5388242692355582e-04 5.7417709743507028e-03 0.0000000000000000e+00  1.5363299544370642e-04 5.7753942136795373e-03 0.0000000000000000e+00  1.5360942721859660e-04 5.8101355604975573e-03 0.0000000000000000e+00  1.5379113941176850e-04 5.8456270387705371e-03 0.0000000000000000e+00  1.5413522342499916e-04 5.8816264373866859e-03 0.0000000000000000e+00  1.5457928455789007e-04 5.9182563758168908e-03 0.0000000000000000e+00  2.0606515356290224e-04 5.4139153568682451e-03 0.0000000000000000e+00  2.0608665795611133e-04 5.4310156530956912e-03 0.0000000000000000e+00  2.0609463186058575e-04 5.4478362388362045e-03 0.0000000000000000e+00  1.9814492850209173e-04 5.4808818022711800e-03 0.0000000000000000e+00  1.8946011805475173e-04 5.5108985020824253e-03 0.0000000000000000e+00  1.8176088779979618e-04 5.5386874325124517e-03 0.0000000000000000e+00  1.7470724602451735e-04 5.5646822374607373e-03 0.0000000000000000e+00  1.6799531847128634e-04 5.5891605288498096e-03 0.0000000000000000e+00  1.6143861600933013e-04 5.6124864928651010e-03 0.0000000000000000e+00  1.5492960597815561e-04 5.6350775361089962e-03 0.0000000000000000e+00  1.4842818738829120e-04 5.6569611610519984e-03 0.0000000000000000e+00  1.4177450545841503e-04 5.6786882719921617e-03 0.0000000000000000e+00  1.3510182601280136e-04 5.7019469429317434e-03 0.0000000000000000e+00  1.2892945540168840e-04 5.7247801049130752e-03 0.0000000000000000e+00  1.2319690571149721e-04 5.7515559370914619e-03 0.0000000000000000e+00  1.1845794653346187e-04 5.7754247211452992e-03 0.0000000000000000e+00  1.1831592096190259e-04 5.8102060970381024e-03 0.0000000000000000e+00  1.1833318362505813e-04 5.8457525162542165e-03 0.0000000000000000e+00  1.1850506543484990e-04 5.8818169121247323e-03 0.0000000000000000e+00  1.1882535903174964e-04 5.9184489664012227e-03 0.0000000000000000e+00  1.1922823506870095e-04 5.9554981355987658e-03 0.0000000000000000e+00  1.8788399795016515e-04 5.4313412722569844e-03 0.0000000000000000e+00  1.8061333371964061e-04 5.4598357773032527e-03 0.0000000000000000e+00  1.7111293043972620e-04 5.4917723213997001e-03 0.0000000000000000e+00  1.6280373101377143e-04 5.5216776495210012e-03 0.0000000000000000e+00  1.5518627983483147e-04 5.5493974895171379e-03 0.0000000000000000e+00  1.4809406682523500e-04 5.5755265411988773e-03 0.0000000000000000e+00  1.4132791801477058e-04 5.6003670719555008e-03 0.0000000000000000e+00  1.3472119672301407e-04 5.6242067997933432e-03 0.0000000000000000e+00  1.2816849235328660e-04 5.6473488923277169e-03 0.0000000000000000e+00  1.2160176373569199e-04 5.6699842796531178e-03 0.0000000000000000e+00  1.1493398311380840e-04 5.6925720729769048e-03 0.0000000000000000e+00  1.0823085001876283e-04 5.7158604230350954e-03 0.0000000000000000e+00  1.0171614277870821e-04 5.7393707914767129e-03 0.0000000000000000e+00  9.5360437370569688e-05 5.7645047198130236e-03 0.0000000000000000e+00  8.9446684869486708e-05 5.7884861798881320e-03 0.0000000000000000e+00  8.2312617041626135e-05 5.8102065989808684e-03 0.0000000000000000e+00  8.2278067645461526e-05 5.8458083367211129e-03 0.0000000000000000e+00  8.2319855127897077e-05 5.8819346259286094e-03 0.0000000000000000e+00  8.2452341910112245e-05 5.9186057591018807e-03 0.0000000000000000e+00  8.2649597653331651e-05 5.9555644015878940e-03 0.0000000000000000e+00  8.2894121585481656e-05 5.9926272535238976e-03 0.0000000000000000e+00  1.5134280925331708e-04 5.4729571732693872e-03 0.0000000000000000e+00  1.4227803640264329e-04 5.5037691237798617e-03 0.0000000000000000e+00  1.3428574104408381e-04 5.5329701335753156e-03 0.0000000000000000e+00  1.2698346973274424e-04 5.5605619402591443e-03 0.0000000000000000e+00  1.2007157173090417e-04 5.5867927415345110e-03 0.0000000000000000e+00  1.1339576264063018e-04 5.6119173443996669e-03 0.0000000000000000e+00  1.0683565221824065e-04 5.6361743294282302e-03 0.0000000000000000e+00  1.0030495149438885e-04 5.6598054503023262e-03 0.0000000000000000e+00  9.3744756136610657e-05 5.6830333942696383e-03 0.0000000000000000e+00  8.7113154375587594e-05 5.7062053106594658e-03 0.0000000000000000e+00  8.0459125480133984e-05 5.7297193228431787e-03 0.0000000000000000e+00  7.3911945883851148e-05 5.7535279764651254e-03 0.0000000000000000e+00  6.7540888214952740e-05 5.7780924528514554e-03 0.0000000000000000e+00  6.1516665204841865e-05 5.8023580774372125e-03 0.0000000000000000e+00  5.5439199734353049e-05 5.8265882369969999e-03 0.0000000000000000e+00  4.9860019876484072e-05 5.8553954113424195e-03 0.0000000000000000e+00  4.5747142461241406e-05 5.8820281542042996e-03 0.0000000000000000e+00  4.5850010425011613e-05 5.9187461987098384e-03 0.0000000000000000e+00  4.5991624367668028e-05 5.9556982906552539e-03 0.0000000000000000e+00  4.6169453114696878e-05 5.9927538232027160e-03 0.0000000000000000e+00  4.6359874743993272e-05 6.0298723309237740e-03 0.0000000000000000e+00  1.1188997976926019e-04 5.5159516507518663e-03 0.0000000000000000e+00  1.0454563127129902e-04 5.5445746972917114e-03 0.0000000000000000e+00  9.7631556389171864e-05 5.5719979596131923e-03 0.0000000000000000e+00  9.0978099908293033e-05 5.5983201161900900e-03 0.0000000000000000e+00  8.4467611597596233e-05 5.6236963455075402e-03 0.0000000000000000e+00  7.8017046673594943e-05 5.6483129985836905e-03 0.0000000000000000e+00  7.1565606668728407e-05 5.6723695381245996e-03 0.0000000000000000e+00  6.5072593326718489e-05 5.6960726535495304e-03 0.0000000000000000e+00  5.8520784678652460e-05 5.7196827958185129e-03 0.0000000000000000e+00  5.1947240926223886e-05 5.7434513091541980e-03 0.0000000000000000e+00  4.5429871979472902e-05 5.7674493710659228e-03 0.0000000000000000e+00  3.9026078703577105e-05 5.7918582607874546e-03 0.0000000000000000e+00  3.2790041451527001e-05 5.8163354721426164e-03 0.0000000000000000e+00  2.6544565922724432e-05 5.8412386140394455e-03 0.0000000000000000e+00  2.0418427550078468e-05 5.8680430046045805e-03 0.0000000000000000e+00  1.4935879494662043e-05 5.8940489175006551e-03 0.0000000000000000e+00  9.0779062517901164e-06 5.9188583187091276e-03 0.0000000000000000e+00  9.2173539629238297e-06 5.9558158943633331e-03 0.0000000000000000e+00  9.3943314583450681e-06 5.9928843411919796e-03 0.0000000000000000e+00  9.5757940857582430e-06 6.0300218125033363e-03 0.0000000000000000e+00  9.7447701942450631e-06 6.0670982048159393e-03 0.0000000000000000e+00  7.4164754591820402e-05 5.5562682337054036e-03 0.0000000000000000e+00  6.7556881339863125e-05 5.5836040228496690e-03 0.0000000000000000e+00  6.1127381482217830e-05 5.6100258973455245e-03 0.0000000000000000e+00  5.4787955985744257e-05 5.6356333260770622e-03 0.0000000000000000e+00  4.8473076001597575e-05 5.6605671221283760e-03 0.0000000000000000e+00  4.2137153788442538e-05 5.6849911125826658e-03 0.0000000000000000e+00  3.5752695961191413e-05 5.7090831907305973e-03 0.0000000000000000e+00  2.9313830287661722e-05 5.7330434705692383e-03 0.0000000000000000e+00  2.2847786564031105e-05 5.7570535214054577e-03 0.0000000000000000e+00  1.6403533274446020e-05 5.7812134932997868e-03 0.0000000000000000e+