<?xml version="1.0"?>
<VTKFile type="UnstructuredGrid"  version="0.1"  >
<UnstructuredGrid>
<Piece  NumberOfPoints="650" NumberOfCells="1199">
<Points>
<DataArray  type="Float64"  NumberOfComponents="3"  format="ascii">3.238260869565217 0 0  3.254782608695652 0 0  3.254782608695652 0.01666666666666667 0  3.238260869565217 0.01666666666666667 0  3.271304347826087 0 0  3.271304347826087 0.01666666666666667 0  3.287826086956521 0 0  3.287826086956521 0.01666666666666667 0  3.304347826086957 0 0  3.304347826086957 0.01666666666666667 0  3.320869565217391 0 0  3.320869565217391 0.01666666666666667 0  3.337391304347826 0 0  3.337391304347826 0.01666666666666667 0  3.353913043478261 0 0  3.353913043478261 0.01666666666666667 0  3.370434782608696 0 0  3.370434782608696 0.01666666666666667 0  3.386956521739131 0 0  3.386956521739131 0.01666666666666667 0  3.403478260869565 0 0  3.403478260869565 0.01666666666666667 0  3.419999999999999 0 0  3.419999999999999 0.01666666666666667 0  3.436521739130435 0 0  3.436521739130435 0.01666666666666667 0  3.453043478260869 0 0  3.453043478260869 0.01666666666666667 0  3.469565217391304 0 0  3.469565217391304 0.01666666666666667 0  3.486086956521739 0 0  3.486086956521739 0.01666666666666667 0  3.502608695652174 0 0  3.502608695652174 0.01666666666666667 0  3.519130434782609 0 0  3.519130434782609 0.01666666666666667 0  3.535652173913043 0 0  3.535652173913043 0.01666666666666667 0  3.552173913043478 0 0  3.552173913043478 0.01666666666666667 0  3.568695652173913 0 0  3.568695652173913 0.01666666666666667 0  3.585217391304347 0 0  3.585217391304347 0.01666666666666667 0  3.601739130434782 0 0  3.601739130434782 0.01666666666666667 0  3.618260869565217 0 0  3.618260869565217 0.01666666666666667 0  3.634782608695652 0 0  3.634782608695652 0.01666666666666667 0  3.651304347826087 0 0  3.651304347826087 0.01666666666666667 0  3.667826086956521 0 0  3.667826086956521 0.01666666666666667 0  3.684347826086956 0 0  3.684347826086956 0.01666666666666667 0  3.700869565217391 0 0  3.700869565217391 0.01666666666666667 0  3.717391304347826 0 0  3.717391304347826 0.01666666666666667 0  3.733913043478261 0 0  3.733913043478261 0.01666666666666667 0  3.750434782608695 0 0  3.750434782608695 0.01666666666666667 0  3.766956521739131 0 0  3.766956521739131 0.01666666666666667 0  3.783478260869565 0 0  3.783478260869565 0.01666666666666667 0  3.8 0 0  3.8 0.01666666666666667 0  3.254782608695652 0.03333333333333333 0  3.271304347826087 0.03333333333333333 0  3.287826086956521 0.03333333333333333 0  3.304347826086957 0.03333333333333333 0  3.320869565217391 0.03333333333333333 0  3.337391304347826 0.03333333333333333 0  3.353913043478261 0.03333333333333333 0  3.370434782608696 0.03333333333333333 0  3.386956521739131 0.03333333333333333 0  3.403478260869565 0.03333333333333333 0  3.419999999999999 0.03333333333333333 0  3.436521739130435 0.03333333333333333 0  3.453043478260869 0.03333333333333333 0  3.469565217391304 0.03333333333333333 0  3.486086956521739 0.03333333333333333 0  3.502608695652174 0.03333333333333333 0  3.519130434782609 0.03333333333333333 0  3.535652173913043 0.03333333333333333 0  3.552173913043478 0.03333333333333333 0  3.568695652173913 0.03333333333333333 0  3.585217391304347 0.03333333333333333 0  3.601739130434782 0.03333333333333333 0  3.618260869565217 0.03333333333333333 0  3.634782608695652 0.03333333333333333 0  3.651304347826087 0.03333333333333333 0  3.667826086956521 0.03333333333333333 0  3.684347826086956 0.03333333333333333 0  3.700869565217391 0.03333333333333333 0  3.717391304347826 0.03333333333333333 0  3.733913043478261 0.03333333333333333 0  3.750434782608695 0.03333333333333333 0  3.766956521739131 0.03333333333333333 0  3.783478260869565 0.03333333333333333 0  3.8 0.03333333333333333 0  3.271304347826087 0.05 0  3.287826086956521 0.05 0  3.304347826086957 0.05 0  3.320869565217391 0.05 0  3.337391304347826 0.05 0  3.353913043478261 0.05 0  3.370434782608696 0.05 0  3.386956521739131 0.05 0  3.403478260869565 0.05 0  3.419999999999999 0.05 0  3.436521739130435 0.05 0  3.453043478260869 0.05 0  3.469565217391304 0.05 0  3.486086956521739 0.05 0  3.502608695652174 0.05 0  3.519130434782609 0.05 0  3.535652173913043 0.05 0  3.552173913043478 0.05 0  3.568695652173913 0.05 0  3.585217391304347 0.05 0  3.601739130434782 0.05 0  3.618260869565217 0.05 0  3.634782608695652 0.05 0  3.651304347826087 0.05 0  3.667826086956521 0.05 0  3.684347826086956 0.05 0  3.700869565217391 0.05 0  3.717391304347826 0.05 0  3.733913043478261 0.05 0  3.750434782608695 0.05 0  3.766956521739131 0.05 0  3.783478260869565 0.05 0  3.8 0.05 0  3.287826086956521 0.06666666666666667 0  3.304347826086957 0.06666666666666667 0  3.320869565217391 0.06666666666666667 0  3.337391304347826 0.06666666666666667 0  3.353913043478261 0.06666666666666667 0  3.370434782608696 0.06666666666666667 0  3.386956521739131 0.06666666666666667 0  3.403478260869565 0.06666666666666667 0  3.419999999999999 0.06666666666666667 0  3.436521739130435 0.06666666666666667 0  3.453043478260869 0.06666666666666667 0  3.469565217391304 0.06666666666666667 0  3.486086956521739 0.06666666666666667 0  3.502608695652174 0.06666666666666667 0  3.519130434782609 0.06666666666666667 0  3.535652173913043 0.06666666666666667 0  3.552173913043478 0.06666666666666667 0  3.568695652173913 0.06666666666666667 0  3.585217391304347 0.06666666666666667 0  3.601739130434782 0.06666666666666667 0  3.618260869565217 0.06666666666666667 0  3.634782608695652 0.06666666666666667 0  3.651304347826087 0.06666666666666667 0  3.667826086956521 0.06666666666666667 0  3.684347826086956 0.06666666666666667 0  3.700869565217391 0.06666666666666667 0  3.717391304347826 0.06666666666666667 0  3.733913043478261 0.06666666666666667 0  3.750434782608695 0.06666666666666667 0  3.766956521739131 0.06666666666666667 0  3.783478260869565 0.06666666666666667 0  3.8 0.06666666666666667 0  3.304347826086957 0.08333333333333333 0  3.320869565217391 0.08333333333333333 0  3.337391304347826 0.08333333333333333 0  3.353913043478261 0.08333333333333333 0  3.370434782608696 0.08333333333333333 0  3.386956521739131 0.08333333333333333 0  3.403478260869565 0.08333333333333333 0  3.419999999999999 0.08333333333333333 0  3.436521739130435 0.08333333333333333 0  3.453043478260869 0.08333333333333333 0  3.469565217391304 0.08333333333333333 0  3.486086956521739 0.08333333333333333 0  3.502608695652174 0.08333333333333333 0  3.519130434782609 0.08333333333333333 0  3.535652173913043 0.08333333333333333 0  3.552173913043478 0.08333333333333333 0  3.568695652173913 0.08333333333333333 0  3.585217391304347 0.08333333333333333 0  3.601739130434782 0.08333333333333333 0  3.618260869565217 0.08333333333333333 0  3.634782608695652 0.08333333333333333 0  3.651304347826087 0.08333333333333333 0  3.667826086956521 0.08333333333333333 0  3.684347826086956 0.08333333333333333 0  3.700869565217391 0.08333333333333333 0  3.717391304347826 0.08333333333333333 0  3.733913043478261 0.08333333333333333 0  3.750434782608695 0.08333333333333333 0  3.766956521739131 0.08333333333333333 0  3.783478260869565 0.08333333333333333 0  3.8 0.08333333333333333 0  3.320869565217391 0.1 0  3.337391304347826 0.1 0  3.353913043478261 0.1 0  3.370434782608696 0.1 0  3.386956521739131 0.1 0  3.403478260869565 0.1 0  3.419999999999999 0.1 0  3.436521739130435 0.1 0  3.453043478260869 0.1 0  3.469565217391304 0.1 0  3.486086956521739 0.1 0  3.502608695652174 0.1 0  3.519130434782609 0.1 0  3.535652173913043 0.1 0  3.552173913043478 0.1 0  3.568695652173913 0.1 0  3.585217391304347 0.1 0  3.601739130434782 0.1 0  3.618260869565217 0.1 0  3.634782608695652 0.1 0  3.651304347826087 0.1 0  3.667826086956521 0.1 0  3.684347826086956 0.1 0  3.700869565217391 0.1 0  3.717391304347826 0.1 0  3.733913043478261 0.1 0  3.750434782608695 0.1 0  3.766956521739131 0.1 0  3.783478260869565 0.1 0  3.8 0.1 0  3.337391304347826 0.1166666666666667 0  3.353913043478261 0.1166666666666667 0  3.370434782608696 0.1166666666666667 0  3.386956521739131 0.1166666666666667 0  3.403478260869565 0.1166666666666667 0  3.419999999999999 0.1166666666666667 0  3.436521739130435 0.1166666666666667 0  3.453043478260869 0.1166666666666667 0  3.469565217391304 0.1166666666666667 0  3.486086956521739 0.1166666666666667 0  3.502608695652174 0.1166666666666667 0  3.519130434782609 0.1166666666666667 0  3.535652173913043 0.1166666666666667 0  3.552173913043478 0.1166666666666667 0  3.568695652173913 0.1166666666666667 0  3.585217391304347 0.1166666666666667 0  3.601739130434782 0.1166666666666667 0  3.618260869565217 0.1166666666666667 0  3.634782608695652 0.1166666666666667 0  3.651304347826087 0.1166666666666667 0  3.667826086956521 0.1166666666666667 0  3.684347826086956 0.1166666666666667 0  3.700869565217391 0.1166666666666667 0  3.717391304347826 0.1166666666666667 0  3.733913043478261 0.1166666666666667 0  3.750434782608695 0.1166666666666667 0  3.766956521739131 0.1166666666666667 0  3.783478260869565 0.1166666666666667 0  3.8 0.1166666666666667 0  3.353913043478261 0.1333333333333333 0  3.370434782608696 0.1333333333333333 0  3.386956521739131 0.1333333333333333 0  3.403478260869565 0.1333333333333333 0  3.419999999999999 0.1333333333333333 0  3.436521739130435 0.1333333333333333 0  3.453043478260869 0.1333333333333333 0  3.469565217391304 0.1333333333333333 0  3.486086956521739 0.1333333333333333 0  3.502608695652174 0.1333333333333333 0  3.519130434782609 0.1333333333333333 0  3.535652173913043 0.1333333333333333 0  3.552173913043478 0.1333333333333333 0  3.568695652173913 0.1333333333333333 0  3.585217391304347 0.1333333333333333 0  3.601739130434782 0.1333333333333333 0  3.618260869565217 0.1333333333333333 0  3.634782608695652 0.1333333333333333 0  3.651304347826087 0.1333333333333333 0  3.667826086956521 0.1333333333333333 0  3.684347826086956 0.1333333333333333 0  3.700869565217391 0.1333333333333333 0  3.717391304347826 0.13333333
[...]
<PointData  Vectors="Displacement"> 
<DataArray  type="Float64"  Name="Displacement"  NumberOfComponents="3" format="ascii">9.1552381803485232e-04 9.4895445402870503e-03 0.0000000000000000e+00  9.7613541268434833e-04 9.5333030059963058e-03 0.0000000000000000e+00  9.2846762301191082e-04 9.5154055069260265e-03 0.0000000000000000e+00  8.8008694823127754e-04 9.4709847698743136e-03 0.0000000000000000e+00  1.0343207916728352e-03 9.5897424862285245e-03 0.0000000000000000e+00  9.7461590686754543e-04 9.5726583537101406e-03 0.0000000000000000e+00  1.0894790974162419e-03 9.6588192856940577e-03 0.0000000000000000e+00  1.0180405220876049e-03 9.6427277844378587e-03 0.0000000000000000e+00  1.1407174124756804e-03 9.7405677718448418e-03 0.0000000000000000e+00  1.0580156994599841e-03 9.7257928781134123e-03 0.0000000000000000e+00  1.1869626880738932e-03 9.8345180151103440e-03 0.0000000000000000e+00  1.0937343633261158e-03 9.8214064056609696e-03 0.0000000000000000e+00  1.2271996426146726e-03 9.9396291944651542e-03 0.0000000000000000e+00  1.1244740906261506e-03 9.9284653599098060e-03 0.0000000000000000e+00  1.2605592702396055e-03 1.0054546831803294e-02 0.0000000000000000e+00  1.1496121584076674e-03 1.0045571918430751e-02 0.0000000000000000e+00  1.2863697870695212e-03 1.0177627134668837e-02 0.0000000000000000e+00  1.1686694630466871e-03 1.0171019437090589e-02 0.0000000000000000e+00  1.3042275078927823e-03 1.0306976042035808e-02 0.0000000000000000e+00  1.1813716302521168e-03 1.0302822865840977e-02 0.0000000000000000e+00  1.3140465438947089e-03 1.0440566523665767e-02 0.0000000000000000e+00  1.1876829998371961e-03 1.0438852705785958e-02 0.0000000000000000e+00  1.3160634680047488e-03 1.0576380293088945e-02 0.0000000000000000e+00  1.1878061324252535e-03 1.0576993538201322e-02 0.0000000000000000e+00  1.3108024920183699e-03 1.0712530941906419e-02 0.0000000000000000e+00  1.1821554834721435e-03 1.0715277777489594e-02 0.0000000000000000e+00  1.2990195751167437e-03 1.0847348386037924e-02 0.0000000000000000e+00  1.1713186204964101e-03 1.0851973156738175e-02 0.0000000000000000e+00  1.2816402226030837e-03 1.0979429813715642e-02 0.0000000000000000e+00  1.1560130181507097e-03 1.0985633603703079e-02 0.0000000000000000e+00  1.2596986521352198e-03 1.1107665604743912e-02 0.0000000000000000e+00  1.1370425840147766e-03 1.1115123952790415e-02 0.0000000000000000e+00  1.2342814573012395e-03 1.1231246898004005e-02 0.0000000000000000e+00  1.1152559776026894e-03 1.1239626072794313e-02 0.0000000000000000e+00  1.2064777255479141e-03 1.1349657784321886e-02 0.0000000000000000e+00  1.0915087286125045e-03 1.1358629004072147e-02 0.0000000000000000e+00  1.1773373222657684e-03 1.1462655102850458e-02 0.0000000000000000e+00  1.0666308813829257e-03 1.1471906107062953e-02 0.0000000000000000e+00  1.1478381437910973e-03 1.1570239902652648e-02 0.0000000000000000e+00  1.0414009353389526e-03 1.1579483753094930e-02 0.0000000000000000e+00  1.1188620443223199e-03 1.1672624431223676e-02 0.0000000000000000e+00  1.0165260025083579e-03 1.1681605762579993e-02 0.0000000000000000e+00  1.0911783732252599e-03 1.1770197643088389e-02 0.0000000000000000e+00  9.9262757690930553e-04 1.1778696750126343e-02 0.0000000000000000e+00  1.0654336265871543e-03 1.1863491323287385e-02 0.0000000000000000e+00  9.7023199306614288e-04 1.1871326560570650e-02 0.0000000000000000e+00  1.0421455630307485e-03 1.1953148004065208e-02 0.0000000000000000e+00  9.4976453142509823e-04 1.1960176982105247e-02 0.0000000000000000e+00  1.0217002077782243e-03 1.2039891007496748e-02 0.0000000000000000e+00  9.3154618257293507e-04 1.2046011012154455e-02 0.0000000000000000e+00  1.0043503909538895e-03 1.2124496244916537e-02 0.0000000000000000e+00  9.1579225443911357e-04 1.2129644217601265e-02 0.0000000000000000e+00  9.9021476855999202e-04 1.2207764816711974e-02 0.0000000000000000e+00  9.0261225676307099e-04 1.2211917133540060e-02 0.0000000000000000e+00  9.7927663495985320e-04 1.2290494897084494e-02 0.0000000000000000e+00  8.9201081047606521e-04 1.2293667090055832e-02 0.0000000000000000e+00  9.7138229070098012e-04 1.2373450740945053e-02 0.0000000000000000e+00  8.8388970851482809e-04 1.2375697235054000e-02 0.0000000000000000e+00  9.6623940511441058e-04 1.2457325755743067e-02 0.0000000000000000e+00  8.7805170075881602e-04 1.2458739706615237e-02 0.0000000000000000e+00  9.6341701076405398e-04 1.2542695217356226e-02 0.0000000000000000e+00  8.7420705050704169e-04 1.2543408757196719e-02 0.0000000000000000e+00  9.6235117529621641e-04 1.2629952126475479e-02 0.0000000000000000e+00  8.7198422885333680e-04 1.2630138037589993e-02 0.0000000000000000e+00  9.6236565476941649e-04 1.2719217091421372e-02 0.0000000000000000e+00  8.7094571421862492e-04 1.2719094354760006e-02 0.0000000000000000e+00  9.6272978124698079e-04 1.2810214516903944e-02 0.0000000000000000e+00  8.7060748509634831e-04 1.2810058885158269e-02 0.0000000000000000e+00  9.6282463689074526e-04 1.2902164811050932e-02 0.0000000000000000e+00  8.7045434322605977e-04 1.2902263875088220e-02 0.0000000000000000e+00  8.8635938887896568e-04 9.5008459455134097e-03 0.0000000000000000e+00  9.2174497676643320e-04 9.5586567237304337e-03 0.0000000000000000e+00  9.5499039671786805e-04 9.6293506623333011e-03 0.0000000000000000e+00  9.8539847678881303e-04 9.7135103465741182e-03 0.0000000000000000e+00  1.0121959486930072e-03 9.8106491421982023e-03 0.0000000000000000e+00  1.0348104836695358e-03 9.9194750220184050e-03 0.0000000000000000e+00  1.0527538389060072e-03 1.0038582964474844e-02 0.0000000000000000e+00  1.0656344400289152e-03 1.0166218701813627e-02 0.0000000000000000e+00  1.0732427309408906e-03 1.0300288686426675e-02 0.0000000000000000e+00  1.0755872901890180e-03 1.0438544365398504e-02 0.0000000000000000e+00  1.0728823244372573e-03 1.0578770224679436e-02 0.0000000000000000e+00  1.0655110694071741e-03 1.0718927515712693e-02 0.0000000000000000e+00  1.0539868442679841e-03 1.0857236077592550e-02 0.0000000000000000e+00  1.0389172022341037e-03 1.0992220002806759e-02 0.0000000000000000e+00  1.0209706267829040e-03 1.1122729277219742e-02 0.0000000000000000e+00  1.0008445135370120e-03 1.1247944893887427e-02 0.0000000000000000e+00  9.7923574981627023e-04 1.1367367109063069e-02 0.0000000000000000e+00  9.5681590418305327e-04 1.1480789620655563e-02 0.0000000000000000e+00  9.3421170745404359e-04 1.1588265358734032e-02 0.0000000000000000e+00  9.1199053599959399e-04 1.1690068532456376e-02 0.0000000000000000e+00  8.9065027832646061e-04 1.1786656105761011e-02 0.0000000000000000e+00  8.7061279286915216e-04 1.1878630913850037e-02 0.0000000000000000e+00  8.5222013536541191e-04 1.1966707553163047e-02 0.0000000000000000e+00  8.3573284809719582e-04 1.2051681208285604e-02 0.0000000000000000e+00  8.2132978040609466e-04 1.2134398858837143e-02 0.0000000000000000e+00  8.0910909855851185e-04 1.2215731760678491e-02 0.0000000000000000e+00  7.9909031757168783e-04 1.2296547621009254e-02 0.0000000000000000e+00  7.9121730821902353e-04 1.2377680415860556e-02 0.0000000000000000e+00  7.8536220674757832e-04 1.2459895289093184e-02 0.0000000000000000e+00  7.8132978507531323e-04 1.2543845431871639e-02 0.0000000000000000e+00  7.7886072750753472e-04 1.2630017406151911e-02 0.0000000000000000e+00  7.7762965103618986e-04 1.2718661412953582e-02 0.0000000000000000e+00  7.7722819030517671e-04 1.2809703761732618e-02 0.0000000000000000e+00  7.7711141250562312e-04 1.2902635547584512e-02 0.0000000000000000e+00  8.7480545877693884e-04 9.5468915573064840e-03 0.0000000000000000e+00  8.9905197113038249e-04 9.6175965772372137e-03 0.0000000000000000e+00  9.2111437782399887e-04 9.7026370952282247e-03 0.0000000000000000e+00  9.4008595975865873e-04 9.8013127543569809e-03 0.0000000000000000e+00  9.5550728966956446e-04 9.9118872673390479e-03 0.0000000000000000e+00  9.6694397962771407e-04 1.0033052636085340e-02 0.0000000000000000e+00  9.7400331465045758e-04 1.0163012146503770e-02 0.0000000000000000e+00  9.7649598418844577e-04 1.0299499845931386e-02 0.0000000000000000e+00  9.7447676638927176e-04 1.0440090594143437e-02 0.0000000000000000e+00  9.6820705484582906e-04 1.0582438831370758e-02 0.0000000000000000e+00  9.5809308048422554e-04 1.0724432345810633e-02 0.0000000000000000e+00  9.4463772095359068e-04 1.0864252590461214e-02 0.0000000000000000e+00  9.2840635735551595e-04 1.1000407038703398e-02 0.0000000000000000e+00  9.0999957798165102e-04 1.1131744373768033e-02 0.0000000000000000e+00  8.9002680315711713e-04 1.1257458994105731e-02 0.0000000000000000e+00  8.6908214348962727e-04 1.1377076637299624e-02 0.0000000000000000e+00  8.4772548272614640e-04 1.1490423867138463e-02 0.0000000000000000e+00  8.2646911753396436e-04 1.1597589843830754e-02 0.0000000000000000e+00  8.0576902284071046e-04 1.1698885539547881e-02 0.0000000000000000e+00  7.8601980317038924e-04 1.1794803295999924e-02 0.0000000000000000e+00  7.6755236074371009e-04 1.1885978917702199e-02 0.0000000000000000e+00  7.5063339638037005e-04 1.1973157272058776e-02 0.0000000000000000e+00  7.3546609361261164e-04 1.2057161326996234e-02 0.0000000000000000e+00  7.2219156010231822e-04 1.2138863925382293e-02 0.0000000000000000e+00  7.1089074468580905e-04 1.2219161178418265e-02 0.0000000000000000e+00  7.0158659684537393e-04 1.2298946042916401e-02 0.0000000000000000e+00  6.9424614741552307e-04 1.2379080410602575e-02 0.0000000000000000e+00  6.8878186711560769e-04 1.2460363922602431e-02 0.0000000000000000e+00  6.8505093297697702e-04 1.2543497846753142e-02 0.0000000000000000e+00  6.8284963938209796e-04 1.2629042998727441e-02 0.0000000000000000e+00  6.8189775114547275e-04 1.2717372399839430e-02 0.0000000000000000e+00  6.8180354364256058e-04 1.2808622923012441e-02 0.0000000000000000e+00  6.8199327869742905e-04 1.2902656001845505e-02 0.0000000000000000e+00  8.4894391369782064e-04 9.6064706363421064e-03 0.0000000000000000e+00  8.6356252070529866e-04 9.6923033068862623e-03 0.0000000000000000e+00  8.7541327231702149e-04 9.7927515083598479e-03 0.0000000000000000e+00  8.8425603068988156e-04 9.9051322067633171e-03 0.0000000000000000e+00  8.8963927242664061e-04 1.0028596011038863e-02 0.0000000000000000e+00  8.9106618494951440e-04 1.0161283968002449e-02 0.0000000000000000e+00  8.8833756904056695e-04 1.0300619507551496e-02 0.0000000000000000e+00  8.8157386737514932e-04 1.0443903495511679e-02 0.0000000000000000e+00  8.7112391544212501e-04 1.0588614809789855e-02 0.0000000000000000e+00  8.5745981777621879e-04 1.0732566358356324e-02 0.0000000000000000e+00  8.4111743848144316e-04 1.0873911511888103e-02 0.0000000000000000e+00  8.2266497769823799e-04 1.1011154797554931e-02 0.0000000000000000e+00  8.0268137152045196e-04 1.1143158064270490e-02 0.0000000000000000e+00  7.8173239673243200e-04 1.1269147393753542e-02 0.0000000000000000e+00  7.6034871870636091e-04 1.1388694465811949e-02 0.0000000000000000e+00  7.3901158795967685e-04 1.1501677820637792e-02 0.0000000000000000e+00  7.1814545565810359e-04 1.1608238733340317e-02 0.0000000000000000e+00  6.9811529382207509e-04 1.1708736871203353e-02 0.0000000000000000e+00  6.7922720133020015e-04 1.1803707682123894e-02 0.0000000000000000e+00  6.6173094282164326e-04 1.1893823776818512e-02 0.0000000000000000e+00  6.4582327718108539e-04 1.1979860945128634e-02 0.0000000000000000e+00  6.3165137123860876e-04 1.2062668293975544e-02 0.0000000000000000e+00  6.1931590944255062e-04 1.2143141579348704e-02 0.0000000000000000e+00  6.0887363755750246e-04 1.2222198607743349e-02 0.0000000000000000e+00  6.0033905391190074e-04 1.2300755464515423e-02 0.0000000000000000e+00  5.9368477719876176e-04 1.2379702333860669e-02 0.0000000000000000e+00  5.8883971270055956e-04 1.2459877912013454e-02 0.0000000000000000e+00  5.8568342253328075e-04 1.2542042036156414e-02 0.0000000000000000e+00  5.8403400016689068e-04 1.2626847450988190e-02 0.0000000000000000e+00  5.8362522452113936e-04 1.2714814169989406e-02 0.0000000000000000e+00  5.8406692706655043e-04 1.2806314651485800e-02 0.0000000000000000e+00  5.8478076685811327e-04 1.2901587200346358e-02 0.0000000000000000e+00  8.1124449795183604e-04 9.6817537972784390e-03 0.0000000000000000e+00  8.1632760088728832e-04 9.7845799114733498e-03 0.0000000000000000e+00  8.1900182981579060e-04 9.8987339442268285e-03 0.0000000000000000e+00  8.1863550868226196e-04 1.0024897784130271e-02 0.0000000000000000e+00  8.1447977744252096e-04 1.0160997298708544e-02 0.0000000000000000e+00  8.0632960185678484e-04 1.0303869018571093e-02 0.0000000000000000e+00  7.9442429215167455e-04 1.0450404407612612e-02 0.0000000000000000e+00  7.7925420640381684e-04 1.0597860022018598e-02 0.0000000000000000e+00  7.6139203134787379e-04 1.0743992937957110e-02 0.0000000000000000e+00  7.4143245338056127e-04 1.0886945892564042e-02 0.0000000000000000e+00  7.1997249218035890e-04 1.1025235513691910e-02 0.0000000000000000e+00  6.9759894439608771e-04 1.1157750179130264e-02 0.0000000000000000e+00  6.7486305392504872e-04 1.1283769407339873e-02 0.0000000000000000e+00  6.5225702903607752e-04 1.1402937323290009e-02 0.0000000000000000e+00  6.3020382119664809e-04 1.1515209091508728e-02 0.0000000000000000e+00  6.0905613321013050e-04 1.1620798672172271e-02 0.0000000000000000e+00  5.8910014184560954e-04 1.1720130332218517e-02 0.0000000000000000e+00  5.7056219941415721e-04 1.1813793507941444e-02 0.0000000000000000e+00  5.5361663232206238e-04 1.1902503936405859e-02 0.0000000000000000e+00  5.3839309003821643e-04 1.1987071043226008e-02 0.0000000000000000e+00  5.2498269537199903e-04 1.2068370269033417e-02 0.0000000000000000e+00  5.1344268721166065e-04 1.2147319079816877e-02 0.0000000000000000e+00  5.0379936013521742e-04 1.2224855519209252e-02 0.0000000000000000e+00  4.9604904891111467e-04 1.2301918236808167e-02 0.0000000000000000e+00  4.9015671467155246e-04 1.2379427132271489e-02 0.0000000000000000e+00  4.8605132898061953e-04 1.2458264245826224e-02 0.0000000000000000e+00  4.8361670558728871e-04 1.2539255424076636e-02 0.0000000000000000e+00  4.8267575271704089e-04 1.2623154805330836e-02 0.0000000000000000e+00  4.8296549074879281e-04 1.2710636712432940e-02 0.0000000000000000e+00  4.8410002875615967e-04 1.2802303851469276e-02 0.0000000000000000e+00  4.8552005396830267e-04 1.2898728315866225e-02 0.0000000000000000e+00  7.6088922824891863e-04 9.7767234117670885e-03 0.0000000000000000e+00  7.5787847997820456e-04 9.8921650479662990e-03 0.0000000000000000e+00  7.5198316221425810e-04 1.0021654560452800e-02 0.0000000000000000e+00  7.4212227313476633e-04 1.0162204720984763e-02 0.0000000000000000e+00  7.2821733072986697e-04 1.0309559980190902e-02 0.0000000000000000e+00  7.1073112712160321e-04 1.0460061035671679e-02 0.0000000000000000e+00  6.9035902650239575e-04 1.0610718138281948e-02 0.0000000000000000e+00  6.6778992777525139e-04 1.0759303451230759e-02 0.0000000000000000e+00  6.4368097255949614e-04 1.0903975730397131e-02 0.0000000000000000e+00  6.1866589821061452e-04 1.1043278461540412e-02 0.0000000000000000e+00  5.9335640091183017e-04 1.1176134352405493e-02 0.0000000000000000e+00  5.6830661729909886e-04 1.1301902653259255e-02 0.0000000000000000e+00  5.4398261477315852e-04 1.1420334153745056e-02 0.0000000000000000e+00  5.2075755036965312e-04 1.1531490383732032e-02 0.0000000000000000e+00  4.9891860401923252e-04 1.1635682004722434e-02 0.0000000000000000e+00  4.7867755966539882e-04 1.1733416412404447e-02 0.0000000000000000e+00  4.6018405736003413e-04 1.1825349528362443e-02 0.0000000000000000e+00  4.4353890909401388e-04 1.1912247495634883e-02 0.0000000000000000e+00  4.2880538400423860e-04 1.1994956790394631e-02 0.0000000000000000e+00  4.1601784120241401e-04 1.2074380006897697e-02 0.0000000000000000e+00  4.0518762807040769e-04 1.2151455699996490e-02 0.0000000000000000e+00  3.9630619957903892e-04 1.2227141150319119e-02 0.0000000000000000e+00  3.8934533665675904e-04 1.2302397113412224e-02 0.0000000000000000e+00  3.8425419781034801e-04 1.2378173939529931e-02 0.0000000000000000e+00  3.8095267633406839e-04 1.2455399107499762e-02 0.0000000000000000e+00  3.7932017314942719e-04 1.2534967222737255e-02 0.0000000000000000e+00  3.7917856980681705e-04 1.2617734947610947e-02 0.0000000000000000e+00  3.8026816637333244e-04 1.2704525372895155e-02 0.0000000000000000e+00  3.8221611314052489e-04 1.2796149344162349e-02 0.0000000000000000e+00  3.8449934049079588e-04 1.2893455647151669e-02 0.0000000000000000e+00  6.9976104861301110e-04 9.8846555292223092e-03 0.0000000000000000e+00  6.8807739545074891e-04 1.0018606750796468e-02 0.0000000000000000e+00  6.7192133865415075e-04 1.0165119219900039e-02 0.0000000000000000e+00  6.5171572554972000e-04 1.0318139197865145e-02 0.0000000000000000e+00  6.2817608797170819e-04 1.0473413239184550e-02 0.0000000000000000e+00  6.0220841700601947e-04 1.0627723487798613e-02 0.0000000000000000e+00  5.7458258829297805e-04 1.0779029140818136e-02 0.0000000000000000e+00  5.4599433620178620e-04 1.0925526520707622e-02 0.0000000000000000e+00  5.1710739902780737e-04 1.1065794238708281e-02 0.0000000000000000e+00  4.8857016075453438e-04 1.1198781861792214e-02 0.0000000000000000e+00  4.6094927882882222e-04 1.1323964013000121e-02 0.0000000000000000e+00  4.3468482872005332e-04 1.1441244400145231e-02 0.0000000000000000e+00  4.1009723127483793e-04 1.1550825077153437e-02 0.0000000000000000e+00  3.8740536045415259e-04 1.1653139432197996e-02 0.0000000000000000e+00  3.6674408607752408e-04 1.1748797929233740e-02 0.0000000000000000e+00  3.4818455383783353e-04 1.1838535443313928e-02 0.0000000000000000e+00  3.3175315956707272e-04 1.1923175095386138e-02 0.0000000000000000e+00  3.1744634224494824e-04 1.2003603081276685e-02 0.0000000000000000e+00  3.0524115032177520e-04 1.2080749328432557e-02 0.0000000000000000e+00  2.9510195572660287e-04 1.2155572273274070e-02 0.0000000000000000e+00  2.8698348190225501e-04 1.2229046761655066e-02 0.0000000000000000e+00  2.8083021081805256e-04 1.2302154193277999e-02 0.0000000000000000e+00  2.7657218164096377e-04 1.2375874380397674e-02 0.0000000000000000e+00  2.7411703451520335e-04 1.2451179385356038e-02 0.0000000000000000e+00  2.7333790776632805e-04 1.2529030642102571e-02 0.0000000000000000e+00  2.7405666232786129e-04 1.2610381827019151e-02 0.0000000000000000e+00  2.7602217601206024e-04 1.2696191276891058e-02 0.0000000000000000e+00  2.7888450906748020e-04 1.2787449323015223e-02 0.0000000000000000e+00  2.8216816143320709e-04 1.2885227475918007e-02 0.0000000000000000e+00  6.2558315504509111e-04 1.0016010248773348e-02 0.0000000000000000e+00  6.0110321235570482e-04 1.0170220063685318e-02 0.0000000000000000e+00  5.7406052159456381e-04 1.0330180109271170e-02 0.0000000000000000e+00  5.4421004478070296e-04 1.0491056696218191e-02 0.0000000000000000e+00  5.1248156562352205e-04 1.0649369622042692e-02 0.0000000000000000e+00  4.7966916813102690e-04 1.0803627098566568e-02 0.0000000000000000e+00  4.4649854966867823e-04 1.0952027996517616e-02 0.0000000000000000e+00  4.1366266015192425e-04 1.1093183697413231e-02 0.0000000000000000e+00  3.8186622714236949e-04 1.1226029278493987e-02 0.0000000000000000e+00  3.5169222029561071e-04 1.1350214874691565e-02 0.0000000000000000e+00  3.2353943860014142e-04 1.1465863492421744e-02 0.0000000000000000e+00  2.9766051187884269e-04 1.1573353187474270e-02 0.0000000000000000e+00  2.7419560293961601e-04 1.1673265843058911e-02 0.0000000000000000e+00  2.5319476124308771e-04 1.1766335384869393e-02 0.0000000000000000e+00  2.3464564596591966e-04 1.1853386176967849e-02 0.0000000000000000e+00  2.1849809310025260e-04 1.1935302364029142e-02 0.0000000000000000e+00  2.0468142424894851e-04 1.2013010401667882e-02 0.0000000000000000e+00  1.9311603379367563e-04 1.2087465965065063e-02 0.0000000000000000e+00  1.8372031856637552e-04 1.2159644599427536e-02 0.0000000000000000e+00  1.7641325582983344e-04 1.2230535525148597e-02 0.0000000000000000e+00  1.7111286684317424e-04 1.2301137647752765e-02 0.0000000000000000e+00  1.6773092847803151e-04 1.2372457115593108e-02 0.0000000000000000e+00  1.6616422168734847e-04 1.2445506791666528e-02 0.0000000000000000e+00  1.6628236306784767e-04 1.2521309115515583e-02 0.0000000000000000e+00  1.6791214380880597e-04 1.2600904682054524e-02 0.0000000000000000e+