<?xml version="1.0"?>
<VTKFile type="UnstructuredGrid"  version="0.1"  >
<UnstructuredGrid>
<Piece  NumberOfPoints="640" NumberOfCells="1181">
<Points>
<DataArray  type="Float64"  NumberOfComponents="3"  format="ascii">2.973913043478261 0 0  2.990434782608696 0 0  2.990434782608696 0.01666666666666667 0  2.973913043478261 0.01666666666666667 0  3.006956521739131 0 0  3.006956521739131 0.01666666666666667 0  3.023478260869565 0 0  3.023478260869565 0.01666666666666667 0  3.04 0 0  3.04 0.01666666666666667 0  3.056521739130435 0 0  3.056521739130435 0.01666666666666667 0  3.073043478260869 0 0  3.073043478260869 0.01666666666666667 0  3.089565217391304 0 0  3.089565217391304 0.01666666666666667 0  3.106086956521739 0 0  3.106086956521739 0.01666666666666667 0  3.122608695652174 0 0  3.122608695652174 0.01666666666666667 0  3.139130434782609 0 0  3.139130434782609 0.01666666666666667 0  3.155652173913043 0 0  3.155652173913043 0.01666666666666667 0  3.172173913043478 0 0  3.172173913043478 0.01666666666666667 0  3.188695652173913 0 0  3.188695652173913 0.01666666666666667 0  3.205217391304347 0 0  3.205217391304347 0.01666666666666667 0  3.221739130434782 0 0  3.221739130434782 0.01666666666666667 0  3.238260869565217 0 0  3.238260869565217 0.01666666666666667 0  2.990434782608696 0.03333333333333333 0  2.973913043478261 0.03333333333333333 0  3.006956521739131 0.03333333333333333 0  3.023478260869565 0.03333333333333333 0  3.04 0.03333333333333333 0  3.056521739130435 0.03333333333333333 0  3.073043478260869 0.03333333333333333 0  3.089565217391304 0.03333333333333333 0  3.106086956521739 0.03333333333333333 0  3.122608695652174 0.03333333333333333 0  3.139130434782609 0.03333333333333333 0  3.155652173913043 0.03333333333333333 0  3.172173913043478 0.03333333333333333 0  3.188695652173913 0.03333333333333333 0  3.205217391304347 0.03333333333333333 0  3.221739130434782 0.03333333333333333 0  3.238260869565217 0.03333333333333333 0  3.254782608695652 0.03333333333333333 0  2.990434782608696 0.05 0  3.006956521739131 0.05 0  3.023478260869565 0.05 0  3.04 0.05 0  3.056521739130435 0.05 0  3.073043478260869 0.05 0  3.089565217391304 0.05 0  3.106086956521739 0.05 0  3.122608695652174 0.05 0  3.139130434782609 0.05 0  3.155652173913043 0.05 0  3.172173913043478 0.05 0  3.188695652173913 0.05 0  3.205217391304347 0.05 0  3.221739130434782 0.05 0  3.238260869565217 0.05 0  3.254782608695652 0.05 0  3.271304347826087 0.05 0  3.006956521739131 0.06666666666666667 0  2.990434782608696 0.06666666666666667 0  3.023478260869565 0.06666666666666667 0  3.04 0.06666666666666667 0  3.056521739130435 0.06666666666666667 0  3.073043478260869 0.06666666666666667 0  3.089565217391304 0.06666666666666667 0  3.106086956521739 0.06666666666666667 0  3.122608695652174 0.06666666666666667 0  3.139130434782609 0.06666666666666667 0  3.155652173913043 0.06666666666666667 0  3.172173913043478 0.06666666666666667 0  3.188695652173913 0.06666666666666667 0  3.205217391304347 0.06666666666666667 0  3.221739130434782 0.06666666666666667 0  3.238260869565217 0.06666666666666667 0  3.254782608695652 0.06666666666666667 0  3.271304347826087 0.06666666666666667 0  3.287826086956521 0.06666666666666667 0  3.006956521739131 0.08333333333333333 0  3.023478260869565 0.08333333333333333 0  3.04 0.08333333333333333 0  3.056521739130435 0.08333333333333333 0  3.073043478260869 0.08333333333333333 0  3.089565217391304 0.08333333333333333 0  3.106086956521739 0.08333333333333333 0  3.122608695652174 0.08333333333333333 0  3.139130434782609 0.08333333333333333 0  3.155652173913043 0.08333333333333333 0  3.172173913043478 0.08333333333333333 0  3.188695652173913 0.08333333333333333 0  3.205217391304347 0.08333333333333333 0  3.221739130434782 0.08333333333333333 0  3.238260869565217 0.08333333333333333 0  3.254782608695652 0.08333333333333333 0  3.271304347826087 0.08333333333333333 0  3.287826086956521 0.08333333333333333 0  3.304347826086957 0.08333333333333333 0  3.023478260869565 0.1 0  3.006956521739131 0.1 0  3.04 0.1 0  3.056521739130435 0.1 0  3.073043478260869 0.1 0  3.089565217391304 0.1 0  3.106086956521739 0.1 0  3.122608695652174 0.1 0  3.139130434782609 0.1 0  3.155652173913043 0.1 0  3.172173913043478 0.1 0  3.188695652173913 0.1 0  3.205217391304347 0.1 0  3.221739130434782 0.1 0  3.238260869565217 0.1 0  3.254782608695652 0.1 0  3.271304347826087 0.1 0  3.287826086956521 0.1 0  3.304347826086957 0.1 0  3.320869565217391 0.1 0  3.023478260869565 0.1166666666666667 0  3.04 0.1166666666666667 0  3.056521739130435 0.1166666666666667 0  3.073043478260869 0.1166666666666667 0  3.089565217391304 0.1166666666666667 0  3.106086956521739 0.1166666666666667 0  3.122608695652174 0.1166666666666667 0  3.139130434782609 0.1166666666666667 0  3.155652173913043 0.1166666666666667 0  3.172173913043478 0.1166666666666667 0  3.188695652173913 0.1166666666666667 0  3.205217391304347 0.1166666666666667 0  3.221739130434782 0.1166666666666667 0  3.238260869565217 0.1166666666666667 0  3.254782608695652 0.1166666666666667 0  3.271304347826087 0.1166666666666667 0  3.287826086956521 0.1166666666666667 0  3.304347826086957 0.1166666666666667 0  3.320869565217391 0.1166666666666667 0  3.337391304347826 0.1166666666666667 0  3.04 0.1333333333333333 0  3.023478260869565 0.1333333333333333 0  3.056521739130435 0.1333333333333333 0  3.073043478260869 0.1333333333333333 0  3.089565217391304 0.1333333333333333 0  3.106086956521739 0.1333333333333333 0  3.122608695652174 0.1333333333333333 0  3.139130434782609 0.1333333333333333 0  3.155652173913043 0.1333333333333333 0  3.172173913043478 0.1333333333333333 0  3.188695652173913 0.1333333333333333 0  3.205217391304347 0.1333333333333333 0  3.221739130434782 0.1333333333333333 0  3.238260869565217 0.1333333333333333 0  3.254782608695652 0.1333333333333333 0  3.271304347826087 0.1333333333333333 0  3.287826086956521 0.1333333333333333 0  3.304347826086957 0.1333333333333333 0  3.320869565217391 0.1333333333333333 0  3.337391304347826 0.1333333333333333 0  3.353913043478261 0.1333333333333333 0  3.04 0.15 0  3.056521739130435 0.15 0  3.073043478260869 0.15 0  3.089565217391304 0.15 0  3.106086956521739 0.15 0  3.122608695652174 0.15 0  3.139130434782609 0.15 0  3.155652173913043 0.15 0  3.172173913043478 0.15 0  3.188695652173913 0.15 0  3.205217391304347 0.15 0  3.221739130434782 0.15 0  3.238260869565217 0.15 0  3.254782608695652 0.15 0  3.271304347826087 0.15 0  3.287826086956521 0.15 0  3.304347826086957 0.15 0  3.320869565217391 0.15 0  3.337391304347826 0.15 0  3.353913043478261 0.15 0  3.370434782608696 0.15 0  3.056521739130435 0.1666666666666667 0  3.073043478260869 0.1666666666666667 0  3.089565217391304 0.1666666666666667 0  3.106086956521739 0.1666666666666667 0  3.122608695652174 0.1666666666666667 0  3.139130434782609 0.1666666666666667 0  3.155652173913043 0.1666666666666667 0  3.172173913043478 0.1666666666666667 0  3.188695652173913 0.1666666666666667 0  3.205217391304347 0.1666666666666667 0  3.221739130434782 0.1666666666666667 0  3.238260869565217 0.1666666666666667 0  3.254782608695652 0.1666666666666667 0  3.271304347826087 0.1666666666666667 0  3.287826086956521 0.1666666666666667 0  3.304347826086957 0.1666666666666667 0  3.320869565217391 0.1666666666666667 0  3.337391304347826 0.1666666666666667 0  3.353913043478261 0.1666666666666667 0  3.370434782608696 0.1666666666666667 0  3.386956521739131 0.1666666666666667 0  3.073043478260869 0.1833333333333333 0  3.089565217391304 0.1833333333333333 0  3.106086956521739 0.1833333333333333 0  3.122608695652174 0.1833333333333333 0  3.139130434782609 0.1833333333333333 0  3.155652173913043 0.1833333333333333 0  3.172173913043478 0.1833333333333333 0  3.188695652173913 0.1833333333333333 0  3.205217391304347 0.1833333333333333 0  3.221739130434782 0.1833333333333333 0  3.238260869565217 0.1833333333333333 0  3.254782608695652 0.1833333333333333 0  3.271304347826087 0.1833333333333333 0  3.287826086956521 0.1833333333333333 0  3.304347826086957 0.1833333333333333 0  3.320869565217391 0.1833333333333333 0  3.337391304347826 0.1833333333333333 0  3.353913043478261 0.1833333333333333 0  3.370434782608696 0.1833333333333333 0  3.386956521739131 0.1833333333333333 0  3.403478260869565 0.1833333333333333 0  3.089565217391304 0.2 0  3.106086956521739 0.2 0  3.122608695652174 0.2 0  3.139130434782609 0.2 0  3.155652173913043 0.2 0  3.172173913043478 0.2 0  3.188695652173913 0.2 0  3.205217391304347 0.2 0  3.221739130434782 0.2 0  3.238260869565217 0.2 0  3.254782608695652 0.2 0  3.271304347826087 0.2 0  3.287826086956521 0.2 0  3.304347826086957 0.2 0  3.320869565217391 0.2 0  3.337391304347826 0.2 0  3.353913043478261 0.2 0  3.370434782608696 0.2 0  3.386956521739131 0.2 0  3.403478260869565 0.2 0  3.419999999999999 0.2 0  3.106086956521739 0.2166666666666667 0  3.122608695652174 0.2166666666666667 0  3.139130434782609 0.2166666666666667 0  3.155652173913043 0.2166666666666667 0  3.172173913043478 0.2166666666666667 0  3.188695652173913 0.2166666666666667 0  3.205217391304347 0.2166666666666667 0  3.221739130434782 0.2166666666666667 0  3.238260869565217 0.2166666666666667 0  3.254782608695652 0.2166666666666667 0  3.271304347826087 0.2166666666666667 0  3.287826086956521 0.2166666666666667 0  3.304347826086957 0.2166666666666667 0  3.320869565217391 0.2166666666666667 0  3.337391304347826 0.2166666666666667 0  3.353913043478261 0.2166666666666667 0  3.370434782608696 0.2166666666666667 0  3.386956521739131 0.2166666666666667 0  3.403478260869565 0.2166666666666667 0  3.419999999999999 0.2166666666666667 0  3.436521739130435 0.2166666666666667 0  3.122608695652174 0.2333333333333333 0  3.139130434782609 0.2333333333333333 0  3.155652173913043 0.2333333333333333 0  3.172173913043478 0.2333333333333333 0  3.188695652173913 0.2333333333333333 0  3.205217391304347 0.2333333333333333 0  3.221739130434782 0.2333333333333333 0  3.238260869565217 0.2333333333333333 0  3.254782
[...]
<PointData  Vectors="Displacement"> 
<DataArray  type="Float64"  Name="Displacement"  NumberOfComponents="3" format="ascii">6.3117797358677947e-04 9.8546515578013423e-03 0.0000000000000000e+00  6.3446489151683871e-04 9.8259808638913402e-03 0.0000000000000000e+00  6.6523901799851097e-04 9.8245527293672908e-03 0.0000000000000000e+00  6.4372165515372607e-04 9.8527528973738829e-03 0.0000000000000000e+00  6.3616645973228812e-04 9.7895297466976360e-03 0.0000000000000000e+00  6.7387040286462038e-04 9.7890557107356106e-03 0.0000000000000000e+00  6.3746353315887827e-04 9.7518778565384677e-03 0.0000000000000000e+00  6.7569953340336129e-04 9.7514948174074311e-03 0.0000000000000000e+00  6.3865461797071085e-04 9.7138767976441432e-03 0.0000000000000000e+00  6.7697530088201658e-04 9.7135763248247329e-03 0.0000000000000000e+00  6.3981100781178443e-04 9.6760357640892393e-03 0.0000000000000000e+00  6.7778127667056886e-04 9.6757210090320806e-03 0.0000000000000000e+00  6.4095162512594239e-04 9.6386177879167392e-03 0.0000000000000000e+00  6.7850543734421058e-04 9.6383162916473131e-03 0.0000000000000000e+00  6.4210609001507334e-04 9.6015821694778302e-03 0.0000000000000000e+00  6.7922555420709817e-04 9.6012592036432681e-03 0.0000000000000000e+00  6.4331692039031844e-04 9.5649743884770183e-03 0.0000000000000000e+00  6.8000809082506130e-04 9.5645911205516389e-03 0.0000000000000000e+00  6.4447938563044424e-04 9.5290008935631741e-03 0.0000000000000000e+00  6.8081316210811291e-04 9.5286089016984182e-03 0.0000000000000000e+00  6.4535574899321436e-04 9.4935614914024302e-03 0.0000000000000000e+00  6.8157503296765922e-04 9.4932897785814530e-03 0.0000000000000000e+00  6.4567700912425570e-04 9.4581417463587385e-03 0.0000000000000000e+00  6.8210206997702675e-04 9.4582337680036727e-03 0.0000000000000000e+00  6.4588198016920996e-04 9.4230500138779757e-03 0.0000000000000000e+00  6.8210267463525865e-04 9.4232585525136515e-03 0.0000000000000000e+00  7.2141468701127066e-04 9.4310406436902017e-03 0.0000000000000000e+00  7.2668557094003247e-04 9.4123782336891278e-03 0.0000000000000000e+00  7.8855426936145199e-04 9.4393133869412962e-03 0.0000000000000000e+00  7.7852148997733692e-04 9.4199257661290205e-03 0.0000000000000000e+00  8.5294857070014477e-04 9.4584471500276986e-03 0.0000000000000000e+00  8.2992560514081617e-04 9.4394380151448399e-03 0.0000000000000000e+00  9.1552381803485232e-04 9.4895445402870503e-03 0.0000000000000000e+00  8.8008694823127754e-04 9.4709847698743136e-03 0.0000000000000000e+00  7.2410321013791209e-04 9.8265882632215112e-03 0.0000000000000000e+00  7.1872542248043435e-04 9.8483577877002647e-03 0.0000000000000000e+00  7.2331469589832699e-04 9.7968359500090526e-03 0.0000000000000000e+00  7.1370273497012055e-04 9.7509017559537520e-03 0.0000000000000000e+00  7.1563582341984116e-04 9.7133955858819451e-03 0.0000000000000000e+00  7.1597822285978925e-04 9.6755652065296203e-03 0.0000000000000000e+00  7.1612093362644438e-04 9.6381965901884206e-03 0.0000000000000000e+00  7.1636219473553988e-04 9.6010769044784748e-03 0.0000000000000000e+00  7.1676433274676140e-04 9.5642237606239425e-03 0.0000000000000000e+00  7.1725318751528384e-04 9.5281684852761301e-03 0.0000000000000000e+00  7.1784288190173458e-04 9.4928830349435295e-03 0.0000000000000000e+00  7.1861957158686810e-04 9.4583707032526772e-03 0.0000000000000000e+00  7.1937388168020946e-04 9.4248761923963215e-03 0.0000000000000000e+00  7.3317159840205828e-04 9.4024586450623671e-03 0.0000000000000000e+00  7.7116250381643046e-04 9.4056585425099735e-03 0.0000000000000000e+00  8.1044408221059121e-04 9.4245355806023764e-03 0.0000000000000000e+00  8.4912068253495583e-04 9.4559372529453723e-03 0.0000000000000000e+00  8.8635938887896568e-04 9.5008459455134097e-03 0.0000000000000000e+00  7.9074019114325060e-04 9.8383676258711177e-03 0.0000000000000000e+00  7.8515471706019533e-04 9.8131295143160224e-03 0.0000000000000000e+00  7.7604394839555048e-04 9.7758466362198419e-03 0.0000000000000000e+00  7.6483417961879818e-04 9.7324436386672011e-03 0.0000000000000000e+00  7.5352125246813889e-04 9.6755535263482201e-03 0.0000000000000000e+00  7.5349416912823535e-04 9.6382918722589025e-03 0.0000000000000000e+00  7.5342297721020014e-04 9.6010790034265214e-03 0.0000000000000000e+00  7.5348331103081351e-04 9.5638761365776960e-03 0.0000000000000000e+00  7.5348280552356233e-04 9.5277800493233228e-03 0.0000000000000000e+00  7.5345132679875248e-04 9.4924718641371947e-03 0.0000000000000000e+00  7.5362762767066912e-04 9.4580171194418028e-03 0.0000000000000000e+00  7.5457573713351802e-04 9.4255782026708371e-03 0.0000000000000000e+00  7.5720800221582658e-04 9.4006254775876857e-03 0.0000000000000000e+00  7.6368310299597256e-04 9.3935997386373725e-03 0.0000000000000000e+00  7.9429201981614725e-04 9.4130289033467797e-03 0.0000000000000000e+00  8.2223766432983287e-04 9.4435759053463717e-03 0.0000000000000000e+00  8.4922470804630874e-04 9.4889139324914711e-03 0.0000000000000000e+00  8.7480545877693884e-04 9.5468915573064840e-03 0.0000000000000000e+00  8.4817455321970750e-04 9.8366331583754265e-03 0.0000000000000000e+00  8.5861533141590673e-04 9.8573463269354678e-03 0.0000000000000000e+00  8.3460663340063565e-04 9.8043531223705790e-03 0.0000000000000000e+00  8.1849744433260972e-04 9.7624408010303469e-03 0.0000000000000000e+00  8.0139178555267774e-04 9.7073011263939402e-03 0.0000000000000000e+00  7.9089919122054999e-04 9.6392087935451912e-03 0.0000000000000000e+00  7.9069227367082576e-04 9.6012734465031630e-03 0.0000000000000000e+00  7.9048146770914875e-04 9.5635564650687985e-03 0.0000000000000000e+00  7.8961454624544981e-04 9.5277158499415069e-03 0.0000000000000000e+00  7.8830484991432661e-04 9.4926402603092395e-03 0.0000000000000000e+00  7.8650162031087569e-04 9.4583330023139626e-03 0.0000000000000000e+00  7.8398649493416556e-04 9.4256274073209780e-03 0.0000000000000000e+00  7.8228025167787602e-04 9.4009385424230832e-03 0.0000000000000000e+00  7.8421264639146309e-04 9.3950984758428297e-03 0.0000000000000000e+00  7.9133592641482679e-04 9.4077866090773125e-03 0.0000000000000000e+00  7.9797812297169985e-04 9.4326820113265625e-03 0.0000000000000000e+00  8.1628814838869269e-04 9.4791627904226138e-03 0.0000000000000000e+00  8.3277224669538728e-04 9.5367847275932196e-03 0.0000000000000000e+00  8.4894391369782064e-04 9.6064706363421064e-03 0.0000000000000000e+00  9.1191452041816364e-04 9.8675417631772233e-03 0.0000000000000000e+00  8.9288106612783974e-04 9.8395049843719613e-03 0.0000000000000000e+00  8.7120656509714098e-04 9.8005876732896943e-03 0.0000000000000000e+00  8.4814676376510924e-04 9.7479334711160319e-03 0.0000000000000000e+00  8.3012274222771633e-04 9.6591414899638971e-03 0.0000000000000000e+00  8.3021246025470868e-04 9.6014462636298537e-03 0.0000000000000000e+00  8.2994659395893263e-04 9.5626576590986858e-03 0.0000000000000000e+00  8.2856309786509801e-04 9.5272657084844309e-03 0.0000000000000000e+00  8.2519610454061850e-04 9.4928735269412742e-03 0.0000000000000000e+00  8.2111487571917931e-04 9.4589440692184092e-03 0.0000000000000000e+00  8.1471284281104458e-04 9.4267292925071505e-03 0.0000000000000000e+00  7.8973736363722633e-04 9.4023663843991866e-03 0.0000000000000000e+00  7.8284081412558057e-04 9.3953404701074619e-03 0.0000000000000000e+00  7.8216563352708933e-04 9.4067831897991817e-03 0.0000000000000000e+00  7.8477009578917559e-04 9.4335722349908630e-03 0.0000000000000000e+00  7.8925236118216149e-04 9.4720932324548410e-03 0.0000000000000000e+00  7.9509530244559017e-04 9.5282186566230248e-03 0.0000000000000000e+00  8.0350875731784828e-04 9.5948572822003673e-03 0.0000000000000000e+00  8.1124449795183604e-04 9.6817537972784390e-03 0.0000000000000000e+00  9.5257455558136908e-04 9.8831503600185951e-03 0.0000000000000000e+00  9.7720269545108597e-04 9.9061574078652074e-03 0.0000000000000000e+00  9.2210181399005834e-04 9.8465851709477661e-03 0.0000000000000000e+00  8.9516331440917137e-04 9.7969504404641829e-03 0.0000000000000000e+00  8.9482533840134029e-04 9.6901343238324292e-03 0.0000000000000000e+00  8.8903642142477469e-04 9.5996895911387194e-03 0.0000000000000000e+00  8.8489215916643684e-04 9.5569050859849892e-03 0.0000000000000000e+00  8.9601547636649790e-04 9.5363228090314094e-03 0.0000000000000000e+00  8.8750053574049119e-04 9.5206622622929209e-03 0.0000000000000000e+00  8.6811715521972559e-04 9.5006188969652666e-03 0.0000000000000000e+00  8.4178596327915735e-04 9.4786587858718269e-03 0.0000000000000000e+00  8.0827531282105423e-04 9.4551710854593012e-03 0.0000000000000000e+00  7.6212754383757364e-04 9.3946603011577767e-03 0.0000000000000000e+00  7.5825516826476052e-04 9.4076754982494043e-03 0.0000000000000000e+00  7.5528337003021029e-04 9.4333964468274918e-03 0.0000000000000000e+00  7.5552605916225795e-04 9.4719420663572709e-03 0.0000000000000000e+00  7.5838357145907749e-04 9.5221041216337066e-03 0.0000000000000000e+00  7.6090598473710705e-04 9.5810784393889625e-03 0.0000000000000000e+00  7.6226681144906890e-04 9.6702494899225597e-03 0.0000000000000000e+00  7.6088922824891863e-04 9.7767234117670885e-03 0.0000000000000000e+00  1.0254167396123394e-03 9.9285969872969365e-03 0.0000000000000000e+00  1.0089483998178682e-03 9.8916016467961495e-03 0.0000000000000000e+00  1.0070162420519042e-03 9.7929855786652933e-03 0.0000000000000000e+00  1.0051390197930287e-03 9.6896888441197274e-03 0.0000000000000000e+00  1.0020658675469604e-03 9.5923129647700507e-03 0.0000000000000000e+00  1.0036083051090539e-03 9.4877139186710611e-03 0.0000000000000000e+00  9.8433577580949458e-04 9.5485516761177353e-03 0.0000000000000000e+00  9.4955642749314489e-04 9.5574961007675787e-03 0.0000000000000000e+00  9.1280873415457153e-04 9.5519430970124417e-03 0.0000000000000000e+00  8.7495947634589016e-04 9.5394836924781005e-03 0.0000000000000000e+00  8.3641007384778249e-04 9.5214302750557672e-03 0.0000000000000000e+00  7.9631337401859180e-04 9.4887991534637634e-03 0.0000000000000000e+00  7.5482466577734240e-04 9.4737115572053696e-03 0.0000000000000000e+00  7.1299339973495150e-04 9.4338047109707879e-03 0.0000000000000000e+00  7.0935587412388639e-04 9.4725825711184392e-03 0.0000000000000000e+00  7.0777715346018828e-04 9.5217931746865731e-03 0.0000000000000000e+00  7.0879223481492854e-04 9.5825129474664539e-03 0.0000000000000000e+00  7.1299422085151047e-04 9.6565631839338490e-03 0.0000000000000000e+00  7.0691100044387634e-04 9.7693651712706907e-03 0.0000000000000000e+00  6.9976104861301110e-04 9.8846555292223092e-03 0.0000000000000000e+00  1.1179650737011587e-03 9.8873442604548913e-03 0.0000000000000000e+00  1.1222073447698651e-03 9.9750636178980601e-03 0.0000000000000000e+00  1.1160134275515206e-03 9.7914779066540295e-03 0.0000000000000000e+00  1.1151605759349040e-03 9.6891005638340844e-03 0.0000000000000000e+00  1.1147997300250557e-03 9.5834096578762511e-03 0.0000000000000000e+00  1.0814757217864784e-03 9.5575909136298865e-03 0.0000000000000000e+00  1.0280492959315380e-03 9.5916402469900467e-03 0.0000000000000000e+00  9.8440384378980345e-04 9.6107621510138960e-03 0.0000000000000000e+00  9.3966467132734440e-04 9.6137506150054883e-03 0.0000000000000000e+00  8.9494448040187914e-04 9.6079563716255922e-03 0.0000000000000000e+00  8.5079784359990513e-04 9.5956985427658043e-03 0.0000000000000000e+00  8.0667804597943729e-04 9.5760573986600084e-03 0.0000000000000000e+00  7.6182140065854159e-04 9.5611049214855363e-03 0.0000000000000000e+00  7.1916558533195263e-04 9.5399265541795397e-03 0.0000000000000000e+00  6.7886005608645654e-04 9.5411334533076434e-03 0.0000000000000000e+00  6.4608801837559300e-04 9.5225078657256521e-03 0.0000000000000000e+00  6.4273749843879620e-04 9.5828806661465860e-03 0.0000000000000000e+00  6.4296888298807453e-04 9.6565014981897720e-03 0.0000000000000000e+00  6.4671691749412991e-04 9.7599785354037533e-03 0.0000000000000000e+00  6.4991678047508501e-04 9.8764158360361998e-03 0.0000000000000000e+00  6.2558315504509111e-04 1.0016010248773348e-02 0.0000000000000000e+00  1.2193737939779634e-03 9.8855599083185388e-03 0.0000000000000000e+00  1.2187762494416915e-03 9.7910918750710434e-03 0.0000000000000000e+00  1.2187613224479480e-03 9.6894132279234362e-03 0.0000000000000000e+00  1.2175555095347980e-03 9.5905628060517067e-03 0.0000000000000000e+00  1.1440722856904300e-03 9.6258550925624378e-03 0.0000000000000000e+00  1.0694733948388680e-03 9.6573647245783763e-03 0.0000000000000000e+00  1.0076674987248664e-03 9.6758871284636349e-03 0.0000000000000000e+00  9.5283595184347770e-04 9.6835857233497098e-03 0.0000000000000000e+00  9.0110041473311466e-04 9.6828600812108832e-03 0.0000000000000000e+00  8.5122076088664262e-04 9.6760088757873470e-03 0.0000000000000000e+00  8.0218866848296192e-04 9.6644382205343000e-03 0.0000000000000000e+00  7.5324295053560237e-04 9.6535668857324116e-03 0.0000000000000000e+00  7.0517144338207182e-04 9.6411321369807308e-03 0.0000000000000000e+00  6.5759622220643314e-04 9.6366212991760482e-03 0.0000000000000000e+00  6.1222488636212993e-04 9.6228238030574426e-03 0.0000000000000000e+00  5.5746011241149132e-04 9.5905117481616536e-03 0.0000000000000000e+00  5.4707978326230973e-04 9.6584180258044664e-03 0.0000000000000000e+00  5.4337704288892424e-04 9.7599126508874177e-03 0.0000000000000000e+00  5.4489407962149828e-04 9.8794149124870560e-03 0.0000000000000000e+00  5.4823524729573304e-04 1.0013401856399784e-02 0.0000000000000000e+00  5.2158626471847911e-04 1.0177247607742907e-02 0.0000000000000000e+00  1.3139702982029372e-03 9.7913895339228479e-03 0.0000000000000000e+00  1.3150664013688563e-03 9.6922330961841264e-03 0.0000000000000000e+00  1.2411791359637386e-03 9.6786635125573374e-03 0.0000000000000000e+00  1.1534886953590154e-03 9.7095746404868150e-03 0.0000000000000000e+00  1.0768154275482313e-03 9.7364721564141346e-03 0.0000000000000000e+00  1.0094821615874278e-03 9.7527613162180782e-03 0.0000000000000000e+00  9.4878320774083606e-04 9.7613222766958687e-03 0.0000000000000000e+00  8.9214497152207816e-04 9.7636961462587418e-03 0.0000000000000000e+00  8.3781989542821222e-04 9.7612383800008123e-03 0.0000000000000000e+00  7.8465161243396490e-04 9.7554962945360906e-03 0.0000000000000000e+00  7.3192556056011972e-04 9.7493238896278756e-03 0.0000000000000000e+00  6.7970839155491729e-04 9.7428788449859752e-03 0.0000000000000000e+00  6.2788204984035392e-04 9.7395733691145042e-03 0.0000000000000000e+00  5.7696537585978506e-04 9.7332470822011838e-03 0.0000000000000000e+00  5.2348360568069932e-04 9.7260003366502583e-03 0.0000000000000000e+00  4.6991583625653093e-04 9.7526504651377875e-03 0.0000000000000000e+00  4.2125919578299653e-04 9.7600443962209248e-03 0.0000000000000000e+00  4.2020514266256361e-04 9.8800749849637017e-03 0.0000000000000000e+00  4.2179605665076925e-04 1.0014984186253375e-02 0.0000000000000000e+00  4.2739088119544922e-04 1.0180528106694498e-02 0.0000000000000000e+00  4.0546527860808987e-04 1.0365375059879557e-02 0.0000000000000000e+00  1.3214278933338151e-03 9.7692304660878231e-03 0.0000000000000000e+00  1.2287905387047039e-03 9.7763487868896860e-03 0.0000000000000000e+00  1.1399981731696918e-03 9.7998240252837356e-03 0.0000000000000000e+00  1.0621435468546638e-03 9.8205561693363499e-03 0.0000000000000000e+00  9.9282951954058891e-04 9.8351073754915867e-03 0.0000000000000000e+00  9.2919888834107399e-04 9.8442181010973458e-03 0.0000000000000000e+00  8.6933467259548108e-04 9.8489220730760361e-03 0.0000000000000000e+00  8.1173517431567415e-04 9.8501845420771467e-03 0.0000000000000000e+00  7.5526963424348101e-04 9.8492075215479459e-03 0.0000000000000000e+00  6.9920710960519274e-04 9.8476950695685263e-03 0.0000000000000000e+00  6.4325355696067386e-04 9.8463940931933416e-03 0.0000000000000000e+00  5.8710928896080368e-04 9.8468913104622097e-03 0.0000000000000000e+00  5.3049769441750375e-04 9.8476446713219711e-03 0.0000000000000000e+00  4.7164790219505028e-04 9.8519032110559422e-03 0.0000000000000000e+00  4.1092434105772174e-04 9.8715859547720448e-03 0.0000000000000000e+00  3.5137756296667414e-04 9.8871862756417413e-03 0.0000000000000000e+00  2.8264571309858901e-04 9.8986957860375362e-03 0.0000000000000000e+00  2.6695878796621927e-04 1.0017040568476005e-02 0.0000000000000000e+00  2.6682282391563407e-04 1.0180786948195472e-02 0.0000000000000000e+00  2.6933066309163799e-04 1.0377829606781895e-02 0.0000000000000000e+00  2.7129718398551133e-04 1.0580648679434718e-02 0.0000000000000000e+00  1.1902213048413908e-03 9.8735035771702409e-03 0.0000000000000000e+00  1.1051361334114625e-03 9.8907737107179396e-03 0.0000000000000000e+00  1.0290835414560873e-03 9.9071027004709374e-03 0.0000000000000000e+00  9.5989124096959350e-04 9.9202732328869739e-03 0.0000000000000000e+00  8.9536398833513686e-04 9.9301444595155369e-03 0.0000000000000000e+00  8.3387515096145057e-04 9.9371046145052058e-03 0.0000000000000000e+00  7.7418467511515153e-04 9.9417995629335221e-03 0.0000000000000000e+00  7.1531283132313095e-04 9.9451135256113342e-03 0.0000000000000000e+00  6.5654831840672554e-04 9.9481749882551294e-03 0.0000000000000000e+00  5.9742938091408989e-04 9.9518114407551126e-03 0.0000000000000000e+00  5.3752303521126114e-04 9.9571009036958733e-03 0.0000000000000000e+00  4.7634795975761449e-04 9.9642719380997804e-03 0.0000000000000000e+00  4.1298308994793209e-04 9.9759138095042929e-03 0.0000000000000000e+00  3.4759262615645956e-04 9.9965967218562570e-03 0.0000000000000000e+00  2.8123820909167053e-04 1.0019929012902032e-02 0.0000000000000000e+00  2.1085600968987766e-04 1.0051356128651455e-02 0.0000000000000000e+00  1.4036606438797526e-04 1.0122433115575208e-02 0.0000000000000000e+00  7.3223392146246316e-05 1.0182195830454916e-02 0.0000000000000000e+00  7.3422397633641091e-05 1.0378819683842983e-02 0.0000000000000000e+00  7.5202916928656093e-05 1.0582874193274926e-02 0.0000000000000000e+00  7.7044983258741439e-05 1.0790557238599310e-02 0.0000000000000000e+00  1.0512266349486008e-03 9.9792304192466274e-03 0.0000000000000000e+00  9.7985586440255232e-04 9.9933843633583253e-03 0.0000000000000000e+00  9.1286131808148026e-04 1.0006292195667116e-02 0.0000000000000000e+00  8.4902219031914158e-04 1.0017464944002519e-02 0.0000000000000000e+00  7.8723226078795895e-04 1.0026937709757263e-02 0.0000000000000000e+00  7.2654775858525182e-04 1.0035089901320232e-02 0.0000000000000000e+00  6.6617573095967492e-04 1.0042561623957034e-02 0.0000000000000000e+00  6.0547660368872832e-04 1.0050175365539147e-02 0.0000000000000000e+00  5.4394221542666788e-04 1.0058715665012307e-02 0.0000000000000000e+00  4.8108828205700407e-04 1.0069110087471956e-02 0.0000000000000000e+00  4.1639769769437622e-04 1.0082178068033170e-02 0.0000000000000000e+00  3.4923958402042408e-04 1.0099839205953882e-02 0.0000000000000000e+00  2.7942929382577760e-04 1.0124356622056291e-02 0.0000000000000000e+00  2.0685289241410663e-04 1.0154438898243658e-02 0.0000000000000000e+00  1.2978258679663702e-04 1.0194594623142254e-02 0.0000000000000000e+00  4.8734561534538362e-05 1.0255353081970770e-02 0.0000000000000000e+00  -3.4133182785926965e-05 1.0317314882838657e-02 0.0000000000000000e+00  -1.2859662148924540e-04 1.0379832851092482e-02 0.0000000000000000e+00  -1.2771895900651233e-04 1.0583852600400121e-02 0.0000000000000000e+00  -1.2549478933040318e-04 1.0792220223992521e-02 0.0000000000000000e+00  -1.2356874928096806e-04 1.1001394638740036e-02 0.0000000000000000e+00  9.1829699411714448e-04 1.0077489604458589e-02 0.0000000000000000e+00  8.5437583136127376e-04 1.0091611328345145e-02 0.0000000000000000e+00  7.9218886361612716e-04 1.0104914884033939e-02 0.0000000000000000e+00  7.3105264344836343e-04 1.0117347560192202e-02 0.0000000000000000e+00  6.7029188924826297e-04 1.0129158264720437e-02 0.0000000000000000e+00  6.0928590943854898e-04 1.0140832973467465e-02 0.0000000000000000e+00  5.4748821068689724e-04 1.0153024433329721e-02 0.0000000000000000e+00  4.8441646606546882e-04 1.0166454638774131e-02 0.0000000000000000e+00  4.1960483900489775e-04 1.0181979665403563e-02 0.0000000000000000e+00  3.5257940339273848e-04 1.0200557321120128e-02 0.0000000000000