<?xml version="1.0"?>
<VTKFile type="UnstructuredGrid"  version="0.1"  >
<UnstructuredGrid>
<Piece  NumberOfPoints="639" NumberOfCells="1175">
<Points>
<DataArray  type="Float64"  NumberOfComponents="3"  format="ascii">1.321739130434783 0 0  1.338260869565217 0 0  1.338260869565217 0.01666666666666667 0  1.354782608695652 0 0  1.354782608695652 0.01666666666666667 0  1.371304347826087 0 0  1.371304347826087 0.01666666666666667 0  1.387826086956522 0 0  1.387826086956522 0.01666666666666667 0  1.404347826086957 0 0  1.404347826086957 0.01666666666666667 0  1.420869565217391 0 0  1.420869565217391 0.01666666666666667 0  1.437391304347826 0 0  1.437391304347826 0.01666666666666667 0  1.453913043478261 0 0  1.453913043478261 0.01666666666666667 0  1.470434782608696 0 0  1.470434782608696 0.01666666666666667 0  1.486956521739131 0 0  1.486956521739131 0.01666666666666667 0  1.503478260869565 0 0  1.503478260869565 0.01666666666666667 0  1.52 0 0  1.52 0.01666666666666667 0  1.536521739130435 0 0  1.536521739130435 0.01666666666666667 0  1.55304347826087 0 0  1.55304347826087 0.01666666666666667 0  1.569565217391304 0 0  1.569565217391304 0.01666666666666667 0  1.586086956521739 0 0  1.586086956521739 0.01666666666666667 0  1.602608695652174 0 0  1.602608695652174 0.01666666666666667 0  1.619130434782609 0 0  1.619130434782609 0.01666666666666667 0  1.635652173913043 0 0  1.635652173913043 0.01666666666666667 0  1.652173913043478 0 0  1.652173913043478 0.01666666666666667 0  1.668695652173913 0 0  1.668695652173913 0.01666666666666667 0  1.685217391304348 0 0  1.685217391304348 0.01666666666666667 0  1.701739130434782 0 0  1.701739130434782 0.01666666666666667 0  1.718260869565217 0 0  1.718260869565217 0.01666666666666667 0  1.734782608695652 0 0  1.734782608695652 0.01666666666666667 0  1.751304347826087 0 0  1.751304347826087 0.01666666666666667 0  1.767826086956522 0 0  1.767826086956522 0.01666666666666667 0  1.784347826086957 0 0  1.784347826086957 0.01666666666666667 0  1.800869565217391 0 0  1.800869565217391 0.01666666666666667 0  1.817391304347826 0 0  1.817391304347826 0.01666666666666667 0  1.833913043478261 0 0  1.833913043478261 0.01666666666666667 0  1.850434782608696 0 0  1.850434782608696 0.01666666666666667 0  1.86695652173913 0 0  1.86695652173913 0.01666666666666667 0  1.883478260869565 0 0  1.883478260869565 0.01666666666666667 0  1.354782608695652 0.03333333333333333 0  1.371304347826087 0.03333333333333333 0  1.387826086956522 0.03333333333333333 0  1.404347826086957 0.03333333333333333 0  1.420869565217391 0.03333333333333333 0  1.437391304347826 0.03333333333333333 0  1.453913043478261 0.03333333333333333 0  1.470434782608696 0.03333333333333333 0  1.486956521739131 0.03333333333333333 0  1.503478260869565 0.03333333333333333 0  1.52 0.03333333333333333 0  1.536521739130435 0.03333333333333333 0  1.55304347826087 0.03333333333333333 0  1.569565217391304 0.03333333333333333 0  1.586086956521739 0.03333333333333333 0  1.602608695652174 0.03333333333333333 0  1.619130434782609 0.03333333333333333 0  1.635652173913043 0.03333333333333333 0  1.652173913043478 0.03333333333333333 0  1.668695652173913 0.03333333333333333 0  1.685217391304348 0.03333333333333333 0  1.701739130434782 0.03333333333333333 0  1.718260869565217 0.03333333333333333 0  1.734782608695652 0.03333333333333333 0  1.751304347826087 0.03333333333333333 0  1.767826086956522 0.03333333333333333 0  1.784347826086957 0.03333333333333333 0  1.800869565217391 0.03333333333333333 0  1.817391304347826 0.03333333333333333 0  1.833913043478261 0.03333333333333333 0  1.850434782608696 0.03333333333333333 0  1.86695652173913 0.03333333333333333 0  1.883478260869565 0.03333333333333333 0  1.371304347826087 0.05 0  1.387826086956522 0.05 0  1.404347826086957 0.05 0  1.420869565217391 0.05 0  1.437391304347826 0.05 0  1.453913043478261 0.05 0  1.470434782608696 0.05 0  1.486956521739131 0.05 0  1.503478260869565 0.05 0  1.52 0.05 0  1.536521739130435 0.05 0  1.55304347826087 0.05 0  1.569565217391304 0.05 0  1.586086956521739 0.05 0  1.602608695652174 0.05 0  1.619130434782609 0.05 0  1.635652173913043 0.05 0  1.652173913043478 0.05 0  1.668695652173913 0.05 0  1.685217391304348 0.05 0  1.701739130434782 0.05 0  1.718260869565217 0.05 0  1.734782608695652 0.05 0  1.751304347826087 0.05 0  1.767826086956522 0.05 0  1.784347826086957 0.05 0  1.800869565217391 0.05 0  1.817391304347826 0.05 0  1.833913043478261 0.05 0  1.850434782608696 0.05 0  1.86695652173913 0.05 0  1.883478260869565 0.05 0  1.387826086956522 0.06666666666666667 0  1.404347826086957 0.06666666666666667 0  1.420869565217391 0.06666666666666667 0  1.437391304347826 0.06666666666666667 0  1.453913043478261 0.06666666666666667 0  1.470434782608696 0.06666666666666667 0  1.486956521739131 0.06666666666666667 0  1.503478260869565 0.06666666666666667 0  1.52 0.06666666666666667 0  1.536521739130435 0.06666666666666667 0  1.55304347826087 0.06666666666666667 0  1.569565217391304 0.06666666666666667 0  1.586086956521739 0.06666666666666667 0  1.602608695652174 0.06666666666666667 0  1.619130434782609 0.06666666666666667 0  1.635652173913043 0.06666666666666667 0  1.652173913043478 0.06666666666666667 0  1.668695652173913 0.06666666666666667 0  1.685217391304348 0.06666666666666667 0  1.701739130434782 0.06666666666666667 0  1.718260869565217 0.06666666666666667 0  1.734782608695652 0.06666666666666667 0  1.751304347826087 0.06666666666666667 0  1.767826086956522 0.06666666666666667 0  1.784347826086957 0.06666666666666667 0  1.800869565217391 0.06666666666666667 0  1.817391304347826 0.06666666666666667 0  1.833913043478261 0.06666666666666667 0  1.850434782608696 0.06666666666666667 0  1.86695652173913 0.06666666666666667 0  1.883478260869565 0.06666666666666667 0  1.404347826086957 0.08333333333333333 0  1.420869565217391 0.08333333333333333 0  1.437391304347826 0.08333333333333333 0  1.453913043478261 0.08333333333333333 0  1.470434782608696 0.08333333333333333 0  1.486956521739131 0.08333333333333333 0  1.503478260869565 0.08333333333333333 0  1.52 0.08333333333333333 0  1.536521739130435 0.08333333333333333 0  1.55304347826087 0.08333333333333333 0  1.569565217391304 0.08333333333333333 0  1.586086956521739 0.08333333333333333 0  1.602608695652174 0.08333333333333333 0  1.619130434782609 0.08333333333333333 0  1.635652173913043 0.08333333333333333 0  1.652173913043478 0.08333333333333333 0  1.668695652173913 0.08333333333333333 0  1.685217391304348 0.08333333333333333 0  1.701739130434782 0.08333333333333333 0  1.718260869565217 0.08333333333333333 0  1.734782608695652 0.08333333333333333 0  1.751304347826087 0.08333333333333333 0  1.767826086956522 0.08333333333333333 0  1.784347826086957 0.08333333333333333 0  1.800869565217391 0.08333333333333333 0  1.817391304347826 0.08333333333333333 0  1.833913043478261 0.08333333333333333 0  1.850434782608696 0.08333333333333333 0  1.86695652173913 0.08333333333333333 0  1.883478260869565 0.08333333333333333 0  1.420869565217391 0.1 0  1.437391304347826 0.1 0  1.453913043478261 0.1 0  1.470434782608696 0.1 0  1.486956521739131 0.1 0  1.503478260869565 0.1 0  1.52 0.1 0  1.536521739130435 0.1 0  1.55304347826087 0.1 0  1.569565217391304 0.1 0  1.586086956521739 0.1 0  1.602608695652174 0.1 0  1.619130434782609 0.1 0  1.635652173913043 0.1 0  1.652173913043478 0.1 0  1.668695652173913 0.1 0  1.685217391304348 0.1 0  1.701739130434782 0.1 0  1.718260869565217 0.1 0  1.734782608695652 0.1 0  1.751304347826087 0.1 0  1.767826086956522 0.1 0  1.784347826086957 0.1 0  1.800869565217391 0.1 0  1.817391304347826 0.1 0  1.833913043478261 0.1 0  1.850434782608696 0.1 0  1.86695652173913 0.1 0  1.883478260869565 0.1 0  1.437391304347826 0.1166666666666667 0  1.453913043478261 0.1166666666666667 0  1.470434782608696 0.1166666666666667 0  1.486956521739131 0.1166666666666667 0  1.503478260869565 0.1166666666666667 0  1.52 0.1166666666666667 0  1.536521739130435 0.1166666666666667 0  1.55304347826087 0.1166666666666667 0  1.569565217391304 0.1166666666666667 0  1.586086956521739 0.1166666666666667 0  1.602608695652174 0.1166666666666667 0  1.619130434782609 0.1166666666666667 0  1.635652173913043 0.1166666666666667 0  1.652173913043478 0.1166666666666667 0  1.668695652173913 0.1166666666666667 0  1.685217391304348 0.1166666666666667 0  1.701739130434782 0.1166666666666667 0  1.718260869565217 0.1166666666666667 0  1.734782608695652 0.1166666666666667 0  1.751304347826087 0.1166666666666667 0  1.767826086956522 0.1166666666666667 0  1.784347826086957 0.1166666666666667 0  1.800869565217391 0.1166666666666667 0  1.817391304347826 0.1166666666666667 0  1.833913043478261 0.1166666666666667 0  1.850434782608696 0.1166666666666667 0  1.86695652173913 0.1166666666666667 0  1.883478260869565 0.1166666666666667 0  1.453913043478261 0.1333333333333333 0  1.470434782608696 0.1333333333333333 0  1.486956521739131 0.1333333333333333 0  1.503478260869565 0.1333333333333333 0  1.52 0.1333333333333333 0  1.536521739130435 0.1333333333333333 0  1.55304347826087 0.1333333333333333 0  1.569565217391304 0.1333333333333333 0  1.586086956521739 0.1333333333333333 0  1.602608695652174 0.1333333333333333 0  1.619130434782609 0.1333333333333333 0  1.635652173913043 0.1333333333333333 0  1.652173913043478 0.1333333333333333 0  1.668695652173913 0.1333333333333333 0  1.685217391304348 0.1333333333333333 0  1.701739130434782 0.1333333333333333 0  1.718260869565217 0.1333333333333333 0  1.734782608695652 0.1333333333333333 0  1.751304347826087 0.1333333333333333 0  1.767826086956522 0.1333333333333333 0  1.784347826086957 0.1333333333333333 0  1.800869565217391 0.1333333333333333 0  1.817391304347826 0.1333333333333333 0  1.833913043478261 0.1333333333333333 0  1.850434782608696 0.1333333333333333 0  1.86695652173913 0.1333333333333333 0  1.883478260869565 0.1333333333333333 0  1.470434782608696 0.15 0  1.486956521739131 0.15 0  1.503478260869565 0.15 0  1.52 0.15 0  1.5365217391304
[...]
<CellData  Scalars="sigma_m"> 
<DataArray  type="Float64"  Name="sigma_m"  format="ascii">7.3366986306152316e+06   7.3278565666424083e+06   8.0741033621829553e+06   7.2950401475847233e+06   8.2708278588447310e+06   7.0618025183652192e+06   8.7827264645624626e+06   6.5812019965800596e+06   9.4823753128796928e+06   6.0784639733997323e+06   9.9835457342060599e+06   6.0537047471217355e+06   9.8412983018731326e+06   6.4526780556536382e+06   9.0115667087081186e+06   6.8532927333527002e+06   8.2011331711162906e+06   7.2904317407248085e+06   7.5271323663113890e+06   7.7825828504532613e+06   6.9784177816851418e+06   8.1885391761956010e+06   6.7248377151221419e+06   8.3288322607517168e+06   6.5699156001599412e+06   8.3655064669546867e+06   6.4407790498210955e+06   8.6604531709576845e+06   6.4624297902047448e+06   9.5207954840495046e+06   6.8201569306332972e+06   1.0925272546093088e+07   7.4686780775023159e+06   1.2612589757627122e+07   8.2027453854177510e+06   1.4219201173361480e+07   8.7862919963248987e+06   1.5519426839342393e+07   9.1168528053880669e+06   1.6595662576140288e+07   9.3352565958322547e+06   1.7025855138319876e+07   9.2832113632602487e+06   1.7247572807057444e+07   8.8533302229470033e+06   1.7660600211505175e+07   8.5846513512072694e+06   1.6987938221095923e+07   8.7956436370622665e+06   1.5495899969055008e+07   8.6295423393020928e+06   1.3633460703702636e+07   8.2087366091220966e+06   1.1589576305934589e+07   7.7770615575216673e+06   9.5218264188593701e+06   7.4311641115978025e+06   7.4285856710256794e+06   7.4174074807495167e+06   5.5481243688026285e+06   7.2188907968317997e+06   4.2725721345282691e+06   6.6891228186479835e+06   4.1124199958666442e+06   6.1031865656491434e+06   4.7707142256304147e+06   5.4433809235886913e+06   8.1198198361738632e+06   8.3394447579415971e+06   8.6740665252200235e+06   8.9311480545557123e+06   9.1757468114219308e+06   9.6677441248909514e+06   1.1877883612902481e+07   1.0165898555725489e+07   1.5145749483940698e+07   1.0003737418244837e+07   1.5579077711732961e+07   9.0703146373623610e+06   1.1203771639505712e+07   8.2151416147102658e+06   8.7147851009778120e+06   7.4692955014394522e+06   8.0351047507545874e+06   6.9107041574793654e+06   5.6330837521353625e+06   6.6758980719656916e+06   4.7528425224103089e+06   6.4443151633416386e+06   4.4532774161100602e+06   6.3184654275856661e+06   4.0318841295239381e+06   6.5347699044894651e+06   3.6733121797525771e+06   7.2240570856014835e+06   3.8539251271294868e+06   8.1396393707132889e+06   4.3186930922775185e+06   8.9477020038508233e+06   4.5385543713917285e+06   9.3605166109735556e+06   4.2090851262340182e+06   9.4031638247205075e+06   3.5086290059049162e+06   9.4117243675807118e+06   2.9715605086990078e+06   8.8021797031981107e+06   3.8262409943643142e+06   8.1719761915873298e+06   4.1092999456684105e+06   7.9713205435440438e+06   3.9562994888636717e+06   7.0412647891662354e+06   7.0586995398460208e+06   6.3791137868802203e+06   6.8547471878889427e+06   6.0603118921113471e+06   5.5918630570993451e+06   5.9840957742249873e+06   4.6502196056656782e+06   6.2946971044624392e+06   4.2888405466568833e+06   7.0699425623047305e+06   5.8373794617739096e+06   8.0425008650358729e+06   1.0193170184608452e+07   8.4584197599759679e+06   1.2260892259883981e+07   8.1957121886752620e+06   1.1620123503645847e+07   8.0675146465295227e+06   1.3755730633640874e+07   3.7284251307068020e+05   5.8843419755723982e+04   9.8292910581369881e+00   9.4411224109267005e+03   1.4601758892412420e+00   2.6479698464891894e+03   3.3661790572126882e-01   2.5152654007273604e+03   1.8790247806755875e-01   1.6656284528074972e+04   4.8703576564312040e-01   1.9407623557350393e+06   1.4574440413449780e+01   6.9359240355673861e+06   2.2984091257446948e+04   5.4096496420434657e+06   3.9416518708943352e+06   4.5566415241077226e+06   2.4737623379174224e+06   4.1581688704794855e+06   2.2853825858947905e+06   3.9113991271137325e+06   1.8480329055828254e+06   4.0765564003093480e+06   9.5151350500521506e+05   4.6861321494409945e+06   1.6176306448474594e+06   5.2607156424154928e+06   2.2176567705082390e+06   5.3818422707807757e+06   1.9472422699093323e+06   4.7086853977769362e+06   1.2119745694017299e+06   3.3646991082959967e+06   3.3118657472842997e+06   2.3578062898927131e+06   4.9556710345788840e+06   9.2560532927168824e+05   9.3544006655718368e+06   1.6711832788960775e+06   9.1262892043391392e+06   4.8315742772413054e+06   7.8065583321458427e+06   5.3619195707007246e+06   1.7753580637898467e+07   3.5924124395424719e+06   1.4745527472618956e+07   2.2722583878412168e+06   8.6242312459263075e+06   2.8763107289683699e+04   5.9820090567951702e+04   9.6147364944513328e+05   4.1691480489813608e+02   3.9768132048288338e+04   6.3531127788014707e+00   1.0128064132986652e+04   8.8134221422617254e-01   2.1623409912452833e+04   8.2480537809827192e-01   4.3629373997882783e+05   5.6544905486910082e+00   8.2923717934820848e+06   4.0363864418869946e+02   0.0000000000000000e+00   0.0000000000000000e+00   0.0000000000000000e+00   0.0000000000000000e+00   0.0000000000000000e+00   0.0000000000000000e+00   0.0000000000000000e+00   0.0000000000000000e+00   0.0000000000000000e+00   0.0000000000000000e+00   0.0000000000000000e+00   1.3715756817090389e-06   0.0000000000000000e+00   4.4385541804459289e-01   2.2054589607120843e-07   1.5671946055326893e+06   4.8658793108099457e-01   1.7266166703911240e+06   3.5407752073114197e+05   1.9013915082206156e+06   1.0281448823347325e+06   2.4546905114460294e+06   1.3920050591572106e+06   2.7131808528183005e+06   2.4187131461715042e+06   2.6568366597927054e+06   2.3309526952008856e+06   2.0564439387111866e+06   1.5651301106461897e+06   1.1499474967660843e+06   3.9749012909166589e+06   3.3539175831844495e+06   8.5185545741629601e+06   6.9651467958197305e+06   8.3186146354047647e+06   9.4191111035544593e+06   1.7005234918906830e+07   8.5280832665628325e+06   1.3988123573840398e+07   1.3493661907754098e+06   2.9040130946421364e+03   2.7523898934274651e+01   4.3392799307762873e-02   3.0696133793450802e-03   5.9119692278828664e-06   1.7317226015008169e-06   5.0816680147301309e-09   3.0992318618487982e-09   0.0000000000000000e+00   0.0000000000000000e+00   0.0000000000000000e+00   0.0000000000000000e+00   0.0000000000000000e+00   0.0000000000000000e+00   0.0000000000000000e+00   0.0000000000000000e+00   0.0000000000000000e+00   0.0000000000000000e+00   0.0000000000000000e+00   0.0000000000000000e+00   0.0000000000000000e+00   0.0000000000000000e+00   0.0000000000000000e+00   0.0000000000000000e+00   0.0000000000000000e+00   0.0000000000000000e+00   0.0000000000000000e+00   0.0000000000000000e+00   0.0000000000000000e+00   0.0000000000000000e+00   0.0000000000000000e+00   0.0000000000000000e+00   0.0000000000000000e+00   0.0000000000000000e+00   1.4368473572521567e-06   0.0000000000000000e+00   3.7318954668408634e+02   3.5625940552644068e-05   1.8756870467705845e+06   1.2573867788968548e+05   2.8244806863856963e+06   2.0004439541412916e+06   1.9128689277592842e+06   3.4002458457420189e+06   1.2604035600362599e+06   2.3881254773270329e+06   3.5125213417758928e+06   1.5646880911220200e+06   7.2841614915795354e+06   7.7122264632024067e+06   1.1802704158602012e+07   1.2163287059099134e+07   6.2830414905501278e+06   1.1640315999975152e+07   5.8339222224244267e+01   9.3794366850697930e-01   1.7184341158876411e-05   3.4049596087383955e-07   0.0000000000000000e+00   0.0000000000000000e+00   0.0000000000000000e+00   0.0000000000000000e+00   0.0000000000000000e+00   0.0000000000000000e+00   0.0000000000000000e+00   0.0000000000000000e+00   0.0000000000000000e+00   0.0000000000000000e+00   0.0000000000000000e+00   0.0000000000000000e+00   0.0000000000000000e+00   0.0000000000000000e+00   0.0000000000000000e+00   0.0000000000000000e+00   0.0000000000000000e+00   0.0000000000000000e+00   0.0000000000000000e+00   0.0000000000000000e+00   0.0000000000000000e+00   0.0000000000000000e+00   0.0000000000000000e+00   0.0000000000000000e+00   0.0000000000000000e+00   0.0000000000000000e+00   0.0000000000000000e+00   0.0000000000000000e+00   0.0000000000000000e+00   0.0000000000000000e+00   0.0000000000000000e+00   0.0000000000000000e+00   0.0000000000000000e+00   0.0000000000000000e+00   0.0000000000000000e+00   1.0923049143248900e-06   0.0000000000000000e+00   1.2722605893077012e+04   3.7036403482686364e-01   4.4149273203230128e+06   8.6082761395024061e+06   1.8285101249823996e+06   3.8088261132352343e+06   3.3188170232565575e+06   1.0412563120942466e+06   8.2493702034848379e+06   2.3432886821823474e+06   1.2633454758197067e+07   1.1485769369038118e+07   1.0522121747701332e+04   9.8173937959685245e+03   1.0466946978122891e-05   2.8094288946713818e-06   0.0000000000000000e+00   0.0000000000000000e+00   0.0000000000000000e+00   0.0000000000000000e+00   0.0000000000000000e+00   0.0000000000000000e+00   0.0000000000000000e+00   0.0000000000000000e+00   0.0000000000000000e+00   0.0000000000000000e+00   0.0000000000000000e+00   0.0000000000000000e+00   0.0000000000000000e+00   0.0000000000000000e+00   0.0000000000000000e+00   0.0000000000000000e+00   0.0000000000000000e+00   0.0000000000000000e+00   0.0000000000000000e+00   0.0000000000000000e+00   0.0000000000000000e+00   0.0000000000000000e+00   0.0000000000000000e+00   0.0000000000000000e+00   0.0000000000000000e+00   0.0000000000000000e+00   0.0000000000000000e+00   0.0000000000000000e+00   0.0000000000000000e+00   0.0000000000000000e+00   0.0000000000000000e+00   0.0000000000000000e+00   0.0000000000000000e+00   0.0000000000000000e+00   0.0000000000000000e+00   0.0000000000000000e+00   0.0000000000000000e+00   2.0745502450942070e-09   0.0000000000000000e+00   1.6168762028701082e+02   1.2515447071328039e+00   5.1322113245009575e+06   1.1886531107820785e+07   2.9267377806548602e+06   4.8098661687329793e+06   4.8415238685491085e+06   1.1684711682293790e+06   8.5386039419393856e+06   3.8558781980635105e+06   1.0212410807057266e+06   3.3086879595428547e+06   1.5424700399822166e-06   2.3128304721648738e-05   0.0000000000000000e+00   0.0000000000000000e+00   0.0000000000000000e+00   0.0000000000000000e+00   0.0000000000000000e+00   0.0000000000000000e+00   0.0000000000000000e+00   0.0000000000000000e+00   0.0000000000000000e+00   0.0000000000000000e+00   0.0000000000000000e+00   0.0000000000000000e+00   0.0000000000000000e+00   0.0000000000000000e+00   0.0000000000000000e+00   0.0000000000000000e+00   0.0000000000000000e+00   0.0000000000000000e+00   0.0000000000000000e+00   0.0000000000000000e+00   0.0000000000000000e+00   0.0000000000000000e+00   0.0000000000000000e+00   0.0000000000000000e+00   0.0000000000000000e+00   0.0000000000000000e+00   0.0000000000000000e+00   0.0000000000000000e+00   0.0000000000000000e+00   0.0000000000000000e+00   0.0000000000000000e+00   0.0000000000000000e+00   0.0000000000000000e+00   0.0000000000000000e+00   0.0000000000000000e+00   0.0000000000000000e+00   0.0000000000000000e+00   2.7321586066789624e-06   2.0076601422036421e-07   3.6831583962123975e+05   5.0098771376983212e+04   2.6689921667953511e+06   2.4073398172315322e+06   3.1269613609067895e+06   2.9686232844225410e+06   5.0877934809759362e+06   2.3160715483410186e+06   6.7831198968569608e+06   4.7032312874126201e+06   7.9752832495556405e+01   7.0654627315671751e+04   0.0000000000000000e+00   0.0000000000000000e+00   0.0000000000000000e+00   0.0000000000000000e+00   0.0000000000000000e+00   0.0000000000000000e+00   0.0000000000000000e+00   0.0000000000000000e+00   0.0000000000000000e+00   0.0000000000000000e+00   0.0000000000000000e+00   0.0000000000000000e+00   0.0000000000000000e+00   0.0000000000000000e+00   0.0000000000000000e+00   0.0000000000000000e+00   0.0000000000000000e+00   0.0000000000000000e+00   0.0000000000000000e+00   0.0000000000000000e+00   0.0000000000000000e+00   0.0000000000000000e+00   0.0000000000000000e+00   0.0000000000000000e+00   0.0000000000000000e+00   0.0000000000000000e+00   0.0000000000000000e+00   0.0000000000000000e+00   0.0000000000000000e+00   0.0000000000000000e+00   0.0000000000000000e+00   0.0000000000000000e+00   0.0000000000000000e+00   0.0000000000000000e+00   0.0000000000000000e+00   0.0000000000000000e+00   0.0000000000000000e+00   1.2044067956225719e+01   3.4334740159024695e+00   1.3810362209477667e+06   1.3529734768253576e+06   1.3781487184148019e+06   1.5021509901016818e+06   3.3852386139580952e+06   2.3662241662143883e+06   5.0337335345139410e+06   2.6904454333805949e+06   8.2818445732766874e+06   3.7168734884569882e+06   9.0268385058180445e-01   1.7154524281831391e+03   0.0000000000000000e+00   0.0000000000000000e+00   0.0000000000000000e+00   0.0000000000000000e+00   0.0000000000000000e+00   0.0000000000000000e+00   0.0000000000000000e+00   0.0000000000000000e+00   0.0000000000000000e+00   0.0000000000000000e+00   0.0000000000000000e+00   0.0000000000000000e+00   0.0000000000000000e+00   0.0000000000000000e+00   0.0000000000000000e+00   0.0000000000000000e+00   0.0000000000000000e+00   0.0000000000000000e+00   0.0000000000000000e+00   0.0000000000000000e+00   0.0000000000000000e+00   0.0000000000000000e+00   0.0000000000000000e+00   0.0000000000000000e+00   0.0000000000000000e+00   0.0000000000000000e+00   0.0000000000000000e+00   0.0000000000000000e+00   0.0000000000000000e+00   0.0000000000000000e+00   0.0000000000000000e+00   0.0000000000000000e+00   0.0000000000000000e+00   3.6607451000159733e-02   2.7217027734587122e-02   1.6500128893436620e+05   3.6276413090187550e+05   6.3013220485679188e+05   7.5544282767839322e+05   1.6843810798364270e+06   1.7000955414890717e+06   3.3942075762725989e+06   2.4152827116642059e+06   4.5114495079883877e+06   2.7543773549737306e+06   4.8721273761992194e+06   2.6329965458756275e+06   2.5521676405346637e-03   1.1477381401817222e+00   0.0000000000000000e+00   0.0000000000000000e+00   0.0000000000000000e+00   0.0000000000000000e+00   0.0000000000000000e+00   0.0000000000000000e+00   0.0000000000000000e+00   0.0000000000000000e+00   0.0000000000000000e+00   0.0000000000000000e+00   0.0000000000000000e+00   0.0000000000000000e+00   0.0000000000000000e+00   0.0000000000000000e+00   0.0000000000000000e+00   0.0000000000000000e+00   0.0000000000000000e+00   0.0000000000000000e+00   0.0000000000000000e+00   0.0000000000000000e+00   0.0000000000000000e+00   0.0000000000000000e+00   0.0000000000000000e+00   0.0000000000000000e+00   0.0000000000000000e+00   0.0000000000000000e+00   0.0000000000000000e+00   0.0000000000000000e+00   0.0000000000000000e+00   0.0000000000000000e+00   1.9714957253965947e-02   6.3725625538350025e+05   8.8988836211791111e+05   8.1160330940007209e+05   1.2860109763870353e+06   1.0674551728435624e+06   1.5409113754681265e+06   1.9605177563457382e+06   2.1582460455035977e+06   2.7620682683878178e+06   2.4246494001934440e+06   2.7763788474920141e+06   2.5991329866569689e+06   3.7589171107192885e+05   6.2782327577775856e+05   2.6936654806796467e-08   1.4325518499102792e-06   0.0000000000000000e+00   0.0000000000000000e+00   0.0000000000000000e+00   0.0000000000000000e+00   0.0000000000000000e+00   0.0000000000000000e+00   0.0000000000000000e+00   0.0000000000000000e+00   0.0000000000000000e+00   0.0000000000000000e+00   0.0000000000000000e+00   0.0000000000000000e+00   0.0000000000000000e+00   0.0000000000000000e+00   0.0000000000000000e+00   0.0000000000000000e+00   0.0000000000000000e+00   0.0000000000000000e+00   0.0000000000000000e+00   0.0000000000000000e+00   0.0000000000000000e+00   0.0000000000000000e+00   0.0000000000000000e+00   0.0000000000000000e+00   0.0000000000000000e+00   0.0000000000000000e+00   0.0000000000000000e+00   0.0000000000000000e+00   0.0000000000000000e+00   0.0000000000000000e+00   1.5326294574805344e+06   1.4001917025414836e+06   1.8599513840184358e+06   1.6441366785676396e+06   2.0419217923343680e+06   2.1897883110672119e+06   2.7471310227842666e+06   2.5906546681882599e+06   2.4062033826148156e+06   1.9199173859189181e+06   1.8796151910534936e+06   1.8223182380544246e-02   4.7275788807038817e-02   0.0000000000000000e+00   0.0000000000000000e+00   0.0000000000000000e+00   0.0000000000000000e+00   0.0000000000000000e+00   0.0000000000000000e+00   0.0000000000000000e+00   0.0000000000000000e+00   0.0000000000000000e+00   0.0000000000000000e+00   0.0000000000000000e+00   0.0000000000000000e+00   0.0000000000000000e+00   0.0000000000000000e+00   0.0000000000000000e+00   0.0000000000000000e+00   0.0000000000000000e+00   0.0000000000000000e+00   0.0000000000000000e+00   0.0000000000000000e+00   0.0000000000000000e+00   0.0000000000000000e+00   0.0000000000000000e+00   0.0000000000000000e+00   0.0000000000000000e+00   0.0000000000000000e+00   0.0000000000000000e+00   0.0000000000000000e+00   0.0000000000000000e+00   0.0000000000000000e+00   0.0000000000000000e+00   0.0000000000000000e+00   1.9474347127721652e+06   2.3791419481601887e+06   2.2104299786659610e+06   3.1672227386907353e+06   2.8102462548082354e+06   1.7621935542056737e+06   2.1045024250815818e+06   7.0895268937712932e-02   2.8740674543295160e-02   0.0000000000000000e+00   0.0000000000000000e+00   0.0000000000000000e+00   0.0000000000000000e+00   0.0000000000000000e+00   0.0000000000000000e+00   0.0000000000000000e+00   0.0000000000000000e+00   0.0000000000000000e+00   0.0000000000000000e+00   0.0000000000000000e+00   0.0000000000000000e+00   0.0000000000000000e+00   0.0000000000000000e+00   0.0000000000000000e+00   0.0000000000000000e+00   0.0000000000000000e+00   0.0000000000000000e+00   0.0000000000000000e+00   0.0000000000000000e+00   0.0000000000000000e+00   0.0000000000000000e+00   0.0000000000000000e+00   0.0000000000000000e+00   0.0000000000000000e+00   0.0000000000000000e+00   0.0000000000000000e+00   0.0000000000000000e+00   0.0000000000000000e+00   0.0000000000000000e+00   0.0000000000000000e+00   0.0000000000000000e+00   0.0000000000000000e+00   0.0000000000000000e+00   2.0410993305913669e+06   1.2888595817950477e+06   3.1298052831748343e+05   6.1053325710515880e-04   1.0350211320835151e-04   0.0000000000000000e+00   0.0000000000000000e+00   0.0000000000000000e+00   0.0000000000000000e+00   0.0000000000000000e+00   0.0000000000000000e+00   0.0000000000000000e+00   0.0000000000000000e+00   0.0000000000000000e+00   0.0000000000000000e+00   0.0000000000000000e+00   0.0000000000000000e+00   0.0000000000000000e+00   0.0000000000000000e+00   0.0000000000000000e+00   0.0000000000000000e+00   0.0000000000000000e+00   0.0000000000000000e+00   0.0000000000000000e+00   0.0000000000000000e+00   0.0000000000000000e+00   0.0000000000000000e+00   0.0000000000000000e+00   0.0000000000000000e+00   0.0000000000000000e+00   0.0000000000000000e+00   0.0000000000000000e+00   0.0000000000000000e+00   0.0000000000000000e+00   0.0000000000000000e+00   0.0000000000000000e+00   0.0000000000000000e+00   0.0000000000000000e+00   0.0000000000000000e+00   0.0000000000000000e+00   0.0000000000000000e+00   1.4177118118248006e-06   0.0000000000000000e+00   0.0000000000000000e+00   0.0000000000000000e+00   0.0000000000000000e+00   0.0000000000000000e+00   0.0000000000000000e+00   0.0000000000000000e+00   0.0000000000000000e+00   0.0000000000000000e+00   0.0000000000000000e+00   0.0000000000000000e+00   0.0000000000000000e+00   0.0000000000000000e+00   0.0000000000000000e+00   0.0000000000000000e+00   0.0000000000000000e+00   0.0000000000000000e+00   0.0000000000000000e+00   0.0000000000000000e+00   0.0000000000000000e+00   0.0000000000000000e+00   0.0000000000000000e+00   0.0000000000000000e+00   0.0000000000000000e+00   0.0000000000000000e+00   0.0000000000000000e+00   0.0000000000000000e+00   0.0000000000000000e+00   0.0000000000000000e+00   0.0000000000000000e+00   0.0000000000000000e+00   0.0000000000000000e+00   0.0000000000000000e+00   0.0000000000000000e+00   0.0000000000000000e+00   0.0000000000000000e+00   0.0000000000000000e+00   0.0000000000000000e+00   0.0000000000000000e+00   0.00000000