<?xml version="1.0"?>
<VTKFile type="UnstructuredGrid"  version="0.1"  >
<UnstructuredGrid>
<Piece  NumberOfPoints="614" NumberOfCells="1122">
<Points>
<DataArray  type="Float64"  NumberOfComponents="3"  format="ascii">2.792173913043478 0.2166666666666667 0  2.792173913043478 0.2333333333333333 0  2.808695652173913 0.2333333333333333 0  2.445217391304348 0.2333333333333333 0  2.461739130434782 0.2333333333333333 0  2.461739130434782 0.25 0  2.445217391304348 0.25 0  2.478260869565217 0.2333333333333333 0  2.478260869565217 0.25 0  2.494782608695652 0.2333333333333333 0  2.494782608695652 0.25 0  2.511304347826087 0.2333333333333333 0  2.511304347826087 0.25 0  2.527826086956522 0.2333333333333333 0  2.527826086956522 0.25 0  2.544347826086956 0.2333333333333333 0  2.544347826086956 0.25 0  2.560869565217391 0.2333333333333333 0  2.560869565217391 0.25 0  2.577391304347826 0.2333333333333333 0  2.577391304347826 0.25 0  2.593913043478261 0.2333333333333333 0  2.593913043478261 0.25 0  2.610434782608696 0.2333333333333333 0  2.610434782608696 0.25 0  2.62695652173913 0.2333333333333333 0  2.62695652173913 0.25 0  2.643478260869565 0.2333333333333333 0  2.643478260869565 0.25 0  2.66 0.2333333333333333 0  2.66 0.25 0  2.676521739130435 0.2333333333333333 0  2.676521739130435 0.25 0  2.693043478260869 0.2333333333333333 0  2.693043478260869 0.25 0  2.709565217391304 0.2333333333333333 0  2.709565217391304 0.25 0  2.726086956521739 0.2333333333333333 0  2.726086956521739 0.25 0  2.742608695652174 0.2333333333333333 0  2.742608695652174 0.25 0  2.759130434782609 0.2333333333333333 0  2.759130434782609 0.25 0  2.775652173913044 0.2333333333333333 0  2.775652173913044 0.25 0  2.792173913043478 0.25 0  2.808695652173913 0.25 0  2.825217391304347 0.25 0  2.28 0.25 0  2.296521739130434 0.25 0  2.296521739130434 0.2666666666666667 0  2.28 0.2666666666666667 0  2.31304347826087 0.25 0  2.31304347826087 0.2666666666666667 0  2.329565217391304 0.25 0  2.329565217391304 0.2666666666666667 0  2.346086956521739 0.25 0  2.346086956521739 0.2666666666666667 0  2.362608695652174 0.25 0  2.362608695652174 0.2666666666666667 0  2.379130434782609 0.25 0  2.379130434782609 0.2666666666666667 0  2.395652173913044 0.25 0  2.395652173913044 0.2666666666666667 0  2.412173913043478 0.25 0  2.412173913043478 0.2666666666666667 0  2.428695652173913 0.25 0  2.428695652173913 0.2666666666666667 0  2.445217391304348 0.2666666666666667 0  2.461739130434782 0.2666666666666667 0  2.478260869565217 0.2666666666666667 0  2.494782608695652 0.2666666666666667 0  2.511304347826087 0.2666666666666667 0  2.527826086956522 0.2666666666666667 0  2.544347826086956 0.2666666666666667 0  2.560869565217391 0.2666666666666667 0  2.577391304347826 0.2666666666666667 0  2.593913043478261 0.2666666666666667 0  2.610434782608696 0.2666666666666667 0  2.62695652173913 0.2666666666666667 0  2.643478260869565 0.2666666666666667 0  2.66 0.2666666666666667 0  2.676521739130435 0.2666666666666667 0  2.693043478260869 0.2666666666666667 0  2.709565217391304 0.2666666666666667 0  2.726086956521739 0.2666666666666667 0  2.742608695652174 0.2666666666666667 0  2.759130434782609 0.2666666666666667 0  2.775652173913044 0.2666666666666667 0  2.792173913043478 0.2666666666666667 0  2.808695652173913 0.2666666666666667 0  2.825217391304347 0.2666666666666667 0  2.841739130434783 0.2666666666666667 0  2.24695652173913 0.2666666666666667 0  2.263478260869565 0.2666666666666667 0  2.263478260869565 0.2833333333333333 0  2.28 0.2833333333333333 0  2.296521739130434 0.2833333333333333 0  2.31304347826087 0.2833333333333333 0  2.329565217391304 0.2833333333333333 0  2.346086956521739 0.2833333333333333 0  2.362608695652174 0.2833333333333333 0  2.379130434782609 0.2833333333333333 0  2.395652173913044 0.2833333333333333 0  2.412173913043478 0.2833333333333333 0  2.428695652173913 0.2833333333333333 0  2.445217391304348 0.2833333333333333 0  2.461739130434782 0.2833333333333333 0  2.478260869565217 0.2833333333333333 0  2.494782608695652 0.2833333333333333 0  2.511304347826087 0.2833333333333333 0  2.527826086956522 0.2833333333333333 0  2.544347826086956 0.2833333333333333 0  2.560869565217391 0.2833333333333333 0  2.577391304347826 0.2833333333333333 0  2.593913043478261 0.2833333333333333 0  2.610434782608696 0.2833333333333333 0  2.62695652173913 0.2833333333333333 0  2.643478260869565 0.2833333333333333 0  2.66 0.2833333333333333 0  2.676521739130435 0.2833333333333333 0  2.693043478260869 0.2833333333333333 0  2.709565217391304 0.2833333333333333 0  2.726086956521739 0.2833333333333333 0  2.742608695652174 0.2833333333333333 0  2.759130434782609 0.2833333333333333 0  2.775652173913044 0.2833333333333333 0  2.792173913043478 0.2833333333333333 0  2.808695652173913 0.2833333333333333 0  2.825217391304347 0.2833333333333333 0  2.841739130434783 0.2833333333333333 0  2.858260869565217 0.2833333333333333 0  2.28 0.3 0  2.296521739130434 0.3 0  2.31304347826087 0.3 0  2.329565217391304 0.3 0  2.346086956521739 0.3 0  2.362608695652174 0.3 0  2.379130434782609 0.3 0  2.395652173913044 0.3 0  2.412173913043478 0.3 0  2.428695652173913 0.3 0  2.445217391304348 0.3 0  2.461739130434782 0.3 0  2.478260869565217 0.3 0  2.494782608695652 0.3 0  2.511304347826087 0.3 0  2.527826086956522 0.3 0  2.544347826086956 0.3 0  2.560869565217391 0.3 0  2.577391304347826 0.3 0  2.593913043478261 0.3 0  2.610434782608696 0.3 0  2.62695652173913 0.3 0  2.643478260869565 0.3 0  2.66 0.3 0  2.676521739130435 0.3 0  2.693043478260869 0.3 0  2.709565217391304 0.3 0  2.726086956521739 0.3 0  2.742608695652174 0.3 0  2.759130434782609 0.3 0  2.775652173913044 0.3 0  2.792173913043478 0.3 0  2.808695652173913 0.3 0  2.825217391304347 0.3 0  2.841739130434783 0.3 0  2.858260869565217 0.3 0  2.874782608695652 0.3 0  2.296521739130434 0.3166666666666667 0  2.31304347826087 0.3166666666666667 0  2.329565217391304 0.3166666666666667 0  2.346086956521739 0.3166666666666667 0  2.362608695652174 0.3166666666666667 0  2.379130434782609 0.3166666666666667 0  2.395652173913044 0.3166666666666667 0  2.412173913043478 0.3166666666666667 0  2.428695652173913 0.3166666666666667 0  2.445217391304348 0.3166666666666667 0  2.461739130434782 0.3166666666666667 0  2.478260869565217 0.3166666666666667 0  2.494782608695652 0.3166666666666667 0  2.511304347826087 0.3166666666666667 0  2.527826086956522 0.3166666666666667 0  2.544347826086956 0.3166666666666667 0  2.560869565217391 0.3166666666666667 0  2.577391304347826 0.3166666666666667 0  2.593913043478261 0.3166666666666667 0  2.610434782608696 0.3166666666666667 0  2.62695652173913 0.3166666666666667 0  2.643478260869565 0.3166666666666667 0  2.66 0.3166666666666667 0  2.676521739130435 0.3166666666666667 0  2.693043478260869 0.3166666666666667 0  2.709565217391304 0.3166666666666667 0  2.726086956521739 0.3166666666666667 0  2.742608695652174 0.3166666666666667 0  2.759130434782609 0.3166666666666667 0  2.775652173913044 0.3166666666666667 0  2.792173913043478 0.3166666666666667 0  2.808695652173913 0.3166666666666667 0  2.825217391304347 0.3166666666666667 0  2.841739130434783 0.3166666666666667 0  2.858260869565217 0.3166666666666667 0  2.874782608695652 0.3166666666666667 0  2.891304347826087 0.3166666666666667 0  2.31304347826087 0.3333333333333333 0  2.329565217391304 0.3333333333333333 0  2.346086956521739 0.3333333333333333 0  2.362608695652174 0.3333333333333333 0  2.379130434782609 0.3333333333333333 0  2.395652173913044 0.3333333333333333 0  2.412173913043478 0.3333333333333333 0  2.428695652173913 0.3333333333333333 0  2.445217391304348 0.3333333333333333 0  2.461739130434782 0.3333333333333333 0  2.478260869565217 0.3333333333333333 0  2.494782608695652 0.3333333333333333 0  2.511304347826087 0.3333333333333333 0  2.527826086956522 0.3333333333333333 0  2.544347826086956 0.3333333333333333 0  2.560869565217391 0.3333333333333333 0  2.577391304347826 0.3333333333333333 0  2.593913043478261 0.3333333333333333 0  2.610434782608696 0.3333333333333333 0  2.62695652173913 0.3333333333333333 0  2.643478260869565 0.3333333333333333 0  2.66 0.3333333333333333 0  2.676521739130435 0.3333333333333333 0  2.693043478260869 0.3333333333333333 0  2.709565217391304 0.3333333333333333 0  2.726086956521739 0.3333333333333333 0  2.742608695652174 0.3333333333333333 0  2.759130434782609 0.3333333333333333 0  2.775652173913044 0.3333333333333333 0  2.792173913043478 0.3333333333333333 0  2.808695652173913 0.3333333333333333 0  2.825217391304347 0.3333333333333333 0  2.841739130434783 0.3333333333333333 0  2.858260869565217 0.3333333333333333 0  2.874782608695652 0.3333333333333333 0  2.891304347826087 0.3333333333333333 0  2.907826086956522 0.3333333333333333 0  2.329565217391304 0.35 0  2.346086956521739 0.35 0  2.362608695652174 0.35 0  2.379130434782609 0.35 0  2.395652173913044 0.35 0  2.412173913043478 0.35 0  2.428695652173913 0.35 0  2.445217391304348 0.35 0  2.461739130434782 0.35 0  2.478260869565217 0.35 0  2.494782608695652 0.35 0  2.511304347826087 0.35 0  2.527826086956522 0.35 0  2.544347826086956 0.35 0  2.560869565217391 0.35 0  2.577391304347826 0.35 0  2.593913043478261 0.35 0  2.610434782608696 0.35 0  2.62695652173913 0.35 0  2.643478260869565 0.35 0  2.66 0.35 0  2.676521739130435 0.35 0  2.693043478260869 0.35 0  2.709565217391304 0.35 0  2.726086956521739 0.35 0  2.742608695652174 0.35 0  2.759130434782609 0.35 0  2.775652173913044 0.35 0  2.792173913043478 0.35 0  2.808695652173913 0.35 0  2.825217391304347 0.35 0  2.841739130434783 0.35 0  2.858260869565217 0.35 0  2.874782608695652 0.35 0  2.891304347826087 0.35 0  2.907826086956522 0.35 0  2.924347826086957 0.35 0  2.346086956521739 0.3666666666666666 0  2.362608695652174 0.3666666666666666 0  2.379130434782609 0.3666666666666666 0  2.395652173913044 0.3666666666666666 0  2.412173913043478 0.3666666666666666 0  2.428695652173913 0.3666666666666666 0  2.445217391304348 0.3666666666666666 0  2.461739130434782 0.3
[...]
<PointData  Vectors="Displacement"> 
<DataArray  type="Float64"  Name="Displacement"  NumberOfComponents="3" format="ascii">7.0213888651285764e-05 3.7677446976134700e-03 0.0000000000000000e+00  5.1868172667105473e-05 3.7692551834371695e-03 0.0000000000000000e+00  5.1637328650833551e-05 3.7968970276954861e-03 0.0000000000000000e+00  3.3601983802905988e-05 3.0400128935596789e-03 0.0000000000000000e+00  3.6131139660681678e-05 3.0759320748663986e-03 0.0000000000000000e+00  1.9061823858379554e-05 3.0672539475156370e-03 0.0000000000000000e+00  1.6529574165374690e-05 3.0309447172355425e-03 0.0000000000000000e+00  3.8559378672136150e-05 3.1119999921139321e-03 0.0000000000000000e+00  2.1503553430453999e-05 3.1037278136664655e-03 0.0000000000000000e+00  4.0872502434653599e-05 3.1482092675107760e-03 0.0000000000000000e+00  2.3831657643785084e-05 3.1403707911746700e-03 0.0000000000000000e+00  4.3051181910309751e-05 3.1845451184295639e-03 0.0000000000000000e+00  2.6018715363627338e-05 3.1771744218847551e-03 0.0000000000000000e+00  4.5074270241001041e-05 3.2209836998510913e-03 0.0000000000000000e+00  2.8036761773969273e-05 3.2141170447429726e-03 0.0000000000000000e+00  4.6921335141282375e-05 3.2574917414018452e-03 0.0000000000000000e+00  2.9859989348979175e-05 3.2511644394073022e-03 0.0000000000000000e+00  4.8574577060863096e-05 3.2940269392329495e-03 0.0000000000000000e+00  3.1466755276080176e-05 3.2882709734208628e-03 0.0000000000000000e+00  5.0020249763099192e-05 3.3305388001116125e-03 0.0000000000000000e+00  3.2841117453358738e-05 3.3253810610095881e-03 0.0000000000000000e+00  5.1249712816808336e-05 3.3669695979377441e-03 0.0000000000000000e+00  3.3974217475050111e-05 3.3624304419513215e-03 0.0000000000000000e+00  5.2259940837537092e-05 3.4032557393261407e-03 0.0000000000000000e+00  3.4865122360459207e-05 3.3993483659005615e-03 0.0000000000000000e+00  5.3053170936937336e-05 3.4393293896945861e-03 0.0000000000000000e+00  3.5520432528095234e-05 3.4360605817435161e-03 0.0000000000000000e+00  5.3635586841643799e-05 3.4751196138899359e-03 0.0000000000000000e+00  3.5952302629562148e-05 3.4724918074432510e-03 0.0000000000000000e+00  5.4015353378604729e-05 3.5105521920812837e-03 0.0000000000000000e+00  3.6175055456757525e-05 3.5085661228766809e-03 0.0000000000000000e+00  5.4200781599947791e-05 3.5455476573132004e-03 0.0000000000000000e+00  3.6201252857370094e-05 3.5442041935093791e-03 0.0000000000000000e+00  5.4199824469222569e-05 3.5800177221709788e-03 0.0000000000000000e+00  3.6039023769921326e-05 3.5793170222948173e-03 0.0000000000000000e+00  5.4022324102307348e-05 3.6138609387611396e-03 0.0000000000000000e+00  3.5693450447592846e-05 3.6137968920857367e-03 0.0000000000000000e+00  5.3686089165459698e-05 3.6469594376856195e-03 0.0000000000000000e+00  3.5174936664377054e-05 3.6475079996217252e-03 0.0000000000000000e+00  5.3226186397780784e-05 3.6791789227874567e-03 0.0000000000000000e+00  3.4516815546222385e-05 3.6802821402436674e-03 0.0000000000000000e+00  5.2713341554602284e-05 3.7103622058728900e-03 0.0000000000000000e+00  3.3817355530800518e-05 3.7118850742731686e-03 0.0000000000000000e+00  5.2235602395212953e-05 3.7403990755188799e-03 0.0000000000000000e+00  3.3213980409383068e-05 3.7421911009301264e-03 0.0000000000000000e+00  3.2784903040563568e-05 3.7711933221986562e-03 0.0000000000000000e+00  3.2607858062407553e-05 3.7989698340377713e-03 0.0000000000000000e+00  3.2510298215900283e-05 3.8251785557964547e-03 0.0000000000000000e+00  -1.6964942437806190e-05 2.6919928860038959e-03 0.0000000000000000e+00  -1.3315251260801714e-05 2.7213593439016294e-03 0.0000000000000000e+00  -3.1132473044479787e-05 2.7079994089491155e-03 0.0000000000000000e+00  -3.4662475104804383e-05 2.6783545409985805e-03 0.0000000000000000e+00  -9.4629083805423238e-06 2.7517795784409841e-03 0.0000000000000000e+00  -2.7284608196479627e-05 2.7382395868510772e-03 0.0000000000000000e+00  -5.3518042404896294e-06 2.7834249701421954e-03 0.0000000000000000e+00  -2.2866696048212656e-05 2.7697097181617956e-03 0.0000000000000000e+00  -1.3840738917031035e-06 2.8169549985372602e-03 0.0000000000000000e+00  -1.8700066573688545e-05 2.8041074592593932e-03 0.0000000000000000e+00  2.2143694073111440e-06 2.8517160041477462e-03 0.0000000000000000e+00  -1.5096794477796521e-05 2.8398671168158923e-03 0.0000000000000000e+00  5.4542056865417063e-06 2.8871257533618225e-03 0.0000000000000000e+00  -1.1945742582242032e-05 2.8761070348158483e-03 0.0000000000000000e+00  8.4287212206571533e-06 2.9228549745810221e-03 0.0000000000000000e+00  -9.0717406284493386e-06 2.9124703183117349e-03 0.0000000000000000e+00  1.1229868730601096e-05 2.9587563760431678e-03 0.0000000000000000e+00  -6.3432577841389008e-06 2.9488601775266559e-03 0.0000000000000000e+00  1.3920194261834435e-05 2.9947850061096230e-03 0.0000000000000000e+00  -3.6870243397310571e-06 2.9852926881082363e-03 0.0000000000000000e+00  -1.0784014711256451e-06 3.0218239329240942e-03 0.0000000000000000e+00  1.4745776988238188e-06 3.0585088010163931e-03 0.0000000000000000e+00  3.9456933099084805e-06 3.0953845342031987e-03 0.0000000000000000e+00  6.3004076884464692e-06 3.1324677020785042e-03 0.0000000000000000e+00  8.5018383180979203e-06 3.1697553476756125e-03 0.0000000000000000e+00  1.0514472431708028e-05 3.2072267629925074e-03 0.0000000000000000e+00  1.2306696080973479e-05 3.2448453558529865e-03 0.0000000000000000e+00  1.3852690478592488e-05 3.2825605962244547e-03 0.0000000000000000e+00  1.5134000578760507e-05 3.3203100516323992e-03 0.0000000000000000e+00  1.6141537638990965e-05 3.3580204999317980e-03 0.0000000000000000e+00  1.6877178561991244e-05 3.3956111290600398e-03 0.0000000000000000e+00  1.7353645164886421e-05 3.4329987218035714e-03 0.0000000000000000e+00  1.7592033548269499e-05 3.4701025382823042e-03 0.0000000000000000e+00  1.7616913249363792e-05 3.5068464371170753e-03 0.0000000000000000e+00  1.7449318009279858e-05 3.5431560526762154e-03 0.0000000000000000e+00  1.7099686803776675e-05 3.5789494147244485e-03 0.0000000000000000e+00  1.6565627312703873e-05 3.6141203379021136e-03 0.0000000000000000e+00  1.5841266020596298e-05 3.6485174333915093e-03 0.0000000000000000e+00  1.4943688504824524e-05 3.6819240165519474e-03 0.0000000000000000e+00  1.4026871050413705e-05 3.7139603963649019e-03 0.0000000000000000e+00  1.3281164667984716e-05 3.7444486473442867e-03 0.0000000000000000e+00  1.2914965874337759e-05 3.7735629713938367e-03 0.0000000000000000e+00  1.2758835770657902e-05 3.8012144189893001e-03 0.0000000000000000e+00  1.3688775824882638e-05 3.8278658568099617e-03 0.0000000000000000e+00  1.2759497075666094e-05 3.8522282537208109e-03 0.0000000000000000e+00  -3.8969202543758857e-05 2.6329367862652068e-03 0.0000000000000000e+00  -3.8707947406492071e-05 2.6484520120361628e-03 0.0000000000000000e+00  -5.3362070213511825e-05 2.6486375602794905e-03 0.0000000000000000e+00  -5.2903615673046234e-05 2.6647330274089647e-03 0.0000000000000000e+00  -4.9536230435472138e-05 2.6945391481633138e-03 0.0000000000000000e+00  -4.5874615642900647e-05 2.7241223589206912e-03 0.0000000000000000e+00  -4.0981343762118014e-05 2.7548104332672913e-03 0.0000000000000000e+00  -3.6566982045377867e-05 2.7907448122629409e-03 0.0000000000000000e+00  -3.3011077092147830e-05 2.8278961657861841e-03 0.0000000000000000e+00  -2.9989053289163176e-05 2.8651117924639309e-03 0.0000000000000000e+00  -2.7221641435267957e-05 2.9021280123722264e-03 0.0000000000000000e+00  -2.4545917272992669e-05 2.9389739320166623e-03 0.0000000000000000e+00  -2.1890041724222719e-05 2.9757659332844814e-03 0.0000000000000000e+00  -1.9245007180282793e-05 3.0126328019971066e-03 0.0000000000000000e+00  -1.6637677978684800e-05 3.0496728899691698e-03 0.0000000000000000e+00  -1.4110676479471712e-05 3.0869457085714994e-03 0.0000000000000000e+00  -1.1711317629607840e-05 3.1244780495753711e-03 0.0000000000000000e+00  -9.4862422257071540e-06 3.1622704309529374e-03 0.0000000000000000e+00  -7.4784559429528817e-06 3.2003012393872475e-03 0.0000000000000000e+00  -5.7253359928358159e-06 3.2385297976036667e-03 0.0000000000000000e+00  -4.2570762390619462e-06 3.2768990189379356e-03 0.0000000000000000e+00  -3.0952597049140644e-06 3.3153378799625445e-03 0.0000000000000000e+00  -2.2496968577832528e-06 3.3537610554003781e-03 0.0000000000000000e+00  -1.7154021214756989e-06 3.3920733838127401e-03 0.0000000000000000e+00  -1.4720717150605794e-06 3.4301784662704830e-03 0.0000000000000000e+00  -1.4867331393586832e-06 3.4679873224583318e-03 0.0000000000000000e+00  -1.7196204450682238e-06 3.5054239996834984e-03 0.0000000000000000e+00  -2.1341620397494085e-06 3.5424254062105258e-03 0.0000000000000000e+00  -2.7118699578698952e-06 3.5789300145717862e-03 0.0000000000000000e+00  -3.4640413423076466e-06 3.6148510778546399e-03 0.0000000000000000e+00  -4.4277246013306679e-06 3.6500352019094989e-03 0.0000000000000000e+00  -5.6282729534463207e-06 3.6842154760011593e-03 0.0000000000000000e+00  -6.8496640725767116e-06 3.7166753789646383e-03 0.0000000000000000e+00  -7.7116243168025329e-06 3.7472957516981147e-03 0.0000000000000000e+00  -8.2967803021738576e-06 3.7761351196528279e-03 0.0000000000000000e+00  -7.6327086401293790e-06 3.8043772791219602e-03 0.0000000000000000e+00  -8.4450316702553427e-06 3.8284006005253439e-03 0.0000000000000000e+00  -8.9789024520015074e-06 3.8519555403619989e-03 0.0000000000000000e+00  -9.3685580812146359e-06 3.8748879241487328e-03 0.0000000000000000e+00  -6.7893056425591327e-05 2.6649320592172458e-03 0.0000000000000000e+00  -6.7317640845327806e-05 2.6816988098019127e-03 0.0000000000000000e+00  -6.5115069088958149e-05 2.7096065306701422e-03 0.0000000000000000e+00  -5.9970109018115380e-05 2.7378644850474749e-03 0.0000000000000000e+00  -5.5261370423210312e-05 2.7769069184947278e-03 0.0000000000000000e+00  -5.1773193118770481e-05 2.8159525515484970e-03 0.0000000000000000e+00  -4.8850627617970739e-05 2.8542430047730312e-03 0.0000000000000000e+00  -4.6128526954108606e-05 2.8918732304789121e-03 0.0000000000000000e+00  -4.3434068136698884e-05 2.9291004294064752e-03 0.0000000000000000e+00  -4.0708624857667220e-05 2.9661812287967988e-03 0.0000000000000000e+00  -3.7966555261443794e-05 3.0033362984246055e-03 0.0000000000000000e+00  -3.5257535815731443e-05 3.0407094097610172e-03 0.0000000000000000e+00  -3.2641091261483012e-05 3.0783776863411408e-03 0.0000000000000000e+00  -3.0176203220544654e-05 3.1163736531492478e-03 0.0000000000000000e+00  -2.7917972375709747e-05 3.1546982173800801e-03 0.0000000000000000e+00  -2.5915893898140480e-05 3.1933266221047651e-03 0.0000000000000000e+00  -2.4212544186770236e-05 3.2322123769227998e-03 0.0000000000000000e+00  -2.2842592042523133e-05 3.2712904810888255e-03 0.0000000000000000e+00  -2.1831949628814777e-05 3.3104802374935411e-03 0.0000000000000000e+00  -2.1192404582837044e-05 3.3496802888396374e-03 0.0000000000000000e+00  -2.0916180027366716e-05 3.3887750347716995e-03 0.0000000000000000e+00  -2.0974595443539672e-05 3.4276486164810677e-03 0.0000000000000000e+00  -2.1320855066679702e-05 3.4661986706041137e-03 0.0000000000000000e+00  -2.1896032855750535e-05 3.5043468006500044e-03 0.0000000000000000e+00  -2.2639699348051174e-05 3.5420453852208432e-03 0.0000000000000000e+00  -2.3510879810666853e-05 3.5792741448576713e-03 0.0000000000000000e+00  -2.4525701999818816e-05 3.6159994930736595e-03 0.0000000000000000e+00  -2.5767523288024714e-05 3.6521058930388847e-03 0.0000000000000000e+00  -2.7356944984619293e-05 3.6872872415675334e-03 0.0000000000000000e+00  -2.8853233063117169e-05 3.7201919621472654e-03 0.0000000000000000e+00  -2.9930865894972768e-05 3.7504239680299324e-03 0.0000000000000000e+00  -2.9427729735012449e-05 3.7795163466897014e-03 0.0000000000000000e+00  -3.0349884378441224e-05 3.8041627334435119e-03 0.0000000000000000e+00  -3.0725825492590430e-05 3.8280987673109620e-03 0.0000000000000000e+00  -3.1199617233692553e-05 3.8517644533115299e-03 0.0000000000000000e+00  -3.1501373677807619e-05 3.8747738646084575e-03 0.0000000000000000e+00  -3.1663015480201090e-05 3.8972677698030575e-03 0.0000000000000000e+00  -8.3228504466958221e-05 2.6817579654850195e-03 0.0000000000000000e+00  -8.2845820402393695e-05 2.6989332384664811e-03 0.0000000000000000e+00  -8.2523607909864397e-05 2.7164588792160031e-03 0.0000000000000000e+00  -7.5731561235932169e-05 2.7628151905995028e-03 0.0000000000000000e+00  -7.1784240198544800e-05 2.8042294272300548e-03 0.0000000000000000e+00  -6.8683776233943109e-05 2.8435889904670298e-03 0.0000000000000000e+00  -6.5831508784369074e-05 2.8817229473659099e-03 0.0000000000000000e+00  -6.2993668976783594e-05 2.9192151104806942e-03 0.0000000000000000e+00  -6.0102937438107820e-05 2.9564912426900463e-03 0.0000000000000000e+00  -5.7192037536315992e-05 2.9938820858577643e-03 0.0000000000000000e+00  -5.4331472984099537e-05 3.0315705753370063e-03 0.0000000000000000e+00  -5.1593916663740877e-05 3.0696402068236778e-03 0.0000000000000000e+00  -4.9046307558292722e-05 3.1081224089282459e-03 0.0000000000000000e+00  -4.6749771000212834e-05 3.1470150401033529e-03 0.0000000000000000e+00  -4.4758834814573237e-05 3.1862879742753842e-03 0.0000000000000000e+00  -4.3120438259875026e-05 3.2258874453992316e-03 0.0000000000000000e+00  -4.1873818847318541e-05 3.2657400113108625e-03 0.0000000000000000e+00  -4.1051469522539084e-05 3.3057561521926990e-03 0.0000000000000000e+00  -4.0669396550172846e-05 3.3458134108443859e-03 0.0000000000000000e+00  -4.0717806527685820e-05 3.3857671796359823e-03 0.0000000000000000e+00  -4.1159438813714332e-05 3.4254737104152597e-03 0.0000000000000000e+00  -4.1933350502970662e-05 3.4648100280215287e-03 0.0000000000000000e+00  -4.2961006098047446e-05 3.5036888816650023e-03 0.0000000000000000e+00  -4.4155511033691838e-05 3.5420746484123092e-03 0.0000000000000000e+00  -4.5440283018152349e-05 3.5800021140869388e-03 0.0000000000000000e+00  -4.6794351653550733e-05 3.6175680948785237e-03 0.0000000000000000e+00  -4.8397180140895925e-05 3.6547643922310116e-03 0.0000000000000000e+00  -5.0520752843272610e-05 3.6913663057741922e-03 0.0000000000000000e+00  -5.2317427931830732e-05 3.7244207468326777e-03 0.0000000000000000e+00  -5.2527066037979820e-05 3.7543965881559698e-03 0.0000000000000000e+00  -5.3167466709562714e-05 3.7794579280581134e-03 0.0000000000000000e+00  -5.3555421531495939e-05 3.8039816264215458e-03 0.0000000000000000e+00  -5.3869955012904196e-05 3.8279944868373152e-03 0.0000000000000000e+00  -5.4098151238592019e-05 3.8516593598086433e-03 0.0000000000000000e+00  -5.4191013500351021e-05 3.8747517015480428e-03 0.0000000000000000e+00  -5.4190593492030939e-05 3.8972996178350513e-03 0.0000000000000000e+00  -5.4111296861621437e-05 3.9193720688363897e-03 0.0000000000000000e+00  -9.9225744306121578e-05 2.6991554805105766e-03 0.0000000000000000e+00  -9.9177939200229744e-05 2.7165151092675248e-03 0.0000000000000000e+00  -9.6882251826254211e-05 2.7495609873279848e-03 0.0000000000000000e+00  -9.2492295996090629e-05 2.7929716151057649e-03 0.0000000000000000e+00  -8.9149960902138074e-05 2.8332279977655171e-03 0.0000000000000000e+00  -8.6103543509740603e-05 2.8716780978651647e-03 0.0000000000000000e+00  -8.3057915322761855e-05 2.9092786478148859e-03 0.0000000000000000e+00  -7.9938522089047646e-05 2.9466333662025216e-03 0.0000000000000000e+00  -7.6808954945717785e-05 2.9842084116498834e-03 0.0000000000000000e+00  -7.3765439940648780e-05 3.0222047889132166e-03 0.0000000000000000e+00  -7.0890177872433275e-05 3.0606918195444231e-03 0.0000000000000000e+00  -6.8254206109979318e-05 3.0996919568785928e-03 0.0000000000000000e+00  -6.5923248734767997e-05 3.1391974564882789e-03 0.0000000000000000e+00  -6.3956427205069967e-05 3.1791707395152093e-03 0.0000000000000000e+00  -6.2404469931440475e-05 3.2195494622819106e-03 0.0000000000000000e+00  -6.1311220356891489e-05 3.2602525951179444e-03 0.0000000000000000e+00  -6.0719774657882023e-05 3.3011871376428677e-03 0.0000000000000000e+00  -6.0653521652622225e-05 3.3422019942255560e-03 0.0000000000000000e+00  -6.1100900925182988e-05 3.3831111013220786e-03 0.0000000000000000e+00  -6.2015392290402767e-05 3.4237323521931016e-03 0.0000000000000000e+00  -6.3322383477653699e-05 3.4639140998199819e-03 0.0000000000000000e+00  -6.4926402581428190e-05 3.5035520966488214e-03 0.0000000000000000e+00  -6.6720968885376820e-05 3.5426126488060251e-03 0.0000000000000000e+00  -6.8605837100851877e-05 3.5811751358101702e-03 0.0000000000000000e+00  -7.0505781216662883e-05 3.6194872649947750e-03 0.0000000000000000e+00  -7.2438805629892916e-05 3.6580386300572262e-03 0.0000000000000000e+00  -7.5433007688923765e-05 3.6965407470065785e-03 0.0000000000000000e+00  -7.6355754735756066e-05 3.7289291232063333e-03 0.0000000000000000e+00  -7.6642216653440863e-05 3.7542274990562921e-03 0.0000000000000000e+00  -7.6951411289375525e-05 3.7792696067996665e-03 0.0000000000000000e+00  -7.7225508123036384e-05 3.8038431612832254e-03 0.0000000000000000e+00  -7.7401781235618758e-05 3.8279407510600221e-03 0.0000000000000000e+00  -7.7473091565055934e-05 3.8516265188839613e-03 0.0000000000000000e+00  -7.7445064855733090e-05 3.8747848982107437e-03 0.0000000000000000e+00  -7.7321851460276797e-05 3.8974307029653777e-03 0.0000000000000000e+00  -7.6625447004834249e-05 3.9193892688714638e-03 0.0000000000000000e+00  -7.8433597483240508e-05 3.9451382901500905e-03 0.0000000000000000e+00  -1.1570879112171439e-04 2.7171338388802561e-03 0.0000000000000000e+00  -1.1593078160405414e-04 2.7345550273147295e-03 0.0000000000000000e+00  -1.1235606018710522e-04 2.7828227133746075e-03 0.0000000000000000e+00  -1.0955659003896806e-04 2.8234178392082202e-03 0.0000000000000000e+00  -1.0655845487024640e-04 2.8618094232105385e-03 0.0000000000000000e+00  -1.0336877243246913e-04 2.8992788737894305e-03 0.0000000000000000e+00  -1.0001856066341265e-04 2.9365477139418955e-03 0.0000000000000000e+00  -9.6662503044082996e-05 2.9742574568350430e-03 0.0000000000000000e+00  -9.3439203585214968e-05 3.0125670421853388e-03 0.0000000000000000e+00  -9.0434757469481163e-05 3.0514961465125038e-03 0.0000000000000000e+00  -8.7720741431666802e-05 3.0910528776085106e-03 0.0000000000000000e+00  -8.5369780841045240e-05 3.1312241407851016e-03 0.0000000000000000e+00  -8.3448520505784434e-05 3.1719620224898389e-03 0.0000000000000000e+00  -8.2011777807444643e-05 3.2131931883630756e-03 0.0000000000000000e+00  -8.1107273711069781e-05 3.2548316177116667e-03 0.0000000000000000e+00  -8.0795731327561296e-05 3.2967962226759361e-03 0.0000000000000000e+00  -8.1111182548672809e-05 3.3388932051480573e-03 0.0000000000000000e+00  -8.2037506258818152e-05 3.3808759711094244e-03 0.0000000000000000e+00  -8.3515464281295446e-05 3.4225118786509749e-03 0.0000000000000000e+00  -8.5455852445151672e-05 3.4636130299754244e-03 0.0000000000000000e+00  -8.7747638048207041e-05 3.5040502611678394e-03 0.0000000000000000e+00  -9.0271968341226530e-05 3.5437845472227150e-03 0.0000000000000000e+00  -9.2940445646949872e-05 3.5829305331640613e-03 0.0000000000000000e+00  -9.5722115861323820e-05 3.6218209820231655e-03 0.0000000000000000e+00  -9.8588330036757227e-05 3.6612295966590713e-03 0.0000000000000000e+00  -1.0095402048574412e-04 3.7037014337418599e-03 0.0000000000000000e+00  -1.0084706660978433e-04 3.7285634368162011e-03 0.0000000000000000e+00  -1.0097093913680434e-04 3.7539699756807951e-03 0.0000000000000000e+00  -1.0115784807721245e-04 3.7791199351493825e-03 0.0000000000000000e+00  -1.0130696053396882e-04 3.8037896156674256e-03 0.0000000000000000e+00  -1.0136650028310516e-04 3.8279513900556662e-03 0.0000000000000000e+00  -1.0134943717370760e-04 3.8516663351310181e-03 0.0000000000000000e+00  -1.0117784953890837e-04 3.8748786037520132e-03 0.0000000000000000e+00  -1.0172249574185319e-04 3.9000903111792219e-03 0.0000000000000000e+00  -1.0303010148298187e-04 3.9240711667579975e-03 0.0000000000000000e+00  -1.0507375204306403e-04 3.9498995658111694e-03 0.0000000000000000e+00  -1.0728552721814909e-04 3.9756209956511987e-03 0.0000000000000000e+00  -1.3287571083961351e-04 2.7360759840372680e-03 0.0000000000000000e+00  -1