<?xml version="1.0"?>
<VTKFile type="UnstructuredGrid"  version="0.1"  >
<UnstructuredGrid>
<Piece  NumberOfPoints="607" NumberOfCells="1112">
<Points>
<DataArray  type="Float64"  NumberOfComponents="3"  format="ascii">0.4130434782608696 0 0  0.4295652173913043 0 0  0.4295652173913043 0.01666666666666667 0  0.4460869565217391 0 0  0.4460869565217391 0.01666666666666667 0  0.4626086956521739 0 0  0.4626086956521739 0.01666666666666667 0  0.4791304347826086 0 0  0.4791304347826086 0.01666666666666667 0  0.4956521739130435 0 0  0.4956521739130435 0.01666666666666667 0  0.5121739130434783 0 0  0.5121739130434783 0.01666666666666667 0  0.528695652173913 0 0  0.528695652173913 0.01666666666666667 0  0.5452173913043478 0 0  0.5452173913043478 0.01666666666666667 0  0.5617391304347825 0 0  0.5617391304347825 0.01666666666666667 0  0.5782608695652174 0 0  0.5782608695652174 0.01666666666666667 0  0.5947826086956521 0 0  0.5947826086956521 0.01666666666666667 0  0.6113043478260869 0 0  0.6113043478260869 0.01666666666666667 0  0.6278260869565218 0 0  0.6278260869565218 0.01666666666666667 0  0.6443478260869565 0 0  0.6443478260869565 0.01666666666666667 0  0.6608695652173913 0 0  0.6608695652173913 0.01666666666666667 0  0.677391304347826 0 0  0.677391304347826 0.01666666666666667 0  0.6939130434782609 0 0  0.6939130434782609 0.01666666666666667 0  0.7104347826086956 0 0  0.7104347826086956 0.01666666666666667 0  0.4460869565217391 0.03333333333333333 0  0.4626086956521739 0.03333333333333333 0  0.4791304347826086 0.03333333333333333 0  0.4956521739130435 0.03333333333333333 0  0.5121739130434783 0.03333333333333333 0  0.528695652173913 0.03333333333333333 0  0.5452173913043478 0.03333333333333333 0  0.5617391304347825 0.03333333333333333 0  0.5782608695652174 0.03333333333333333 0  0.5947826086956521 0.03333333333333333 0  0.6113043478260869 0.03333333333333333 0  0.6278260869565218 0.03333333333333333 0  0.6443478260869565 0.03333333333333333 0  0.6608695652173913 0.03333333333333333 0  0.677391304347826 0.03333333333333333 0  0.6939130434782609 0.03333333333333333 0  0.7104347826086956 0.03333333333333333 0  0.4626086956521739 0.05 0  0.4791304347826086 0.05 0  0.4956521739130435 0.05 0  0.5121739130434783 0.05 0  0.528695652173913 0.05 0  0.5452173913043478 0.05 0  0.5617391304347825 0.05 0  0.5782608695652174 0.05 0  0.5947826086956521 0.05 0  0.6113043478260869 0.05 0  0.6278260869565218 0.05 0  0.6443478260869565 0.05 0  0.6608695652173913 0.05 0  0.677391304347826 0.05 0  0.6939130434782609 0.05 0  0.7104347826086956 0.05 0  0.7269565217391304 0.05 0  0.4791304347826086 0.06666666666666667 0  0.4956521739130435 0.06666666666666667 0  0.5121739130434783 0.06666666666666667 0  0.528695652173913 0.06666666666666667 0  0.5452173913043478 0.06666666666666667 0  0.5617391304347825 0.06666666666666667 0  0.5782608695652174 0.06666666666666667 0  0.5947826086956521 0.06666666666666667 0  0.6113043478260869 0.06666666666666667 0  0.6278260869565218 0.06666666666666667 0  0.6443478260869565 0.06666666666666667 0  0.6608695652173913 0.06666666666666667 0  0.677391304347826 0.06666666666666667 0  0.6939130434782609 0.06666666666666667 0  0.7104347826086956 0.06666666666666667 0  0.7269565217391304 0.06666666666666667 0  0.7434782608695653 0.06666666666666667 0  0.4956521739130435 0.08333333333333333 0  0.5121739130434783 0.08333333333333333 0  0.528695652173913 0.08333333333333333 0  0.5452173913043478 0.08333333333333333 0  0.5617391304347825 0.08333333333333333 0  0.5782608695652174 0.08333333333333333 0  0.5947826086956521 0.08333333333333333 0  0.6113043478260869 0.08333333333333333 0  0.6278260869565218 0.08333333333333333 0  0.6443478260869565 0.08333333333333333 0  0.6608695652173913 0.08333333333333333 0  0.677391304347826 0.08333333333333333 0  0.6939130434782609 0.08333333333333333 0  0.7104347826086956 0.08333333333333333 0  0.7269565217391304 0.08333333333333333 0  0.7434782608695653 0.08333333333333333 0  0.7599999999999999 0.08333333333333333 0  0.5121739130434783 0.1 0  0.528695652173913 0.1 0  0.5452173913043478 0.1 0  0.5617391304347825 0.1 0  0.5782608695652174 0.1 0  0.5947826086956521 0.1 0  0.6113043478260869 0.1 0  0.6278260869565218 0.1 0  0.6443478260869565 0.1 0  0.6608695652173913 0.1 0  0.677391304347826 0.1 0  0.6939130434782609 0.1 0  0.7104347826086956 0.1 0  0.7269565217391304 0.1 0  0.7434782608695653 0.1 0  0.7599999999999999 0.1 0  0.7765217391304348 0.1 0  0.528695652173913 0.1166666666666667 0  0.5452173913043478 0.1166666666666667 0  0.5617391304347825 0.1166666666666667 0  0.5782608695652174 0.1166666666666667 0  0.5947826086956521 0.1166666666666667 0  0.6113043478260869 0.1166666666666667 0  0.6278260869565218 0.1166666666666667 0  0.6443478260869565 0.1166666666666667 0  0.6608695652173913 0.1166666666666667 0  0.677391304347826 0.1166666666666667 0  0.6939130434782609 0.1166666666666667 0  0.7104347826086956 0.1166666666666667 0  0.7269565217391304 0.1166666666666667 0  0.7434782608695653 0.1166666666666667 0  0.7599999999999999 0.1166666666666667 0  0.7765217391304348 0.1166666666666667 0  0.7930434782608695 0.1166666666666667 0  0.5452173913043478 0.1333333333333333 0  0.5617391304347825 0.1333333333333333 0  0.5782608695652174 0.1333333333333333 0  0.5947826086956521 0.1333333333333333 0  0.6113043478260869 0.1333333333333333 0  0.6278260869565218 0.1333333333333333 0  0.6443478260869565 0.1333333333333333 0  0.6608695652173913 0.1333333333333333 0  0.677391304347826 0.1333333333333333 0  0.6939130434782609 0.1333333333333333 0  0.7104347826086956 0.1333333333333333 0  0.7269565217391304 0.1333333333333333 0  0.7434782608695653 0.1333333333333333 0  0.7599999999999999 0.1333333333333333 0  0.7765217391304348 0.1333333333333333 0  0.7930434782608695 0.1333333333333333 0  0.8095652173913043 0.1333333333333333 0  0.5617391304347825 0.15 0  0.5782608695652174 0.15 0  0.5947826086956521 0.15 0  0.6113043478260869 0.15 0  0.6278260869565218 0.15 0  0.6443478260869565 0.15 0  0.6608695652173913 0.15 0  0.677391304347826 0.15 0  0.6939130434782609 0.15 0  0.7104347826086956 0.15 0  0.7269565217391304 0.15 0  0.7434782608695653 0.15 0  0.7599999999999999 0.15 0  0.7765217391304348 0.15 0  0.7930434782608695 0.15 0  0.8095652173913043 0.15 0  0.8260869565217391 0.15 0  0.5782608695652174 0.1666666666666667 0  0.5947826086956521 0.1666666666666667 0  0.6113043478260869 0.1666666666666667 0  0.6278260869565218 0.1666666666666667 0  0.6443478260869565 0.1666666666666667 0  0.6608695652173913 0.1666666666666667 0  0.677391304347826 0.1666666666666667 0  0.6939130434782609 0.1666666666666667 0  0.7104347826086956 0.1666666666666667 0  0.7269565217391304 0.1666666666666667 0  0.7434782608695653 0.1666666666666667 0  0.7599999999999999 0.1666666666666667 0  0.7765217391304348 0.1666666666666667 0  0.7930434782608695 0.1666666666666667 0  0.8095652173913043 0.1666666666666667 0  0.8260869565217391 0.1666666666666667 0  0.8426086956521739 0.1666666666666667 0  0.5947826086956521 0.1833333333333333 0  0.5782608695652174 0.1833333333333333 0  0.6113043478260869 0.1833333333333333 0  0.6278260869565218 0.1833333333333333 0  0.6443478260869565 0.1833333333333333 0  0.6608695652173913 0.1833333333333333 0  0.677391304347826 0.1833333333333333 0  0.6939130434782609 0.1833333333333333 0  0.7104347826086956 0.1833333333333333 0  0.7269565217391304 0.1833333333333333 0  0.7434782608695653 0.1833333333333333 0  0.7599999999999999 0.1833333333333333 0  0.7765217391304348 0.1833333333333333 0  0.7930434782608695 0.1833333333333333 0  0.8095652173913043 0.1833333333333333 0  0.8260869565217391 0.1833333333333333 0  0.8426086956521739 0.1833333333333333 0  0.8591304347826086 0.1833333333333333 0  0.5947826086956521 0.2 0  0.5782608695652174 0.2 0  0.6113043478260869 0.2 0  0.6278260869565218 0.2 0  0.6443478260869565 0.2 0  0.6608695652173913 0.2 0  0.677391304347826 0.2 0  0.6939130434782609 0.2 0  0.7104347826086956 0.2 0  0.7269565217391304 0.2 0  0.7434782608695653 0.2 0  0.7599999999999999 0.2 0  0.7765217391304348 0.2 0  0.7930434782608695 0.2 0  0.8095652173913043 0.2 0  0.8260869565217391 0.2 0  0.8426086956521739 0.2 0  0.8591304347826086 0.2 0  0.8756521739130434 0.2 0  0.5947826086956521 0.2166666666666667 0  0.5782608695652174 0.2166666666666667 0  0.6113043478260869 0.2166666666666667 0  0.6278260869565218 0.2166666666666667 0  0.6443478260869565 0.2166666666666667 0  0.6608695652173913 0.2166666666666667 0  0.677391304347826 0.2166666666666667 0  0.6939130434782609 0.2166666666666667 0  0.7104347826086956 0.2166666666666667 0  0.7269565217391304 0.2166666666666667 0  0.7434782608695653 0.2166666666666667 0  0.7599999999999999 0.2166666666666667 0  0.7765217391304348 0.2166666666666667 0  0.7930434782608695 0.2166666666666667 0  0.8095652173913043 0.2166666666666667 0  0.8260869565217391 0.2166666666666667 0  0.8426086956521739 0.2166666666666667 0  0.8591304347826086 0.2166666666666667 0  0.8756521739130434 0.2166666666666667 0  0.8921739130434783 0.2166666666666667 0  0.5947826086956521 0.2333333333333333 0  0.5782608695652174 0.2333333333333333 0  0.6113043478260869 0.2333333333333333 0  0.6278260869565218 0.2333333333333333 0  0.6443478260869565 0.2333333333333333 0  0.6608695652173913 0.2333333333333333 0  0.677391304347826 0.2333333333333333 0  0.6939130434782609 0.2333333333333333 0  0.7104347826086956 0.2333333333333333 0  0.7269565217391304 0.2333333333333333 0  0.7434782608695653 0.2333333333333333 0  0.7599999999999999 0.2333333333333333 0  0.7765217391304348 0.2333333333333333 0  0.7930434782608695 0.2333333333333333 0  0.8095652173913043 0.2333333333333333 0  0.8260869565217391 0.2333333333333333 0  0.8426086956521739 0.2333333333333333 0  0.8591304347826086 0.2333333333333333 0  0.8756521739130434 0.2333333333333333 0  0.8921739130434783 0.2333333333333333 0  0.908695652173913 0.2333333333333333 0  0.5947826086956521 0.25 0  0.6113043478260869 0.25 0  0.6278260869565218 0.25 0  0.6443
[...]
<PointData  Vectors="Displacement"> 
<DataArray  type="Float64"  Name="Displacement"  NumberOfComponents="3" format="ascii">1.2105294694659914e-04 9.5184707799674364e-04 0.0000000000000000e+00  1.2018198035960195e-04 9.9481643099880233e-04 0.0000000000000000e+00  7.7836253790205273e-05 9.9487369607772829e-04 0.0000000000000000e+00  1.1920755881502911e-04 1.0359879762081720e-03 0.0000000000000000e+00  7.8520467557218528e-05 1.0361085322233986e-03 0.0000000000000000e+00  1.1825290319943391e-04 1.0754111358200538e-03 0.0000000000000000e+00  7.9052168383268376e-05 1.0755379161685417e-03 0.0000000000000000e+00  1.1741463047218459e-04 1.1133624477933925e-03 0.0000000000000000e+00  7.9473601907156159e-05 1.1134866020743740e-03 0.0000000000000000e+00  1.1678183039778137e-04 1.1500634456985720e-03 0.0000000000000000e+00  7.9836041003935679e-05 1.1501630023150239e-03 0.0000000000000000e+00  1.1649370368971659e-04 1.1857240824462037e-03 0.0000000000000000e+00  8.0236789805874709e-05 1.1857478271627738e-03 0.0000000000000000e+00  1.1674911182219285e-04 1.2206192412805498e-03 0.0000000000000000e+00  8.0826641818134963e-05 1.2204871997702471e-03 0.0000000000000000e+00  1.1774192554507101e-04 1.2551856032438867e-03 0.0000000000000000e+00  8.1760788755095773e-05 1.2548209060058626e-03 0.0000000000000000e+00  1.1952021147117097e-04 1.2900719216536484e-03 0.0000000000000000e+00  8.3088643701917969e-05 1.2894647013814808e-03 0.0000000000000000e+00  1.2187380114372851e-04 1.3259909264668919e-03 0.0000000000000000e+00  8.4677386232234362e-05 1.3252284631471416e-03 0.0000000000000000e+00  1.2447568635276507e-04 1.3632513257045478e-03 0.0000000000000000e+00  8.6411678580819855e-05 1.3623976060214958e-03 0.0000000000000000e+00  1.2710962494750535e-04 1.4017566968753310e-03 0.0000000000000000e+00  8.8359972279725073e-05 1.4007033581628493e-03 0.0000000000000000e+00  1.2966966283726008e-04 1.4403388547034443e-03 0.0000000000000000e+00  9.1443915546592639e-05 1.4392655688991987e-03 0.0000000000000000e+00  1.3217622483994141e-04 1.4779194827534128e-03 0.0000000000000000e+00  9.5145040181882125e-05 1.4767378636629360e-03 0.0000000000000000e+00  1.3475348255412198e-04 1.5136000224154683e-03 0.0000000000000000e+00  9.9688419262684302e-05 1.5123904624471957e-03 0.0000000000000000e+00  1.3738394143269147e-04 1.5472705329861870e-03 0.0000000000000000e+00  1.0436817517482917e-04 1.5460624315243910e-03 0.0000000000000000e+00  1.4004430141175797e-04 1.5789163683640926e-03 0.0000000000000000e+00  1.0904215616061016e-04 1.5777248853088715e-03 0.0000000000000000e+00  1.4271583966507498e-04 1.6086194214654191e-03 0.0000000000000000e+00  1.1361047914628526e-04 1.6074638827486760e-03 0.0000000000000000e+00  3.8198075054605823e-05 1.0358374823301040e-03 0.0000000000000000e+00  4.0073644696680312e-05 1.0753020387197513e-03 0.0000000000000000e+00  4.1594854917109648e-05 1.1133571052290795e-03 0.0000000000000000e+00  4.2746910759251172e-05 1.1501529105549795e-03 0.0000000000000000e+00  4.3588752325629206e-05 1.1857892680197267e-03 0.0000000000000000e+00  4.4296251181505924e-05 1.2204213699235987e-03 0.0000000000000000e+00  4.5110854732795114e-05 1.2544734712794958e-03 0.0000000000000000e+00  4.6130749423068633e-05 1.2888234178671007e-03 0.0000000000000000e+00  4.7133192617290760e-05 1.3245638683740924e-03 0.0000000000000000e+00  4.7912181626105945e-05 1.3617940173038788e-03 0.0000000000000000e+00  4.8827133835802994e-05 1.3999767173304147e-03 0.0000000000000000e+00  5.0666370334339501e-05 1.4382950037606769e-03 0.0000000000000000e+00  5.5453315931145881e-05 1.4756512709916375e-03 0.0000000000000000e+00  6.3722899815988468e-05 1.5108771950341888e-03 0.0000000000000000e+00  7.0404932293523128e-05 1.5444906496433796e-03 0.0000000000000000e+00  7.7107523401293314e-05 1.5761484656082879e-03 0.0000000000000000e+00  8.3611610947813779e-05 1.6059394945829803e-03 0.0000000000000000e+00  1.8939377111698404e-06 1.0747615176447736e-03 0.0000000000000000e+00  4.4120778617373021e-06 1.1130586785683793e-03 0.0000000000000000e+00  6.2478572101437376e-06 1.1501729755829708e-03 0.0000000000000000e+00  7.3885861749414076e-06 1.1860417435404303e-03 0.0000000000000000e+00  8.0465024469580397e-06 1.2205825802816936e-03 0.0000000000000000e+00  8.6560565352423941e-06 1.2541367140692559e-03 0.0000000000000000e+00  9.4609440315331036e-06 1.2879505392189904e-03 0.0000000000000000e+00  1.0048569497547527e-05 1.3237500536043851e-03 0.0000000000000000e+00  1.0343695591910576e-05 1.3612234356482668e-03 0.0000000000000000e+00  1.0425208115248594e-05 1.3995396928355463e-03 0.0000000000000000e+00  1.6683252695037464e-05 1.4282847205597349e-03 0.0000000000000000e+00  2.4741761936547593e-05 1.4609690032864047e-03 0.0000000000000000e+00  3.3587940312221996e-05 1.4933606789638285e-03 0.0000000000000000e+00  4.2539451446684689e-05 1.5254120922879766e-03 0.0000000000000000e+00  5.1382495157538104e-05 1.5559079616123952e-03 0.0000000000000000e+00  6.0081024478089683e-05 1.5849557049355222e-03 0.0000000000000000e+00  6.8537852673290439e-05 1.6126407515767471e-03 0.0000000000000000e+00  -3.1507372603996189e-05 1.1126033301190976e-03 0.0000000000000000e+00  -2.8998470180233759e-05 1.1502839903000386e-03 0.0000000000000000e+00  -2.7546717295411426e-05 1.1866918103263723e-03 0.0000000000000000e+00  -2.7023401920908846e-05 1.2212017508423222e-03 0.0000000000000000e+00  -2.6726770297105596e-05 1.2538154971263691e-03 0.0000000000000000e+00  -2.6027103620655828e-05 1.2864640279884893e-03 0.0000000000000000e+00  -2.5413175450969348e-05 1.3222785275266351e-03 0.0000000000000000e+00  -2.5214675954770032e-05 1.3593860403149896e-03 0.0000000000000000e+00  -1.8884472423268573e-05 1.3875820086798733e-03 0.0000000000000000e+00  -1.0338380943588094e-05 1.4152345700818875e-03 0.0000000000000000e+00  -1.6394405469018180e-06 1.4450768497654457e-03 0.0000000000000000e+00  7.8396803045127652e-06 1.4754258279425258e-03 0.0000000000000000e+00  1.7807634655881326e-05 1.5056106703380335e-03 0.0000000000000000e+00  2.8117311503812015e-05 1.5348678890169914e-03 0.0000000000000000e+00  3.8531007762629184e-05 1.5630592323850371e-03 0.0000000000000000e+00  4.8899422256227854e-05 1.5902427524335826e-03 0.0000000000000000e+00  5.9094442373186531e-05 1.6165412479791060e-03 0.0000000000000000e+00  -6.2688022684932932e-05 1.1503947989816303e-03 0.0000000000000000e+00  -6.0481118495498454e-05 1.1878370644687803e-03 0.0000000000000000e+00  -5.9816239495950671e-05 1.2226263233029294e-03 0.0000000000000000e+00  -5.9858995509340363e-05 1.2536844636277086e-03 0.0000000000000000e+00  -5.9448766448530657e-05 1.2838028078874420e-03 0.0000000000000000e+00  -5.8654340588606442e-05 1.3186837549136298e-03 0.0000000000000000e+00  -5.2586469323702549e-05 1.3468780588713905e-03 0.0000000000000000e+00  -4.4018130103367029e-05 1.3735635634341936e-03 0.0000000000000000e+00  -3.5024550339488305e-05 1.4004427947618310e-03 0.0000000000000000e+00  -2.5646769758217753e-05 1.4285812493106866e-03 0.0000000000000000e+00  -1.5523970012615638e-05 1.4570343162660995e-03 0.0000000000000000e+00  -4.6606648781481139e-06 1.4853971364995496e-03 0.0000000000000000e+00  6.8040218769217207e-06 1.5132234686059225e-03 0.0000000000000000e+00  1.8636176799780453e-05 1.5403884087587243e-03 0.0000000000000000e+00  3.0622356644777403e-05 1.5669125795130965e-03 0.0000000000000000e+00  4.2584442664238453e-05 1.5928789892751577e-03 0.0000000000000000e+00  5.4379549649453165e-05 1.6183655987670703e-03 0.0000000000000000e+00  -8.9517355447876512e-05 1.1903243272920149e-03 0.0000000000000000e+00  -8.8536513163403542e-05 1.2252534102876525e-03 0.0000000000000000e+00  -8.8513821986056096e-05 1.2541116217617116e-03 0.0000000000000000e+00  -8.8473211088237254e-05 1.2799394235661066e-03 0.0000000000000000e+00  -8.6884375586240986e-05 1.3044696371486359e-03 0.0000000000000000e+00  -7.7785731437377166e-05 1.3326325391448547e-03 0.0000000000000000e+00  -6.8373051277214805e-05 1.3584752612619223e-03 0.0000000000000000e+00  -5.8624867136393377e-05 1.3847970497448958e-03 0.0000000000000000e+00  -4.8428398161487929e-05 1.4114587035866781e-03 0.0000000000000000e+00  -3.7435043424092389e-05 1.4381311034328552e-03 0.0000000000000000e+00  -2.5598125658704817e-05 1.4646924427259183e-03 0.0000000000000000e+00  -1.3019198637443957e-05 1.4909873278799366e-03 0.0000000000000000e+00  9.4291609534751480e-08 1.5169800746373386e-03 0.0000000000000000e+00  1.3512052103313933e-05 1.5427120872177540e-03 0.0000000000000000e+00  2.7017997875768577e-05 1.5682456328669596e-03 0.0000000000000000e+00  4.0428885293141278e-05 1.5936285431220785e-03 0.0000000000000000e+00  5.3597589419363898e-05 1.6188972104116926e-03 0.0000000000000000e+00  -1.1104328238347022e-04 1.2293210259199719e-03 0.0000000000000000e+00  -1.1138547172541809e-04 1.2555091874909062e-03 0.0000000000000000e+00  -1.1122347155878487e-04 1.2777065589461554e-03 0.0000000000000000e+00  -1.1058670421555334e-04 1.2953378831444290e-03 0.0000000000000000e+00  -1.0283818272346230e-04 1.3178215054189160e-03 0.0000000000000000e+00  -9.2412140655288098e-05 1.3425962470191180e-03 0.0000000000000000e+00  -8.1637797309700146e-05 1.3684274927813170e-03 0.0000000000000000e+00  -7.0383408479062187e-05 1.3936998809164170e-03 0.0000000000000000e+00  -5.8322689162071230e-05 1.4186058180929413e-03 0.0000000000000000e+00  -4.5388823146461454e-05 1.4433663818336228e-03 0.0000000000000000e+00  -3.1660173224972512e-05 1.4680662269032107e-03 0.0000000000000000e+00  -1.7311725348410195e-05 1.4927878316550009e-03 0.0000000000000000e+00  -2.5731816705123694e-06 1.5176344547486286e-03 0.0000000000000000e+00  1.2317972939199058e-05 1.5426688158193223e-03 0.0000000000000000e+00  2.7150901799181404e-05 1.5679076442282407e-03 0.0000000000000000e+00  4.1753134358150824e-05 1.5933429255386975e-03 0.0000000000000000e+00  5.5991666496669934e-05 1.6189547835756698e-03 0.0000000000000000e+00  -1.2952022883551154e-04 1.2583633168833917e-03 0.0000000000000000e+00  -1.2932862398932043e-04 1.2771185647604611e-03 0.0000000000000000e+00  -1.2908338590801688e-04 1.2923032989266767e-03 0.0000000000000000e+00  -1.2902768145622143e-04 1.3020058612013769e-03 0.0000000000000000e+00  -1.1658499733973584e-04 1.3254721920312091e-03 0.0000000000000000e+00  -1.0418587824757469e-04 1.3514483080121664e-03 0.0000000000000000e+00  -9.1572126046185747e-05 1.3752905568283603e-03 0.0000000000000000e+00  -7.8257498595902365e-05 1.3983740923789450e-03 0.0000000000000000e+00  -6.4137088260086915e-05 1.4213004258915541e-03 0.0000000000000000e+00  -4.9237776476746842e-05 1.4443486137645559e-03 0.0000000000000000e+00  -3.3686472454538845e-05 1.4677228028721026e-03 0.0000000000000000e+00  -1.7707855320991450e-05 1.4916270673374433e-03 0.0000000000000000e+00  -1.5563524427688528e-06 1.5161344322030424e-03 0.0000000000000000e+00  1.4538412685272332e-05 1.5412244224831963e-03 0.0000000000000000e+00  3.0387974654533739e-05 1.5668390275933063e-03 0.0000000000000000e+00  4.5844657988231219e-05 1.5929090025521022e-03 0.0000000000000000e+00  6.0798812309312625e-05 1.6193591332454046e-03 0.0000000000000000e+00  -1.4215725805535092e-04 1.2777238377593299e-03 0.0000000000000000e+00  -1.4187028821753517e-04 1.2909180287812379e-03 0.0000000000000000e+00  -1.4180121437016612e-04 1.2998900452855901e-03 0.0000000000000000e+00  -1.4177411733865979e-04 1.3056394145914531e-03 0.0000000000000000e+00  -1.2586678293509594e-04 1.3340711141692158e-03 0.0000000000000000e+00  -1.1152242542737384e-04 1.3562512182477113e-03 0.0000000000000000e+00  -9.6917733973944821e-05 1.3774016275422793e-03 0.0000000000000000e+00  -8.1683043654172247e-05 1.3984327068146437e-03 0.0000000000000000e+00  -6.5703773965570728e-05 1.4197511992257300e-03 0.0000000000000000e+00  -4.9031454952411585e-05 1.4416887410375208e-03 0.0000000000000000e+00  -3.1905396957367395e-05 1.4646155102699485e-03 0.0000000000000000e+00  -1.4613134922923419e-05 1.4886047477346096e-03 0.0000000000000000e+00  2.5964832817455875e-06 1.5135773435902490e-03 0.0000000000000000e+00  1.9524624568102099e-05 1.5394149821082047e-03 0.0000000000000000e+00  3.6014457316188178e-05 1.5659964017210619e-03 0.0000000000000000e+00  5.1948394121978812e-05 1.5931966242494098e-03 0.0000000000000000e+00  6.7247682336012469e-05 1.6208925129524666e-03 0.0000000000000000e+00  -1.5113949755377024e-04 1.2908208413472367e-03 0.0000000000000000e+00  -1.5066072676585195e-04 1.2989335148679744e-03 0.0000000000000000e+00  -1.5047876898958821e-04 1.3039041520096699e-03 0.0000000000000000e+00  -1.4209396377792174e-04 1.3178672837438057e-03 0.0000000000000000e+00  -1.2840219706591484e-04 1.3368867716426205e-03 0.0000000000000000e+00  -1.1351230758578108e-04 1.3558427849537410e-03 0.0000000000000000e+00  -9.7698192441715163e-05 1.3748325408540576e-03 0.0000000000000000e+00  -8.0941624428419829e-05 1.3942584027721828e-03 0.0000000000000000e+00  -6.3308976705799013e-05 1.4145963759477993e-03 0.0000000000000000e+00  -4.5154151770890677e-05 1.4365170588271545e-03 0.0000000000000000e+00  -2.6848746848637497e-05 1.4600319367940255e-03 0.0000000000000000e+00  -8.6693883936307533e-06 1.4849532427436596e-03 0.0000000000000000e+00  9.1775684096554901e-06 1.5110870307559431e-03 0.0000000000000000e+00  2.6527749590525354e-05 1.5382595489031926e-03 0.0000000000000000e+00  4.3257009732250470e-05 1.5662917935303847e-03 0.0000000000000000e+00  5.9285874920569912e-05 1.5950042148640696e-03 0.0000000000000000e+00  7.4576973931536709e-05 1.6242360213542294e-03 0.0000000000000000e+00  -1.5624302109220765e-04 1.2987922261421966e-03 0.0000000000000000e+00  -1.5712104585929008e-04 1.2916316927140555e-03 0.0000000000000000e+00  -1.5593446462875031e-04 1.3027808298753784e-03 0.0000000000000000e+00  -1.5602083911362257e-04 1.3027186033894445e-03 0.0000000000000000e+00  -1.4309132941855198e-04 1.3178084355558132e-03 0.0000000000000000e+00  -1.2833733662437292e-04 1.3341021617375543e-03 0.0000000000000000e+00  -1.1230075934669809e-04 1.3507149584984402e-03 0.0000000000000000e+00  -9.5024247536787309e-05 1.3679120083964983e-03 0.0000000000000000e+00  -7.6551040294321596e-05 1.3863308810717009e-03 0.0000000000000000e+00  -5.7467611852736862e-05 1.4072327269790347e-03 0.0000000000000000e+00  -3.8275700633073960e-05 1.4303627137190677e-03 0.0000000000000000e+00  -1.9270111179404038e-05 1.4553331380146378e-03 0.0000000000000000e+00  -6.5575630289901665e-07 1.4818623668661636e-03 0.0000000000000000e+00  1.7393317731713123e-05 1.5097328100784212e-03 0.0000000000000000e+00  3.4743380336690313e-05 1.5387059305906146e-03 0.0000000000000000e+00  5.1316026669900386e-05 1.5685337242728743e-03 0.0000000000000000e+00  6.7085397333582918e-05 1.5989953381834910e-03 0.0000000000000000e+00  8.2063489341634315e-05 1.6299221319771892e-03 0.0000000000000000e+00  -1.5827410342591911e-04 1.2993524452410176e-03 0.0000000000000000e+00  -1.5950936733412263e-04 1.2927280868789549e-03 0.0000000000000000e+00  -1.5723250391197916e-04 1.3024742774466840e-03 0.0000000000000000e+00  -1.5684347806992730e-04 1.3021044473415812e-03 0.0000000000000000e+00  -1.5689524318989237e-04 1.2984465693807125e-03 0.0000000000000000e+00  -1.4175727200692833e-04 1.3122505321038090e-03 0.0000000000000000e+00  -1.2557813674806496e-04 1.3262310340378608e-03 0.0000000000000000e+00  -1.0802569658674275e-04 1.3407196617219353e-03 0.0000000000000000e+00  -8.8792147073334020e-05 1.3566568605121244e-03 0.0000000000000000e+00  -6.8873533355005712e-05 1.3766267431089387e-03 0.0000000000000000e+00  -4.8934482454319180e-05 1.3995400296594521e-03 0.0000000000000000e+00  -2.9247050411771257e-05 1.4246934091761677e-03 0.0000000000000000e+00  -1.0003354837690578e-05 1.4517374778100056e-03 0.0000000000000000e+00  8.5990700644400355e-06 1.4804423632437495e-03 0.0000000000000000e+00  2.6406419820361927e-05 1.5104985282428658e-03 0.0000000000000000e+00  4.3342647647983175e-05 1.5415676002726996e-03 0.0000000000000000e+00  5.9401714564822016e-05 1.5733544267081485e-03 0.0000000000000000e+00  7.4621973481575857e-05 1.6056439413522532e-03 0.0000000000000000e+00  8.9060620610012956e-05 1.6383061238750894e-03 0.0000000000000000e+00  -1.5674596613132386e-04 1.3001298843157833e-03 0.0000000000000000e+00  -1.5497775668441865e-04 1.2650888256302663e-03 0.0000000000000000e+00  -1.5526171210980999e-04 1.3027962562432705e-03 0.0000000000000000e+00  -1.5393247251286522e-04 1.3020131381452794e-03 0.0000000000000000e+00  -1.5342131600405744e-04 1.2982780837569306e-03 0.0000000000000000e+00  -1.5337026488625370e-04 1.2901482605843059e-03 0.0000000000000000e+00  -1.3700727950522549e-04 1.3016550398722980e-03 0.0000000000000000e+00  -1.1983934079563012e-04 1.3127635531963670e-03 0.0000000000000000e+00  -1.0007693058976293e-04 1.3251225263209538e-03 0.0000000000000000e+00  -7.9471027606695086e-05 1.3445405308576005e-03 0.0000000000000000e+00  -5.8945607008073267e-05 1.3675163533468984e-03 0.0000000000000000e+00  -3.8701450078024195e-05 1.3930029669186193e-03 0.0000000000000000e+00  -1.8928649862716471e-05 1.4206884421943387e-03 0.0000000000000000e+00  1.1167164733963467e-07 1.4504022603750830e-03 0.0000000000000000e+00  1.8227287877350461e-05 1.4817296939978128e-03 0.0000000000000000e+00  3.5350587953932894e-05 1.5142009863171432e-03 0.0000000000000000e+00  5.1510586211161109e-05 1.5474264108329612e-03 0.0000000000000000e+00  6.6786201783454048e-05 1.5811427608858619e-03 0.0000000000000000e+00  8.1268732948928501e-05 1.6152073210648401e-03 0.0000000000000000e+00  9.5039126531143889e-05 1.6495713843914035e-03 0.0000000000000000e+00  -1.4872213097994231e-04 1.2721887740336419e-03 0.0000000000000000e+00  -1.4775863961661968e-04 1.2382516952954403e-03 0.0000000000000000e+00  -1.4913286740181832e-04 1.3038233769483677e-03 0.0000000000000000e+00  -1.4803318894881286e-04 1.3019701676454513e-03 0.0000000000000000e+00  -1.4587058786169832e-04 1.2984528160017025e-03 0.0000000000000000e+00  -1.4467304144537204e-04 1.2902176595515830e-03 0.0000000000000000e+00  -1.4397609831496333e-04 1.2781421646209795e-03 0.0000000000000000e+00  -1.2975673754426838e-04 1.2848274835141587e-03 0.0000000000000000e+00  -1.1094048219495338e-04 1.2908013106497141e-03 0.0000000000000000e+00  -8.9729218670989513e-05 1.3108177590172470e-03 0.0000000000000000e+00  -6.8627915515823354e-05 1.3342507534236595e-03 0.0000000000000000e+00  -4.7819358177051702e-05 1.3601997494739277e-03 0.0000000000000000e+00  -2.7520520013032622e-05 1.3886459665211391e-03 0.0000000000000000e+00  -8.1090141402671566e-06 1.4196076349176890e-03 0.0000000000000000e+00  1.0178204985569441e-05 1.4524652183331955e-03 0.0000000000000000e+00  2.7308358863740899e-05 1.4865459430438552e-03 0.0000000000000000e+00  4.3374731069477120e-05 1.5213418162548036e-03 0.0000000000000000e+00  5.8517278345133328e-05 1.5565471201130488e-03 0.0000000000000000e+00  7.2872167956305659e-05 1.5920235977575008e-03 0.0000000000000000e+00  8.6547454598163959e-05 1.6277497642064893e-03 0.0000000000000000e+00  9.9615412185437231e-05 1.6637759472567649e-03 0.0000000000000000e+00  -1.3646772806479203e-04 1.2439234009480075e-03 0.0000000000000000e+00  -1.3437629963736856e-04 1.2707596678941608e-03 0.0000000000000000e+00  -1.3200944170284115e-04 1.2820610063843537e-03 0.0000000000000000e+00  -1.3324618944783091e-04 1.2987955952818903e-03 0.0000000000000000e+00  -1.3104335419741926e-04 1.2904147641937993e-03 0.0000000000000000e+00  -1.2951106157607382e-04 1.2784164621800805e-03 0.0000000000000000e+00  -1.2812586175883341e-04 1.2648820197712746e-03 0.0000000000000000e+00  -1.2745230327291287e-04 1.2503578732197713e-03 0.0000000000000000e+00  -1.0131461019294783e-04 1.2751345039689371e-03 0.0000000000000000e+00  -7.8446178090980006e-05 1.2996282151282721e-03 0.0000000000000000e+00  -5.6725127838841594e-05 1.3261439861324768e-03 0.0000000000000000e+00  -3.5794459002425576e-05 1.3554623830698660e-03 0.0000000000000000e+00  -1.6063526407080766e-05 1.3880378513978686e-03 0.0000000000000000e+00  2.2366127078129843e-06 1.4227927158966629e-03 0.0000000