<?xml version="1.0"?>
<VTKFile type="UnstructuredGrid"  version="0.1"  >
<UnstructuredGrid>
<Piece  NumberOfPoints="640" NumberOfCells="1181">
<Points>
<DataArray  type="Float64"  NumberOfComponents="3"  format="ascii">2.973913043478261 0 0  2.990434782608696 0 0  2.990434782608696 0.01666666666666667 0  2.973913043478261 0.01666666666666667 0  3.006956521739131 0 0  3.006956521739131 0.01666666666666667 0  3.023478260869565 0 0  3.023478260869565 0.01666666666666667 0  3.04 0 0  3.04 0.01666666666666667 0  3.056521739130435 0 0  3.056521739130435 0.01666666666666667 0  3.073043478260869 0 0  3.073043478260869 0.01666666666666667 0  3.089565217391304 0 0  3.089565217391304 0.01666666666666667 0  3.106086956521739 0 0  3.106086956521739 0.01666666666666667 0  3.122608695652174 0 0  3.122608695652174 0.01666666666666667 0  3.139130434782609 0 0  3.139130434782609 0.01666666666666667 0  3.155652173913043 0 0  3.155652173913043 0.01666666666666667 0  3.172173913043478 0 0  3.172173913043478 0.01666666666666667 0  3.188695652173913 0 0  3.188695652173913 0.01666666666666667 0  3.205217391304347 0 0  3.205217391304347 0.01666666666666667 0  3.221739130434782 0 0  3.221739130434782 0.01666666666666667 0  3.238260869565217 0 0  3.238260869565217 0.01666666666666667 0  2.990434782608696 0.03333333333333333 0  2.973913043478261 0.03333333333333333 0  3.006956521739131 0.03333333333333333 0  3.023478260869565 0.03333333333333333 0  3.04 0.03333333333333333 0  3.056521739130435 0.03333333333333333 0  3.073043478260869 0.03333333333333333 0  3.089565217391304 0.03333333333333333 0  3.106086956521739 0.03333333333333333 0  3.122608695652174 0.03333333333333333 0  3.139130434782609 0.03333333333333333 0  3.155652173913043 0.03333333333333333 0  3.172173913043478 0.03333333333333333 0  3.188695652173913 0.03333333333333333 0  3.205217391304347 0.03333333333333333 0  3.221739130434782 0.03333333333333333 0  3.238260869565217 0.03333333333333333 0  3.254782608695652 0.03333333333333333 0  2.990434782608696 0.05 0  3.006956521739131 0.05 0  3.023478260869565 0.05 0  3.04 0.05 0  3.056521739130435 0.05 0  3.073043478260869 0.05 0  3.089565217391304 0.05 0  3.106086956521739 0.05 0  3.122608695652174 0.05 0  3.139130434782609 0.05 0  3.155652173913043 0.05 0  3.172173913043478 0.05 0  3.188695652173913 0.05 0  3.205217391304347 0.05 0  3.221739130434782 0.05 0  3.238260869565217 0.05 0  3.254782608695652 0.05 0  3.271304347826087 0.05 0  3.006956521739131 0.06666666666666667 0  2.990434782608696 0.06666666666666667 0  3.023478260869565 0.06666666666666667 0  3.04 0.06666666666666667 0  3.056521739130435 0.06666666666666667 0  3.073043478260869 0.06666666666666667 0  3.089565217391304 0.06666666666666667 0  3.106086956521739 0.06666666666666667 0  3.122608695652174 0.06666666666666667 0  3.139130434782609 0.06666666666666667 0  3.155652173913043 0.06666666666666667 0  3.172173913043478 0.06666666666666667 0  3.188695652173913 0.06666666666666667 0  3.205217391304347 0.06666666666666667 0  3.221739130434782 0.06666666666666667 0  3.238260869565217 0.06666666666666667 0  3.254782608695652 0.06666666666666667 0  3.271304347826087 0.06666666666666667 0  3.287826086956521 0.06666666666666667 0  3.006956521739131 0.08333333333333333 0  3.023478260869565 0.08333333333333333 0  3.04 0.08333333333333333 0  3.056521739130435 0.08333333333333333 0  3.073043478260869 0.08333333333333333 0  3.089565217391304 0.08333333333333333 0  3.106086956521739 0.08333333333333333 0  3.122608695652174 0.08333333333333333 0  3.139130434782609 0.08333333333333333 0  3.155652173913043 0.08333333333333333 0  3.172173913043478 0.08333333333333333 0  3.188695652173913 0.08333333333333333 0  3.205217391304347 0.08333333333333333 0  3.221739130434782 0.08333333333333333 0  3.238260869565217 0.08333333333333333 0  3.254782608695652 0.08333333333333333 0  3.271304347826087 0.08333333333333333 0  3.287826086956521 0.08333333333333333 0  3.304347826086957 0.08333333333333333 0  3.023478260869565 0.1 0  3.006956521739131 0.1 0  3.04 0.1 0  3.056521739130435 0.1 0  3.073043478260869 0.1 0  3.089565217391304 0.1 0  3.106086956521739 0.1 0  3.122608695652174 0.1 0  3.139130434782609 0.1 0  3.155652173913043 0.1 0  3.172173913043478 0.1 0  3.188695652173913 0.1 0  3.205217391304347 0.1 0  3.221739130434782 0.1 0  3.238260869565217 0.1 0  3.254782608695652 0.1 0  3.271304347826087 0.1 0  3.287826086956521 0.1 0  3.304347826086957 0.1 0  3.320869565217391 0.1 0  3.023478260869565 0.1166666666666667 0  3.04 0.1166666666666667 0  3.056521739130435 0.1166666666666667 0  3.073043478260869 0.1166666666666667 0  3.089565217391304 0.1166666666666667 0  3.106086956521739 0.1166666666666667 0  3.122608695652174 0.1166666666666667 0  3.139130434782609 0.1166666666666667 0  3.155652173913043 0.1166666666666667 0  3.172173913043478 0.1166666666666667 0  3.188695652173913 0.1166666666666667 0  3.205217391304347 0.1166666666666667 0  3.221739130434782 0.1166666666666667 0  3.238260869565217 0.1166666666666667 0  3.254782608695652 0.1166666666666667 0  3.271304347826087 0.1166666666666667 0  3.287826086956521 0.1166666666666667 0  3.304347826086957 0.1166666666666667 0  3.320869565217391 0.1166666666666667 0  3.337391304347826 0.1166666666666667 0  3.04 0.1333333333333333 0  3.023478260869565 0.1333333333333333 0  3.056521739130435 0.1333333333333333 0  3.073043478260869 0.1333333333333333 0  3.089565217391304 0.1333333333333333 0  3.106086956521739 0.1333333333333333 0  3.122608695652174 0.1333333333333333 0  3.139130434782609 0.1333333333333333 0  3.155652173913043 0.1333333333333333 0  3.172173913043478 0.1333333333333333 0  3.188695652173913 0.1333333333333333 0  3.205217391304347 0.1333333333333333 0  3.221739130434782 0.1333333333333333 0  3.238260869565217 0.1333333333333333 0  3.254782608695652 0.1333333333333333 0  3.271304347826087 0.1333333333333333 0  3.287826086956521 0.1333333333333333 0  3.304347826086957 0.1333333333333333 0  3.320869565217391 0.1333333333333333 0  3.337391304347826 0.1333333333333333 0  3.353913043478261 0.1333333333333333 0  3.04 0.15 0  3.056521739130435 0.15 0  3.073043478260869 0.15 0  3.089565217391304 0.15 0  3.106086956521739 0.15 0  3.122608695652174 0.15 0  3.139130434782609 0.15 0  3.155652173913043 0.15 0  3.172173913043478 0.15 0  3.188695652173913 0.15 0  3.205217391304347 0.15 0  3.221739130434782 0.15 0  3.238260869565217 0.15 0  3.254782608695652 0.15 0  3.271304347826087 0.15 0  3.287826086956521 0.15 0  3.304347826086957 0.15 0  3.320869565217391 0.15 0  3.337391304347826 0.15 0  3.353913043478261 0.15 0  3.370434782608696 0.15 0  3.056521739130435 0.1666666666666667 0  3.073043478260869 0.1666666666666667 0  3.089565217391304 0.1666666666666667 0  3.106086956521739 0.1666666666666667 0  3.122608695652174 0.1666666666666667 0  3.139130434782609 0.1666666666666667 0  3.155652173913043 0.1666666666666667 0  3.172173913043478 0.1666666666666667 0  3.188695652173913 0.1666666666666667 0  3.205217391304347 0.1666666666666667 0  3.221739130434782 0.1666666666666667 0  3.238260869565217 0.1666666666666667 0  3.254782608695652 0.1666666666666667 0  3.271304347826087 0.1666666666666667 0  3.287826086956521 0.1666666666666667 0  3.304347826086957 0.1666666666666667 0  3.320869565217391 0.1666666666666667 0  3.337391304347826 0.1666666666666667 0  3.353913043478261 0.1666666666666667 0  3.370434782608696 0.1666666666666667 0  3.386956521739131 0.1666666666666667 0  3.073043478260869 0.1833333333333333 0  3.089565217391304 0.1833333333333333 0  3.106086956521739 0.1833333333333333 0  3.122608695652174 0.1833333333333333 0  3.139130434782609 0.1833333333333333 0  3.155652173913043 0.1833333333333333 0  3.172173913043478 0.1833333333333333 0  3.188695652173913 0.1833333333333333 0  3.205217391304347 0.1833333333333333 0  3.221739130434782 0.1833333333333333 0  3.238260869565217 0.1833333333333333 0  3.254782608695652 0.1833333333333333 0  3.271304347826087 0.1833333333333333 0  3.287826086956521 0.1833333333333333 0  3.304347826086957 0.1833333333333333 0  3.320869565217391 0.1833333333333333 0  3.337391304347826 0.1833333333333333 0  3.353913043478261 0.1833333333333333 0  3.370434782608696 0.1833333333333333 0  3.386956521739131 0.1833333333333333 0  3.403478260869565 0.1833333333333333 0  3.089565217391304 0.2 0  3.106086956521739 0.2 0  3.122608695652174 0.2 0  3.139130434782609 0.2 0  3.155652173913043 0.2 0  3.172173913043478 0.2 0  3.188695652173913 0.2 0  3.205217391304347 0.2 0  3.221739130434782 0.2 0  3.238260869565217 0.2 0  3.254782608695652 0.2 0  3.271304347826087 0.2 0  3.287826086956521 0.2 0  3.304347826086957 0.2 0  3.320869565217391 0.2 0  3.337391304347826 0.2 0  3.353913043478261 0.2 0  3.370434782608696 0.2 0  3.386956521739131 0.2 0  3.403478260869565 0.2 0  3.419999999999999 0.2 0  3.106086956521739 0.2166666666666667 0  3.122608695652174 0.2166666666666667 0  3.139130434782609 0.2166666666666667 0  3.155652173913043 0.2166666666666667 0  3.172173913043478 0.2166666666666667 0  3.188695652173913 0.2166666666666667 0  3.205217391304347 0.2166666666666667 0  3.221739130434782 0.2166666666666667 0  3.238260869565217 0.2166666666666667 0  3.254782608695652 0.2166666666666667 0  3.271304347826087 0.2166666666666667 0  3.287826086956521 0.2166666666666667 0  3.304347826086957 0.2166666666666667 0  3.320869565217391 0.2166666666666667 0  3.337391304347826 0.2166666666666667 0  3.353913043478261 0.2166666666666667 0  3.370434782608696 0.2166666666666667 0  3.386956521739131 0.2166666666666667 0  3.403478260869565 0.2166666666666667 0  3.419999999999999 0.2166666666666667 0  3.436521739130435 0.2166666666666667 0  3.122608695652174 0.2333333333333333 0  3.139130434782609 0.2333333333333333 0  3.155652173913043 0.2333333333333333 0  3.172173913043478 0.2333333333333333 0  3.188695652173913 0.2333333333333333 0  3.205217391304347 0.2333333333333333 0  3.221739130434782 0.2333333333333333 0  3.238260869565217 0.2333333333333333 0  3.254782
[...]
<PointData  Vectors="Displacement"> 
<DataArray  type="Float64"  Name="Displacement"  NumberOfComponents="3" format="ascii">2.9568606276764913e-04 4.0278273478941730e-03 0.0000000000000000e+00  2.9610380517009638e-04 4.0461962652103634e-03 0.0000000000000000e+00  2.7780444154592031e-04 4.0459837564283214e-03 0.0000000000000000e+00  2.7656349599105521e-04 4.0275941399282623e-03 0.0000000000000000e+00  2.9661685646825724e-04 4.0638223683948996e-03 0.0000000000000000e+00  2.7886664382615993e-04 4.0636090823768772e-03 0.0000000000000000e+00  2.9722830346783357e-04 4.0810969741918307e-03 0.0000000000000000e+00  2.7973457625366373e-04 4.0808810293128462e-03 0.0000000000000000e+00  2.9792397639032288e-04 4.0982655389904454e-03 0.0000000000000000e+00  2.8047930175767943e-04 4.0980427525494217e-03 0.0000000000000000e+00  2.9868843625407092e-04 4.1154960495533291e-03 0.0000000000000000e+00  2.8115191297654619e-04 4.1152630634595988e-03 0.0000000000000000e+00  2.9950484460703554e-04 4.1328940384988428e-03 0.0000000000000000e+00  2.8179333837358595e-04 4.1326525558237287e-03 0.0000000000000000e+00  3.0036081511944932e-04 4.1505147211046388e-03 0.0000000000000000e+00  2.8242618684532600e-04 4.1502617440465775e-03 0.0000000000000000e+00  3.0123844865621798e-04 4.1684100270044846e-03 0.0000000000000000e+00  2.8305819537206682e-04 4.1681450244419561e-03 0.0000000000000000e+00  3.0209568173286222e-04 4.1866275157396255e-03 0.0000000000000000e+00  2.8368086060996786e-04 4.1863589690758398e-03 0.0000000000000000e+00  3.0285168405558445e-04 4.2051781004181256e-03 0.0000000000000000e+00  2.8426767390024674e-04 4.2049327987958582e-03 0.0000000000000000e+00  3.0339151630231803e-04 4.2239579605584492e-03 0.0000000000000000e+00  2.8477928162617966e-04 4.2237959401923153e-03 0.0000000000000000e+00  3.0359826872651031e-04 4.2426812293934356e-03 0.0000000000000000e+00  2.8512734901459954e-04 4.2427210347942687e-03 0.0000000000000000e+00  3.0373119344668977e-04 4.2615520787215901e-03 0.0000000000000000e+00  2.8523547099545732e-04 4.2616904751795730e-03 0.0000000000000000e+00  3.0926238360452118e-04 4.2845324851214618e-03 0.0000000000000000e+00  2.8822843712250423e-04 4.2833241806169752e-03 0.0000000000000000e+00  3.1348633247701237e-04 4.3070326080127917e-03 0.0000000000000000e+00  2.9145795813391364e-04 4.3059038968065238e-03 0.0000000000000000e+00  3.1710378889076196e-04 4.3298295922775329e-03 0.0000000000000000e+00  2.9439843408464385e-04 4.3288030664189164e-03 0.0000000000000000e+00  2.5979915977569052e-04 4.0455471990213723e-03 0.0000000000000000e+00  2.5711583386032750e-04 4.0271212852242061e-03 0.0000000000000000e+00  2.6169236285436152e-04 4.0633339520168201e-03 0.0000000000000000e+00  2.6255604575681489e-04 4.0806313470376256e-03 0.0000000000000000e+00  2.6325689561092935e-04 4.0978547208968766e-03 0.0000000000000000e+00  2.6371729151408236e-04 4.1150786685618225e-03 0.0000000000000000e+00  2.6413374869310686e-04 4.1324712000314111e-03 0.0000000000000000e+00  2.6453903049525112e-04 4.1500630543135882e-03 0.0000000000000000e+00  2.6495373524169452e-04 4.1679129644487884e-03 0.0000000000000000e+00  2.6538773881021267e-04 4.1860915821954128e-03 0.0000000000000000e+00  2.6583989058828332e-04 4.2046561791161128e-03 0.0000000000000000e+00  2.6632001409750860e-04 4.2235682089006308e-03 0.0000000000000000e+00  2.6682924780193175e-04 4.2427534102387867e-03 0.0000000000000000e+00  2.6733172833352380e-04 4.2622888876882939e-03 0.0000000000000000e+00  2.6811741375780022e-04 4.2829843899024455e-03 0.0000000000000000e+00  2.7033431656848584e-04 4.3052713464338931e-03 0.0000000000000000e+00  2.7246530449168236e-04 4.3280642478279591e-03 0.0000000000000000e+00  2.7446203583822215e-04 4.3514453886111673e-03 0.0000000000000000e+00  2.4278375956141270e-04 4.0439989286798735e-03 0.0000000000000000e+00  2.4422721711252009e-04 4.0623307951555988e-03 0.0000000000000000e+00  2.4525034190769603e-04 4.0803446784266444e-03 0.0000000000000000e+00  2.4624090534200612e-04 4.0977811971064718e-03 0.0000000000000000e+00  2.4643328481326710e-04 4.1150092554582693e-03 0.0000000000000000e+00  2.4654781317258874e-04 4.1323810281856284e-03 0.0000000000000000e+00  2.4670362736060430e-04 4.1499301856801991e-03 0.0000000000000000e+00  2.4688738516761015e-04 4.1677171525545476e-03 0.0000000000000000e+00  2.4709653947302976e-04 4.1858325271400152e-03 0.0000000000000000e+00  2.4732022018441880e-04 4.2043754710107779e-03 0.0000000000000000e+00  2.4759407858836765e-04 4.2233036430907832e-03 0.0000000000000000e+00  2.4796697397286158e-04 4.2426179753198238e-03 0.0000000000000000e+00  2.4845258882803887e-04 4.2624773070189578e-03 0.0000000000000000e+00  2.4914733080806434e-04 4.2832514432381494e-03 0.0000000000000000e+00  2.5011038392172146e-04 4.3051912672155638e-03 0.0000000000000000e+00  2.5109265066491470e-04 4.3276389946488927e-03 0.0000000000000000e+00  2.5236615560378627e-04 4.3509739452279464e-03 0.0000000000000000e+00  2.5365452884998260e-04 4.3747614375965315e-03 0.0000000000000000e+00  2.2720059521274839e-04 4.0616379572215953e-03 0.0000000000000000e+00  2.2610466228944977e-04 4.0430193478770233e-03 0.0000000000000000e+00  2.2807147515893579e-04 4.0799439958202604e-03 0.0000000000000000e+00  2.2861084258484477e-04 4.0977696772420882e-03 0.0000000000000000e+00  2.2893670733838790e-04 4.1150588464862314e-03 0.0000000000000000e+00  2.2892446787456904e-04 4.1323900555502073e-03 0.0000000000000000e+00  2.2890617549391871e-04 4.1498720779872865e-03 0.0000000000000000e+00  2.2887481200264969e-04 4.1675790593649420e-03 0.0000000000000000e+00  2.2880905326606938e-04 4.1856266166554789e-03 0.0000000000000000e+00  2.2866457689970805e-04 4.2041850234988340e-03 0.0000000000000000e+00  2.2850627720033166e-04 4.2231184184706181e-03 0.0000000000000000e+00  2.2845641608082795e-04 4.2424775564114010e-03 0.0000000000000000e+00  2.2853931450227686e-04 4.2625132562977286e-03 0.0000000000000000e+00  2.2877572693685527e-04 4.2833619182941736e-03 0.0000000000000000e+00  2.2921668716340820e-04 4.3051593137700571e-03 0.0000000000000000e+00  2.2989741681882290e-04 4.3276312554773313e-03 0.0000000000000000e+00  2.3068145748580138e-04 4.3508895678472954e-03 0.0000000000000000e+00  2.3107912767064145e-04 4.3742674701231924e-03 0.0000000000000000e+00  2.3201340086429224e-04 4.3989774875128305e-03 0.0000000000000000e+00  2.1036416520761798e-04 4.0612513522062946e-03 0.0000000000000000e+00  2.1098726059491239e-04 4.0797634806536750e-03 0.0000000000000000e+00  2.1151068727532862e-04 4.0982082481580617e-03 0.0000000000000000e+00  2.1149130024477445e-04 4.1151947175053320e-03 0.0000000000000000e+00  2.1141466633267197e-04 4.1324290280270216e-03 0.0000000000000000e+00  2.1128084017670520e-04 4.1498564535876739e-03 0.0000000000000000e+00  2.1106828646609834e-04 4.1674983237323052e-03 0.0000000000000000e+00  2.1070049852673392e-04 4.1855244266042653e-03 0.0000000000000000e+00  2.1000250086644577e-04 4.2042107632696921e-03 0.0000000000000000e+00  2.0918665638239414e-04 4.2231770883617457e-03 0.0000000000000000e+00  2.0840909462278194e-04 4.2424335454115687e-03 0.0000000000000000e+00  2.0793969398328807e-04 4.2625577571240884e-03 0.0000000000000000e+00  2.0772706808227449e-04 4.2834497982751438e-03 0.0000000000000000e+00  2.0772947044366119e-04 4.3052283042363899e-03 0.0000000000000000e+00  2.0794930629526625e-04 4.3277046669346845e-03 0.0000000000000000e+00  2.0834523198894170e-04 4.3508873984544070e-03 0.0000000000000000e+00  2.0887637675674747e-04 4.3745719398071590e-03 0.0000000000000000e+00  2.0951384150199215e-04 4.3988820718520736e-03 0.0000000000000000e+00  2.0981491993460176e-04 4.4238118432231317e-03 0.0000000000000000e+00  1.9419668977272914e-04 4.0797471249025769e-03 0.0000000000000000e+00  1.9380096623493516e-04 4.0611436599494047e-03 0.0000000000000000e+00  1.9454694438113043e-04 4.0979949085349432e-03 0.0000000000000000e+00  1.9437936638709799e-04 4.1152414943324616e-03 0.0000000000000000e+00  1.9425370534851576e-04 4.1324455133327437e-03 0.0000000000000000e+00  1.9406622254302482e-04 4.1498137611150907e-03 0.0000000000000000e+00  1.9383195026697261e-04 4.1673388722315357e-03 0.0000000000000000e+00  1.9348964532914855e-04 4.1853313119853530e-03 0.0000000000000000e+00  1.9236977892639302e-04 4.2042307923406260e-03 0.0000000000000000e+00  1.9005770648552740e-04 4.2234484329191670e-03 0.0000000000000000e+00  1.8800066158792717e-04 4.2427192571252237e-03 0.0000000000000000e+00  1.8650717283402913e-04 4.2626458703379196e-03 0.0000000000000000e+00  1.8594281322084567e-04 4.2835020303148971e-03 0.0000000000000000e+00  1.8559956906303831e-04 4.3053194649829343e-03 0.0000000000000000e+00  1.8548259369277514e-04 4.3277969319071357e-03 0.0000000000000000e+00  1.8556528128614133e-04 4.3509589612087092e-03 0.0000000000000000e+00  1.8583507032452731e-04 4.3746844958323806e-03 0.0000000000000000e+00  1.8628807042995712e-04 4.3989920604724630e-03 0.0000000000000000e+00  1.8684508161075206e-04 4.4238966599214214e-03 0.0000000000000000e+00  1.8712401579147738e-04 4.4488311440620361e-03 0.0000000000000000e+00  1.7804085890123984e-04 4.0801284186921735e-03 0.0000000000000000e+00  1.7779439644254025e-04 4.0977888367409827e-03 0.0000000000000000e+00  1.7759079974500355e-04 4.1151658804733848e-03 0.0000000000000000e+00  1.7739243251291281e-04 4.1324217194432800e-03 0.0000000000000000e+00  1.7720525555804659e-04 4.1497109840276320e-03 0.0000000000000000e+00  1.7704434739150600e-04 4.1670840138096060e-03 0.0000000000000000e+00  1.7692853149939069e-04 4.1846329405707790e-03 0.0000000000000000e+00  1.7500037879361296e-04 4.2066710770294613e-03 0.0000000000000000e+00  1.7229329937276400e-04 4.2271172394887204e-03 0.0000000000000000e+00  1.6944574697477584e-04 4.2468928773936217e-03 0.0000000000000000e+00  1.6658161969000912e-04 4.2663415273192290e-03 0.0000000000000000e+00  1.6317952186045039e-04 4.2834917118166433e-03 0.0000000000000000e+00  1.6274338652472970e-04 4.3053806365841744e-03 0.0000000000000000e+00  1.6239068101488589e-04 4.3278580808660833e-03 0.0000000000000000e+00  1.6220718852324060e-04 4.3510376717977592e-03 0.0000000000000000e+00  1.6219618294816828e-04 4.3747936853355462e-03 0.0000000000000000e+00  1.6232902621796620e-04 4.3991012506550261e-03 0.0000000000000000e+00  1.6258412768218071e-04 4.4239286109322273e-03 0.0000000000000000e+00  1.6292603367530517e-04 4.4490392177878599e-03 0.0000000000000000e+00  1.6333292255843728e-04 4.4745756045684948e-03 0.0000000000000000e+00  1.6092899075068184e-04 4.0976167215596385e-03 0.0000000000000000e+00  1.6119429507826453e-04 4.0798364077529363e-03 0.0000000000000000e+00  1.6070714027381313e-04 4.1150853012991559e-03 0.0000000000000000e+00  1.6051682571004253e-04 4.1323949716168271e-03 0.0000000000000000e+00  1.6037718929924006e-04 4.1496127822644741e-03 0.0000000000000000e+00  1.6027050886945822e-04 4.1668205755298424e-03 0.0000000000000000e+00  1.5891563886342425e-04 4.1876534071918683e-03 0.0000000000000000e+00  1.5608680214466785e-04 4.2099812633786355e-03 0.0000000000000000e+00  1.5321252680653249e-04 4.2311942142013535e-03 0.0000000000000000e+00  1.5022457468757700e-04 4.2514822414837289e-03 0.0000000000000000e+00  1.4724380663475744e-04 4.2711417942932197e-03 0.0000000000000000e+00  1.4425516086176288e-04 4.2898150812315065e-03 0.0000000000000000e+00  1.4130673326313690e-04 4.3095418650491114e-03 0.0000000000000000e+00  1.3868380254345781e-04 4.3279224340435395e-03 0.0000000000000000e+00  1.3826228593836321e-04 4.3510706882040583e-03 0.0000000000000000e+00  1.3806784118359868e-04 4.3748719128316356e-03 0.0000000000000000e+00  1.3801321481793328e-04 4.3992014225190902e-03 0.0000000000000000e+00  1.3808706295207713e-04 4.4240141869135207e-03 0.0000000000000000e+00  1.3828742108545084e-04 4.4491733703313427e-03 0.0000000000000000e+00  1.3861135980268750e-04 4.4747245881163527e-03 0.0000000000000000e+00  1.3900361186821377e-04 4.5006495198303452e-03 0.0000000000000000e+00  1.4380198733313687e-04 4.0974950308689268e-03 0.0000000000000000e+00  1.4360901227127034e-04 4.1150481640742633e-03 0.0000000000000000e+00  1.4346894044574724e-04 4.1323848263969502e-03 0.0000000000000000e+00  1.4336512847710635e-04 4.1495671011251966e-03 0.0000000000000000e+00  1.4333592196657922e-04 4.1666356996444059e-03 0.0000000000000000e+00  1.4024564969558820e-04 4.1912684085069216e-03 0.0000000000000000e+00  1.3665190513318404e-04 4.2141250857671573e-03 0.0000000000000000e+00  1.3332608079640935e-04 4.2357068458733034e-03 0.0000000000000000e+00  1.3014652376813738e-04 4.2563776414463461e-03 0.0000000000000000e+00  1.2703250458002871e-04 4.2763588233229585e-03 0.0000000000000000e+00  1.2392037706805676e-04 4.2957175115168394e-03 0.0000000000000000e+00  1.2074274262330305e-04 4.3152078456696148e-03 0.0000000000000000e+00  1.1758664187276357e-04 4.3338967352618430e-03 0.0000000000000000e+00  1.1364882738224318e-04 4.3510165356469279e-03 0.0000000000000000e+00  1.1344357857329860e-04 4.3749160939550672e-03 0.0000000000000000e+00  1.1324719361357367e-04 4.3992451192003358e-03 0.0000000000000000e+00  1.1318572545955199e-04 4.4240958109116558e-03 0.0000000000000000e+00  1.1322703394412730e-04 4.4492895420173940e-03 0.0000000000000000e+00  1.1334768162191039e-04 4.4748385024212653e-03 0.0000000000000000e+00  1.1353762716626033e-04 4.5006867619019064e-03 0.0000000000000000e+00  1.1377309901153479e-04 4.5266671513544228e-03 0.0000000000000000e+00  1.2624827292901332e-04 4.1150518680850116e-03 0.0000000000000000e+00  1.2617757463968514e-04 4.1324057588730109e-03 0.0000000000000000e+00  1.2614854967239872e-04 4.1495813446879217e-03 0.0000000000000000e+00  1.2326165919011661e-04 4.1720861237672666e-03 0.0000000000000000e+00  1.1924410149235120e-04 4.1960451415219892e-03 0.0000000000000000e+00  1.1572729285434518e-04 4.2189580891277192e-03 0.0000000000000000e+00  1.1240744589405307e-04 4.2406860495323440e-03 0.0000000000000000e+00  1.0921428068063524e-04 4.2615751820255943e-03 0.0000000000000000e+00  1.0609196798911201e-04 4.2818278913826033e-03 0.0000000000000000e+00  1.0299434651557606e-04 4.3015875400068846e-03 0.0000000000000000e+00  9.9902996185629640e-05 4.3211817267136063e-03 0.0000000000000000e+00  9.6872691819435320e-05 4.3403171481281961e-03 0.0000000000000000e+00  9.3732779354073888e-05 4.3591175350746469e-03 0.0000000000000000e+00  9.0722039168284423e-05 4.3799953392555345e-03 0.0000000000000000e+00  8.8011140989951330e-05 4.3992541766844483e-03 0.0000000000000000e+00  8.7893312878501448e-05 4.4241320913342257e-03 0.0000000000000000e+00  8.7856617817675986e-05 4.4493666526865174e-03 0.0000000000000000e+00  8.7891730679544175e-05 4.4749500020372446e-03 0.0000000000000000e+00  8.7987971719810461e-05 4.5007823099770805e-03 0.0000000000000000e+00  8.8143731384065574e-05 4.5267795633009674e-03 0.0000000000000000e+00  8.8336434505143619e-05 4.5529204458930892e-03 0.0000000000000000e+00  1.0858192978202093e-04 4.1324777359744332e-03 0.0000000000000000e+00  1.0572212657093677e-04 4.1548266027312940e-03 0.0000000000000000e+00  1.0161829051608073e-04 4.1779823886155861e-03 0.0000000000000000e+00  9.7651177040498842e-05 4.2015027143381730e-03 0.0000000000000000e+00  9.4095001266744142e-05 4.2241607718282075e-03 0.0000000000000000e+00  9.0800438456125192e-05 4.2459416999508321e-03 0.0000000000000000e+00  8.7629655121813173e-05 4.2669878097396589e-03 0.0000000000000000e+00  8.4526529952369718e-05 4.2874587947302773e-03 0.0000000000000000e+00  8.1455837252463633e-05 4.3074961303452945e-03 0.0000000000000000e+00  7.8403182208136736e-05 4.3272820484631996e-03 0.0000000000000000e+00  7.5375896818072403e-05 4.3467876575215428e-03 0.0000000000000000e+00  7.2301346383151651e-05 4.3662559251868120e-03 0.0000000000000000e+00  6.9251198413523097e-05 4.3865747494344640e-03 0.0000000000000000e+00  6.6518698034444390e-05 4.4066965051747144e-03 0.0000000000000000e+00  6.4057158713354999e-05 4.4286926909852323e-03 0.0000000000000000e+00  6.2191874249317743e-05 4.4494062951120428e-03 0.0000000000000000e+00  6.2195843103439233e-05 4.4750176395620391e-03 0.0000000000000000e+00  6.2255357208677655e-05 4.5008697403186460e-03 0.0000000000000000e+00  6.2361379972613589e-05 4.5268851033841602e-03 0.0000000000000000e+00  6.2508313857180092e-05 4.5530498252311109e-03 0.0000000000000000e+00  6.2709878614573266e-05 4.5793758417480967e-03 0.0000000000000000e+00  8.3444059436866584e-05 4.1608374501716150e-03 0.0000000000000000e+00  7.9336792215737578e-05 4.1841322515777336e-03 0.0000000000000000e+00  7.5460052901730440e-05 4.2072241047068654e-03 0.0000000000000000e+00  7.1943268182413558e-05 4.2296715666949270e-03 0.0000000000000000e+00  6.8660953522155124e-05 4.2514324734506930e-03 0.0000000000000000e+00  6.5510735492487079e-05 4.2725818969347237e-03 0.0000000000000000e+00  6.2428763164677035e-05 4.2932242668379398e-03 0.0000000000000000e+00  5.9378426595326439e-05 4.3134765974054794e-03 0.0000000000000000e+00  5.6340081782800780e-05 4.3334683360309306e-03 0.0000000000000000e+00  5.3302699485726481e-05 4.3532678313834301e-03 0.0000000000000000e+00  5.0234268926654221e-05 4.3730849951533418e-03 0.0000000000000000e+00  4.7176486768854096e-05 4.3932967588946187e-03 0.0000000000000000e+00  4.4258545353565389e-05 4.4136169041110720e-03 0.0000000000000000e+00  4.1469581974219215e-05 4.4346948587585715e-03 0.0000000000000000e+00  3.8981919450436745e-05 4.4552307304352697e-03 0.0000000000000000e+00  3.6286624858531716e-05 4.4750588482570276e-03 0.0000000000000000e+00  3.6329798460077696e-05 4.5009240966150848e-03 0.0000000000000000e+00  3.6405223434445311e-05 4.5269712680867597e-03 0.0000000000000000e+00  3.6507857533773904e-05 4.5531673491408060e-03 0.0000000000000000e+00  3.6626603997075714e-05 4.5794759033497313e-03 0.0000000000000000e+00  3.6762021938002635e-05 4.6058384292416267e-03 0.0000000000000000e+00  5.6497815705419170e-05 4.1903017548570428e-03 0.0000000000000000e+00  5.2772220412077677e-05 4.2131119794127135e-03 0.0000000000000000e+00  4.9323641953843865e-05 4.2353919388766056e-03 0.0000000000000000e+00  4.6074894458962877e-05 4.2571193942058782e-03 0.0000000000000000e+00  4.2949126539401521e-05 4.2783340903965322e-03 0.0000000000000000e+00  3.9890563480799461e-05 4.2991082353318975e-03 0.0000000000000000e+00  3.6862212002856541e-05 4.3195330870167128e-03 0.0000000000000000e+00  3.3841714337285047e-05 4.3397117077294059e-03 0.0000000000000000e+00  3.0815220830502521e-05 4.3597371887140156e-03 0.0000000000000000e+00  2.7771177807977383e-05 4.3797684302163313e-03 0.0000000000000000e+00  2.4740412473796065e-05 4.3999945133823279e-03 0.0000000000000000e+00  2.1792263971588661e-05 4.4203583699535089e-03 0.0000000000000000e+00  1.8952002074888446e-05 4.4410525012324028e-03 0.0000000000000000e+00  1.6282912909191795e-05 4.4615225773562642e-03 0.0000000000000000e+00  1.3535801475703837e-05 4.4816480491325994e-03 0.0000000000000000e+00  1.0241725780328205e-05 4.5009763169692732e-03 0.0000000000000000e+00  1.0280780376747238e-05 4.5270100798370533e-03 0.0000000000000000e+00  1.0404613774345603e-05 4.5532586404300390e-03 0.0000000000000000e+00  1.0531556235304378e-05 4.5795896118718780e-03 0.0000000000000000e+00  1.0654251518612298e-05 4.6059307789859073e-03 0.0000000000000000e+00  1.0778795876948969e-05 4.6322452047516142e-03 0.0000000000000000e+00  2.9643061949270892e-05 4.2190965488175716e-03 0.0000000000000000e+00  2.6293995606745240e-05 4.2412584730712041e-03 0.0000000000000000e+00  2.3102820596374902e-05 4.2629566744336244e-03 0.0000000000000000e+00  2.0016354999442788e-05 4.2842172495286060e-03 0.0000000000000000e+00  1.6990642385751545e-05 4.3050929304086737e-03 0.0000000000000000e+00  1.3993585311878769e-05 4.3256556201982429e-03 0.0000000000000000e+00  1.1004460963169442e-05 4.3459898664275579e-03 0.0000000000000000e+00  8.0120521011525537e-06 4.3661851210631117e-03 0.0000000000000000e+00  5.0151412688916858e-06 4.3863589183311654e-03 0.0000000000000000e+00  2.0390686852869789e-06 4.4066232220919595e-03 0.0000000000000000e+