<?xml version="1.0"?>
<VTKFile type="UnstructuredGrid"  version="0.1"  >
<UnstructuredGrid>
<Piece  NumberOfPoints="639" NumberOfCells="1174">
<Points>
<DataArray  type="Float64"  NumberOfComponents="3"  format="ascii">1.024347826086957 0 0  1.040869565217391 0 0  1.040869565217391 0.01666666666666667 0  1.024347826086957 0.01666666666666667 0  1.057391304347826 0 0  1.057391304347826 0.01666666666666667 0  1.073913043478261 0 0  1.073913043478261 0.01666666666666667 0  1.090434782608696 0 0  1.090434782608696 0.01666666666666667 0  1.10695652173913 0 0  1.10695652173913 0.01666666666666667 0  1.123478260869565 0 0  1.123478260869565 0.01666666666666667 0  1.14 0 0  1.14 0.01666666666666667 0  1.156521739130435 0 0  1.156521739130435 0.01666666666666667 0  1.17304347826087 0 0  1.17304347826087 0.01666666666666667 0  1.189565217391304 0 0  1.189565217391304 0.01666666666666667 0  1.206086956521739 0 0  1.206086956521739 0.01666666666666667 0  1.222608695652174 0 0  1.222608695652174 0.01666666666666667 0  1.239130434782609 0 0  1.239130434782609 0.01666666666666667 0  1.255652173913044 0 0  1.255652173913044 0.01666666666666667 0  1.272173913043478 0 0  1.272173913043478 0.01666666666666667 0  1.288695652173913 0 0  1.288695652173913 0.01666666666666667 0  1.305217391304348 0 0  1.305217391304348 0.01666666666666667 0  1.321739130434783 0 0  1.321739130434783 0.01666666666666667 0  1.338260869565217 0.01666666666666667 0  1.040869565217391 0.03333333333333333 0  1.057391304347826 0.03333333333333333 0  1.073913043478261 0.03333333333333333 0  1.090434782608696 0.03333333333333333 0  1.10695652173913 0.03333333333333333 0  1.123478260869565 0.03333333333333333 0  1.14 0.03333333333333333 0  1.156521739130435 0.03333333333333333 0  1.17304347826087 0.03333333333333333 0  1.189565217391304 0.03333333333333333 0  1.206086956521739 0.03333333333333333 0  1.222608695652174 0.03333333333333333 0  1.239130434782609 0.03333333333333333 0  1.255652173913044 0.03333333333333333 0  1.272173913043478 0.03333333333333333 0  1.288695652173913 0.03333333333333333 0  1.305217391304348 0.03333333333333333 0  1.321739130434783 0.03333333333333333 0  1.338260869565217 0.03333333333333333 0  1.354782608695652 0.03333333333333333 0  1.057391304347826 0.05 0  1.073913043478261 0.05 0  1.090434782608696 0.05 0  1.10695652173913 0.05 0  1.123478260869565 0.05 0  1.14 0.05 0  1.156521739130435 0.05 0  1.17304347826087 0.05 0  1.189565217391304 0.05 0  1.206086956521739 0.05 0  1.222608695652174 0.05 0  1.239130434782609 0.05 0  1.255652173913044 0.05 0  1.272173913043478 0.05 0  1.288695652173913 0.05 0  1.305217391304348 0.05 0  1.321739130434783 0.05 0  1.338260869565217 0.05 0  1.354782608695652 0.05 0  1.371304347826087 0.05 0  1.073913043478261 0.06666666666666667 0  1.090434782608696 0.06666666666666667 0  1.10695652173913 0.06666666666666667 0  1.123478260869565 0.06666666666666667 0  1.14 0.06666666666666667 0  1.156521739130435 0.06666666666666667 0  1.17304347826087 0.06666666666666667 0  1.189565217391304 0.06666666666666667 0  1.206086956521739 0.06666666666666667 0  1.222608695652174 0.06666666666666667 0  1.239130434782609 0.06666666666666667 0  1.255652173913044 0.06666666666666667 0  1.272173913043478 0.06666666666666667 0  1.288695652173913 0.06666666666666667 0  1.305217391304348 0.06666666666666667 0  1.321739130434783 0.06666666666666667 0  1.338260869565217 0.06666666666666667 0  1.354782608695652 0.06666666666666667 0  1.371304347826087 0.06666666666666667 0  1.387826086956522 0.06666666666666667 0  1.090434782608696 0.08333333333333333 0  1.10695652173913 0.08333333333333333 0  1.123478260869565 0.08333333333333333 0  1.14 0.08333333333333333 0  1.156521739130435 0.08333333333333333 0  1.17304347826087 0.08333333333333333 0  1.189565217391304 0.08333333333333333 0  1.206086956521739 0.08333333333333333 0  1.222608695652174 0.08333333333333333 0  1.239130434782609 0.08333333333333333 0  1.255652173913044 0.08333333333333333 0  1.272173913043478 0.08333333333333333 0  1.288695652173913 0.08333333333333333 0  1.305217391304348 0.08333333333333333 0  1.321739130434783 0.08333333333333333 0  1.338260869565217 0.08333333333333333 0  1.354782608695652 0.08333333333333333 0  1.371304347826087 0.08333333333333333 0  1.387826086956522 0.08333333333333333 0  1.404347826086957 0.08333333333333333 0  1.10695652173913 0.1 0  1.123478260869565 0.1 0  1.14 0.1 0  1.156521739130435 0.1 0  1.17304347826087 0.1 0  1.189565217391304 0.1 0  1.206086956521739 0.1 0  1.222608695652174 0.1 0  1.239130434782609 0.1 0  1.255652173913044 0.1 0  1.272173913043478 0.1 0  1.288695652173913 0.1 0  1.305217391304348 0.1 0  1.321739130434783 0.1 0  1.338260869565217 0.1 0  1.354782608695652 0.1 0  1.371304347826087 0.1 0  1.387826086956522 0.1 0  1.404347826086957 0.1 0  1.420869565217391 0.1 0  1.123478260869565 0.1166666666666667 0  1.14 0.1166666666666667 0  1.156521739130435 0.1166666666666667 0  1.17304347826087 0.1166666666666667 0  1.189565217391304 0.1166666666666667 0  1.206086956521739 0.1166666666666667 0  1.222608695652174 0.1166666666666667 0  1.239130434782609 0.1166666666666667 0  1.255652173913044 0.1166666666666667 0  1.272173913043478 0.1166666666666667 0  1.288695652173913 0.1166666666666667 0  1.305217391304348 0.1166666666666667 0  1.321739130434783 0.1166666666666667 0  1.338260869565217 0.1166666666666667 0  1.354782608695652 0.1166666666666667 0  1.371304347826087 0.1166666666666667 0  1.387826086956522 0.1166666666666667 0  1.404347826086957 0.1166666666666667 0  1.420869565217391 0.1166666666666667 0  1.437391304347826 0.1166666666666667 0  1.14 0.1333333333333333 0  1.156521739130435 0.1333333333333333 0  1.17304347826087 0.1333333333333333 0  1.189565217391304 0.1333333333333333 0  1.206086956521739 0.1333333333333333 0  1.222608695652174 0.1333333333333333 0  1.239130434782609 0.1333333333333333 0  1.255652173913044 0.1333333333333333 0  1.272173913043478 0.1333333333333333 0  1.288695652173913 0.1333333333333333 0  1.305217391304348 0.1333333333333333 0  1.321739130434783 0.1333333333333333 0  1.338260869565217 0.1333333333333333 0  1.354782608695652 0.1333333333333333 0  1.371304347826087 0.1333333333333333 0  1.387826086956522 0.1333333333333333 0  1.404347826086957 0.1333333333333333 0  1.420869565217391 0.1333333333333333 0  1.437391304347826 0.1333333333333333 0  1.453913043478261 0.1333333333333333 0  1.156521739130435 0.15 0  1.17304347826087 0.15 0  1.189565217391304 0.15 0  1.206086956521739 0.15 0  1.222608695652174 0.15 0  1.239130434782609 0.15 0  1.255652173913044 0.15 0  1.272173913043478 0.15 0  1.288695652173913 0.15 0  1.305217391304348 0.15 0  1.321739130434783 0.15 0  1.338260869565217 0.15 0  1.354782608695652 0.15 0  1.371304347826087 0.15 0  1.387826086956522 0.15 0  1.404347826086957 0.15 0  1.420869565217391 0.15 0  1.437391304347826 0.15 0  1.453913043478261 0.15 0  1.470434782608696 0.15 0  1.17304347826087 0.1666666666666667 0  1.189565217391304 0.1666666666666667 0  1.206086956521739 0.1666666666666667 0  1.222608695652174 0.1666666666666667 0  1.239130434782609 0.1666666666666667 0  1.255652173913044 0.1666666666666667 0  1.272173913043478 0.1666666666666667 0  1.288695652173913 0.1666666666666667 0  1.305217391304348 0.1666666666666667 0  1.321739130434783 0.1666666666666667 0  1.338260869565217 0.1666666666666667 0  1.354782608695652 0.1666666666666667 0  1.371304347826087 0.1666666666666667 0  1.387826086956522 0.1666666666666667 0  1.404347826086957 0.1666666666666667 0  1.420869565217391 0.1666666666666667 0  1.437391304347826 0.1666666666666667 0  1.453913043478261 0.1666666666666667 0  1.470434782608696 0.1666666666666667 0  1.486956521739131 0.1666666666666667 0  1.189565217391304 0.1833333333333333 0  1.206086956521739 0.1833333333333333 0  1.222608695652174 0.1833333333333333 0  1.239130434782609 0.1833333333333333 0  1.255652173913044 0.1833333333333333 0  1.272173913043478 0.1833333333333333 0  1.288695652173913 0.1833333333333333 0  1.305217391304348 0.1833333333333333 0  1.321739130434783 0.1833333333333333 0  1.338260869565217 0.1833333333333333 0  1.354782608695652 0.1833333333333333 0  1.371304347826087 0.1833333333333333 0  1.387826086956522 0.1833333333333333 0  1.404347826086957 0.1833333333333333 0  1.420869565217391 0.1833333333333333 0  1.437391304347826 0.1833333333333333 0  1.453913043478261 0.1833333333333333 0  1.470434782608696 0.1833333333333333 0  1.486956521739131 0.1833333333333333 0  1.503478260869565 0.1833333333333333 0  1.206086956521739 0.2 0  1.222608695652174 0.2 0  1.239130434782609 0.2 0  1.255652173913044 0.2 0  1.272173913043478 0.2 0  1.288695652173913 0.2 0  1.305217391304348 0.2 0  1.321739130434783 0.2 0  1.338260869565217 0.2 0  1.354782608695652 0.2 0  1.371304347826087 0.2 0  1.387826086956522 0.2 0  1.404347826086957 0.2 0  1.420869565217391 0.2 0  1.437391304347826 0.2 0  1.453913043478261 0.2 0  1.470434782608696 0.2 0  1.486956521739131 0.2 0  1.503478260869565 0.2 0  1.52 0.2 0  1.222608695652174 0.2166666666666667 0  1.239130434782609 0.2166666666666667 0  1.255652173913044 0.2166666666666667 0  1.272173913043478 0.2166666666666667 0  1.288695652173913 0.2166666666666667 0  1.305217391304348 0.2166666666666667 0  1.321739130434783 0.2166666666666667 0  1.338260869565217 0.2166666666666667 0  1.354782608695652 0.2166666666666667 0  1.371304347826087 0.2166666666666667 0  1.387826086956522 0.2166666666666667 0  1.404347826086957 0.2166666666666667 0  1.420869565217391 0.2166666666666667 0  1.437391304347826 0.2166666666666667 0  1.453913043478261 0.2166666666666667 0  1.470434782608696 0.2166666666666667 0  1.486956521739131 0.2166666666666667 0  1.503478260869565 0.2166666666666667 0  1.52 0.2166666666666667 0  1.536521739130435 0.2166666666666667 0  1.239130434782609 0.2333333333333333 0  1.255652173913044 0.2333333333333333 0  1.272173913043478 0.2333333333333333 0  1.288695652173913 0.2333333333333333 0  1.305217391304348 0.23333
[...]
<PointData  Vectors="Displacement"> 
<DataArray  type="Float64"  Name="Displacement"  NumberOfComponents="3" format="ascii">1.9796051805876067e-04 2.0196158555917739e-03 0.0000000000000000e+00  2.0120875278656133e-04 2.0393331530491055e-03 0.0000000000000000e+00  1.8116367402089024e-04 2.0382909398385120e-03 0.0000000000000000e+00  1.7811527159468203e-04 2.0185766312141875e-03 0.0000000000000000e+00  2.0448701045652521e-04 2.0592733963669912e-03 0.0000000000000000e+00  1.8419714431702625e-04 2.0582279592975157e-03 0.0000000000000000e+00  2.0779445725845088e-04 2.0794785621409189e-03 0.0000000000000000e+00  1.8721870014772981e-04 2.0784298812797229e-03 0.0000000000000000e+00  2.1113077729885182e-04 2.0999863547721404e-03 0.0000000000000000e+00  1.9023082657505937e-04 2.0989345370908286e-03 0.0000000000000000e+00  2.1449654856984241e-04 2.1208323888542808e-03 0.0000000000000000e+00  1.9323471454531146e-04 2.1197775053594602e-03 0.0000000000000000e+00  2.1789322585140960e-04 2.1420533923395993e-03 0.0000000000000000e+00  1.9623003253489159e-04 2.1409953837206084e-03 0.0000000000000000e+00  2.2132264952257833e-04 2.1636898613943923e-03 0.0000000000000000e+00  1.9921524753041829e-04 2.1626286080671272e-03 0.0000000000000000e+00  2.2478641740069152e-04 2.1857869996525447e-03 0.0000000000000000e+00  2.0218821534672934e-04 2.1847223741267006e-03 0.0000000000000000e+00  2.2828568400623086e-04 2.2083937707502890e-03 0.0000000000000000e+00  2.0514719389061500e-04 2.2073254139764980e-03 0.0000000000000000e+00  2.3182140819815865e-04 2.2315604777243272e-03 0.0000000000000000e+00  2.0809248289969297e-04 2.2304877477841482e-03 0.0000000000000000e+00  2.3539448464681169e-04 2.2553361936012259e-03 0.0000000000000000e+00  2.1102659584049322e-04 2.2542585695942258e-03 0.0000000000000000e+00  2.3900546377992381e-04 2.2797678885456167e-03 0.0000000000000000e+00  2.1395198731919682e-04 2.2786854574612758e-03 0.0000000000000000e+00  2.4265435325735400e-04 2.3049018402477792e-03 0.0000000000000000e+00  2.1686848030454218e-04 2.3038151042055802e-03 0.0000000000000000e+00  2.4634107428105523e-04 2.3307860728217188e-03 0.0000000000000000e+00  2.1977364655782088e-04 2.3296949104785491e-03 0.0000000000000000e+00  2.5006651729201588e-04 2.3574709993661258e-03 0.0000000000000000e+00  2.2266712104985418e-04 2.3563733287139239e-03 0.0000000000000000e+00  2.5383393264665817e-04 2.3850061021768311e-03 0.0000000000000000e+00  2.2555677824920604e-04 2.3838962926952096e-03 0.0000000000000000e+00  2.5765028493746761e-04 2.4134307076366752e-03 0.0000000000000000e+00  2.2846645761523000e-04 2.4122984986824493e-03 0.0000000000000000e+00  2.6152412654742874e-04 2.4427530126252968e-03 0.0000000000000000e+00  2.3144341064311721e-04 2.4415907039533930e-03 0.0000000000000000e+00  2.3453061189517100e-04 2.4717506109276873e-03 0.0000000000000000e+00  1.6119161355416915e-04 2.0372828367923889e-03 0.0000000000000000e+00  1.6398215360340985e-04 2.0572243903214439e-03 0.0000000000000000e+00  1.6672311640858925e-04 2.0774292469674838e-03 0.0000000000000000e+00  1.6942809542702742e-04 2.0979358002585816e-03 0.0000000000000000e+00  1.7210351163242347e-04 2.1187803323560656e-03 0.0000000000000000e+00  1.7474474722574678e-04 2.1400001226070968e-03 0.0000000000000000e+00  1.7733793945288968e-04 2.1616360982048347e-03 0.0000000000000000e+00  1.7986749728903724e-04 2.1837335946876982e-03 0.0000000000000000e+00  1.8232513205953703e-04 2.2063410348115028e-03 0.0000000000000000e+00  1.8471285633576997e-04 2.2295076817216469e-03 0.0000000000000000e+00  1.8703809414594486e-04 2.2532820728913159e-03 0.0000000000000000e+00  1.8930572778449390e-04 2.2777118286223291e-03 0.0000000000000000e+00  1.9151585938409000e-04 2.3028444527933688e-03 0.0000000000000000e+00  1.9366550814183420e-04 2.3287280424437330e-03 0.0000000000000000e+00  1.9575380419295697e-04 2.3554103409832829e-03 0.0000000000000000e+00  1.9779168225636721e-04 2.3829345489908599e-03 0.0000000000000000e+00  1.9981474640712888e-04 2.4113301026840147e-03 0.0000000000000000e+00  2.0189440994406078e-04 2.4406000153527683e-03 0.0000000000000000e+00  2.0410678926804303e-04 2.4707234948978907e-03 0.0000000000000000e+00  2.0644428095373588e-04 2.5016833795939598e-03 0.0000000000000000e+00  1.7826920374468383e-04 2.0560869746223502e-03 0.0000000000000000e+00  1.8154142025873077e-04 2.0779434192032234e-03 0.0000000000000000e+00  1.8463015465786754e-04 2.1001283536649378e-03 0.0000000000000000e+00  1.8753067076606852e-04 2.1226777019281739e-03 0.0000000000000000e+00  1.9023255929851278e-04 2.1456278916525142e-03 0.0000000000000000e+00  1.9272053191864144e-04 2.1690161117400766e-03 0.0000000000000000e+00  1.9497711068072607e-04 2.1928796567543276e-03 0.0000000000000000e+00  1.9698573639011742e-04 2.2172550363877869e-03 0.0000000000000000e+00  1.9873240655441635e-04 2.2421777686963862e-03 0.0000000000000000e+00  2.0020517194486632e-04 2.2676825625177564e-03 0.0000000000000000e+00  2.0139271928758026e-04 2.2938030507915707e-03 0.0000000000000000e+00  2.0228410385740692e-04 2.3205705354113933e-03 0.0000000000000000e+00  2.0287055912078221e-04 2.3480126733540553e-03 0.0000000000000000e+00  2.0314916071885979e-04 2.3761512599951291e-03 0.0000000000000000e+00  2.0312743333115505e-04 2.4049983499947335e-03 0.0000000000000000e+00  2.0282668206230822e-04 2.4345512328901608e-03 0.0000000000000000e+00  2.0227993978118306e-04 2.4647901372225204e-03 0.0000000000000000e+00  2.0152010260941715e-04 2.4956912115998812e-03 0.0000000000000000e+00  2.0056429310343014e-04 2.5272513052682303e-03 0.0000000000000000e+00  1.9941412166619971e-04 2.5594955686971082e-03 0.0000000000000000e+00  1.9349939020667123e-04 2.0780536273518856e-03 0.0000000000000000e+00  1.9692737299195384e-04 2.1020004210588117e-03 0.0000000000000000e+00  2.0002924556596058e-04 2.1263436561248395e-03 0.0000000000000000e+00  2.0278857033709415e-04 2.1511165923337305e-03 0.0000000000000000e+00  2.0518530868850741e-04 2.1763515715953708e-03 0.0000000000000000e+00  2.0719683823968208e-04 2.2020790891509748e-03 0.0000000000000000e+00  2.0879911997639014e-04 2.2283269810661568e-03 0.0000000000000000e+00  2.0996760738636858e-04 2.2551202047591578e-03 0.0000000000000000e+00  2.1067787234501598e-04 2.2824808035911697e-03 0.0000000000000000e+00  2.1090628411388188e-04 2.3104272427486626e-03 0.0000000000000000e+00  2.1063119767109010e-04 2.3389727530959787e-03 0.0000000000000000e+00  2.0983490514246510e-04 2.3681232987966768e-03 0.0000000000000000e+00  2.0850626755274988e-04 2.3978752560199416e-03 0.0000000000000000e+00  2.0664322966231982e-04 2.4282129438952314e-03 0.0000000000000000e+00  2.0425381117541351e-04 2.4591071694328097e-03 0.0000000000000000e+00  2.0135409500129009e-04 2.4905178946663807e-03 0.0000000000000000e+00  1.9796340757049111e-04 2.5224062316643232e-03 0.0000000000000000e+00  1.9410066426122919e-04 2.5547520944721558e-03 0.0000000000000000e+00  1.8978585901015154e-04 2.5875687396691009e-03 0.0000000000000000e+00  1.8505276199099561e-04 2.6209587223570969e-03 0.0000000000000000e+00  2.0657810433731742e-04 2.1035610557559757e-03 0.0000000000000000e+00  2.0986629769756640e-04 2.1297750169503990e-03 0.0000000000000000e+00  2.1268694518370037e-04 2.1564515387498392e-03 0.0000000000000000e+00  2.1501504456178489e-04 2.1836181574423717e-03 0.0000000000000000e+00  2.1682255245413553e-04 2.2112993685651332e-03 0.0000000000000000e+00  2.1807884484589772e-04 2.2395156960722832e-03 0.0000000000000000e+00  2.1875128949405283e-04 2.2682830076406683e-03 0.0000000000000000e+00  2.1880608745154765e-04 2.2976117897905847e-03 0.0000000000000000e+00  2.1820954176504260e-04 2.3275058914800401e-03 0.0000000000000000e+00  2.1692981870561148e-04 2.3579605758922741e-03 0.0000000000000000e+00  2.1493916202720891e-04 2.3889603113836509e-03 0.0000000000000000e+00  2.1221639734151615e-04 2.4204767212848322e-03 0.0000000000000000e+00  2.0874923001559518e-04 2.4524672870501947e-03 0.0000000000000000e+00  2.0453560770633872e-04 2.4848759457669575e-03 0.0000000000000000e+00  1.9958369095814606e-04 2.5176374305963928e-03 0.0000000000000000e+00  1.9391115181477300e-04 2.5506870147755929e-03 0.0000000000000000e+00  1.8754613591930860e-04 2.5839727306612320e-03 0.0000000000000000e+00  1.8053228752772820e-04 2.6174659042695423e-03 0.0000000000000000e+00  1.7294311550639899e-04 2.6511783350921161e-03 0.0000000000000000e+00  1.6492046289582813e-04 2.6851460535228795e-03 0.0000000000000000e+00  2.1727485321904578e-04 2.1329620276925483e-03 0.0000000000000000e+00  2.2016755050065727e-04 2.1616117908880841e-03 0.0000000000000000e+00  2.2245704157273073e-04 2.1907839320507022e-03 0.0000000000000000e+00  2.2411073422958961e-04 2.2204976992597895e-03 0.0000000000000000e+00  2.2509261634385140e-04 2.2507672948771243e-03 0.0000000000000000e+00  2.2536357435675063e-04 2.2816006453612744e-03 0.0000000000000000e+00  2.2488214130318305e-04 2.3129979181217481e-03 0.0000000000000000e+00  2.2360582413278709e-04 2.3449495603133533e-03 0.0000000000000000e+00  2.2149304784408361e-04 2.3774338807648464e-03 0.0000000000000000e+00  2.1850566149748401e-04 2.4104145802121132e-03 0.0000000000000000e+00  2.1461186841780267e-04 2.4438387903586885e-03 0.0000000000000000e+00  2.0978927802226829e-04 2.4776363726149810e-03 0.0000000000000000e+00  2.0402767124414538e-04 2.5117214518015104e-03 0.0000000000000000e+00  1.9733123532652148e-04 2.5459971673076833e-03 0.0000000000000000e+00  1.8972059204572784e-04 2.5803637413321211e-03 0.0000000000000000e+00  1.8123561485813933e-04 2.6147272478362813e-03 0.0000000000000000e+00  1.7194012668561936e-04 2.6490053574615394e-03 0.0000000000000000e+00  1.6193089014629716e-04 2.6831261455320023e-03 0.0000000000000000e+00  1.5135245859879671e-04 2.7169904949538859e-03 0.0000000000000000e+00  1.4038926351799479e-04 2.7503197970940971e-03 0.0000000000000000e+00  2.2543452480242485e-04 2.1665709901741098e-03 0.0000000000000000e+00  2.2772045597229651e-04 2.1978108387489740e-03 0.0000000000000000e+00  2.2927628781350344e-04 2.2296239089413280e-03 0.0000000000000000e+00  2.3006208441648653e-04 2.2620191462271889e-03 0.0000000000000000e+00  2.3003372375159144e-04 2.2949978655347216e-03 0.0000000000000000e+00  2.2914336670439958e-04 2.3285515019201104e-03 0.0000000000000000e+00  2.2734059735650641e-04 2.3626588268582343e-03 0.0000000000000000e+00  2.2457435733431983e-04 2.3972827857365020e-03 0.0000000000000000e+00  2.2079572457060109e-04 2.4323674078264345e-03 0.0000000000000000e+00  2.1596150965439131e-04 2.4678354526567058e-03 0.0000000000000000e+00  2.1003851346055181e-04 2.5035876440186841e-03 0.0000000000000000e+00  2.0300814770083048e-04 2.5395044192177913e-03 0.0000000000000000e+00  1.9487102583423888e-04 2.5754508444553285e-03 0.0000000000000000e+00  1.8565111973501859e-04 2.6112842977979015e-03 0.0000000000000000e+00  1.7539905160664340e-04 2.6468625195303786e-03 0.0000000000000000e+00  1.6419378320260331e-04 2.6820484792104346e-03 0.0000000000000000e+00  1.5214309425558569e-04 2.7167050061657075e-03 0.0000000000000000e+00  1.3938260201805164e-04 2.7506649709438539e-03 0.0000000000000000e+00  1.2606298109960108e-04 2.7836688139450988e-03 0.0000000000000000e+00  1.1230173730921911e-04 2.8154154864317299e-03 0.0000000000000000e+00  2.3097557132247413e-04 2.2046568112700465e-03 0.0000000000000000e+00  2.3249179653245532e-04 2.2386230270662086e-03 0.0000000000000000e+00  2.3316267104037016e-04 2.2732027941434847e-03 0.0000000000000000e+00  2.3294070946554941e-04 2.3083925038147146e-03 0.0000000000000000e+00  2.3177304785349580e-04 2.3441769560826010e-03 0.0000000000000000e+00  2.2960218554630128e-04 2.3805256030574400e-03 0.0000000000000000e+00  2.2636771934435006e-04 2.4173883083794031e-03 0.0000000000000000e+00  2.2200928086317263e-04 2.4546911384740735e-03 0.0000000000000000e+00  2.1647082023690733e-04 2.4923329614300496e-03 0.0000000000000000e+00  2.0970624477069236e-04 2.5301838589804372e-03 0.0000000000000000e+00  2.0168619583447751e-04 2.5680864559614490e-03 0.0000000000000000e+00  1.9240537944327290e-04 2.6058610257732855e-03 0.0000000000000000e+00  1.8188928958137989e-04 2.6433142591982361e-03 0.0000000000000000e+00  1.7019834796156520e-04 2.6802498185581518e-03 0.0000000000000000e+00  1.5742609635690789e-04 2.7164779081230387e-03 0.0000000000000000e+00  1.4369019044785551e-04 2.7518140659512891e-03 0.0000000000000000e+00  1.2911702181263895e-04 2.7860585305996568e-03 0.0000000000000000e+00  1.1382600395757771e-04 2.8189609397902414e-03 0.0000000000000000e+00  9.7905799674214778e-05 2.8502862014197429e-03 0.0000000000000000e+00  8.1475032177106887e-05 2.8798838970084755e-03 0.0000000000000000e+00  2.3388764319326401e-04 2.2474379409788670e-03 0.0000000000000000e+00  2.3452371764864580e-04 2.2842466740129047e-03 0.0000000000000000e+00  2.3421345870547390e-04 2.3216980088633333e-03 0.0000000000000000e+00  2.3290066621811122e-04 2.3597728369885566e-03 0.0000000000000000e+00  2.3052185413101437e-04 2.3984344760804212e-03 0.0000000000000000e+00  2.2700750819428195e-04 2.4376229804214042e-03 0.0000000000000000e+00  2.2228493045282194e-04 2.4772492243281589e-03 0.0000000000000000e+00  2.1628303913241015e-04 2.5171896507049938e-03 0.0000000000000000e+00  2.0893936631492723e-04 2.5572829063403215e-03 0.0000000000000000e+00  2.0020922394276426e-04 2.5973298486505472e-03 0.0000000000000000e+00  1.9007646756319496e-04 2.6370984671979280e-03 0.0000000000000000e+00  1.7856429907416415e-04 2.6763346882450159e-03 0.0000000000000000e+00  1.6574273569123016e-04 2.7147785539178280e-03 0.0000000000000000e+00  1.5172535923517759e-04 2.7521857270076974e-03 0.0000000000000000e+00  1.3665160832141356e-04 2.7883377619458099e-03 0.0000000000000000e+00  1.2065565735949037e-04 2.8230302027989792e-03 0.0000000000000000e+00  1.0383639112636545e-04 2.8560240207652029e-03 0.0000000000000000e+00  8.6210662014972168e-05 2.8871150326965642e-03 0.0000000000000000e+00  6.7856816071051645e-05 2.9159856922079982e-03 0.0000000000000000e+00  4.9124266775886842e-05 2.9422668234060753e-03 0.0000000000000000e+00  2.3422905773771519e-04 2.2950790129209414e-03 0.0000000000000000e+00  2.3393116732476000e-04 2.3348261129652044e-03 0.0000000000000000e+00  2.3260187788278313e-04 2.3752340118663069e-03 0.0000000000000000e+00  2.3017339545886001e-04 2.4162641073071523e-03 0.0000000000000000e+00  2.2656776511954972e-04 2.4578512682351503e-03 0.0000000000000000e+00  2.2169920130457344e-04 2.4998955591399095e-03 0.0000000000000000e+00  2.1547902530938903e-04 2.5422541905659240e-03 0.0000000000000000e+00  2.0782377538242436e-04 2.5847351416020711e-03 0.0000000000000000e+00  1.9866681865435921e-04 2.6270944158526760e-03 0.0000000000000000e+00  1.8797321971387199e-04 2.6690394325794512e-03 0.0000000000000000e+00  1.7575663424107573e-04 2.7102412203331475e-03 0.0000000000000000e+00  1.6209466727652816e-04 2.7503579892270511e-03 0.0000000000000000e+00  1.4712904042788193e-04 2.7890782932377214e-03 0.0000000000000000e+00  1.3104391641325476e-04 2.8261531333231981e-03 0.0000000000000000e+00  1.1401832099286717e-04 2.8613984475764618e-03 0.0000000000000000e+00  9.6184549163427012e-05 2.8946203837713256e-03 0.0000000000000000e+00  7.7449722435752873e-05 2.9257318482844965e-03 0.0000000000000000e+00  5.7727434880934870e-05 2.9541152384325977e-03 0.0000000000000000e+00  3.7504379540323071e-05 2.9787878530506059e-03 0.0000000000000000e+00  1.8208563310743536e-05 2.9986807832931509e-03 0.0000000000000000e+00  2.3212395298161817e-04 2.3476899684635481e-03 0.0000000000000000e+00  2.3089850959991958e-04 2.3904542928909617e-03 0.0000000000000000e+00  2.2857234337437884e-04 2.4338889948660519e-03 0.0000000000000000e+00  2.2506062204626564e-04 2.4779300865378599e-03 0.0000000000000000e+00  2.2026435891475690e-04 2.5224734094462767e-03 0.0000000000000000e+00  2.1407486431149965e-04 2.5673627092413199e-03 0.0000000000000000e+00  2.0638246174393477e-04 2.6123787284564690e-03 0.0000000000000000e+00  1.9709025991895908e-04 2.6572316544637830e-03 0.0000000000000000e+00  1.8613343869724219e-04 2.7015604699098558e-03 0.0000000000000000e+00  1.7350367446523397e-04 2.7449433096034975e-03 0.0000000000000000e+00  1.5927704315202030e-04 2.7869256394976770e-03 0.0000000000000000e+00  1.4362489535826175e-04 2.8270988020322962e-03 0.0000000000000000e+00  1.2679758985989498e-04 2.8651661372541813e-03 0.0000000000000000e+00  1.0907223681707706e-04 2.9009822688489369e-03 0.0000000000000000e+00  9.0700504263012933e-05 2.9344141072317792e-03 0.0000000000000000e+00  7.1555404827149493e-05 2.9658660603124583e-03 0.0000000000000000e+00  5.1190996644033215e-05 2.9943617948667350e-03 0.0000000000000000e+00  2.9796271183268458e-05 3.0174524788341814e-03 0.0000000000000000e+00  1.0457979516114039e-05 3.0322338548904953e-03 0.0000000000000000e+00  -8.8847404571630322e-06 3.0476087138785052e-03 0.0000000000000000e+00  2.2775896470341003e-04 2.4053299237973952e-03 0.0000000000000000e+00  2.2567513802086573e-04 2.4511820764207271e-03 0.0000000000000000e+00  2.2243402756680751e-04 2.4977099609659104e-03 0.0000000000000000e+00  2.1792467059249829e-04 2.5448145859858621e-03 0.0000000000000000e+00  2.1201685061567372e-04 2.5923355013931070e-03 0.0000000000000000e+00  2.0456962503208838e-04 2.6400335659835100e-03 0.0000000000000000e+00  1.9544679434108575e-04 2.6875761171981042e-03 0.0000000000000000e+00  1.8454009043629571e-04 2.7345283943038937e-03 0.0000000000000000e+00  1.7180266315896953e-04 2.7803568513538966e-03 0.0000000000000000e+00  1.5729152753506586e-04 2.8244516023901226e-03 0.0000000000000000e+00  1.4118572231469720e-04 2.8662530043133596e-03 0.0000000000000000e+00  1.2380525368402900e-04 2.9053691435274235e-03 0.0000000000000000e+00  1.0556227490197612e-04 2.9416649342910981e-03 0.0000000000000000e+00  8.7037535154291866e-05 2.9750526682233171e-03 0.0000000000000000e+00  6.7923895818865099e-05 3.0068222237312273e-03 0.0000000000000000e+00  4.8523794486264655e-05 3.0364167335277612e-03 0.0000000000000000e+00  2.7873198812382273e-05 3.0586565236602244e-03 0.0000000000000000e+00  1.0580859116660486e-05 3.0630029651624291e-03 0.0000000000000000e+00  -1.0225668413523056e-06 3.0756391306817048e-03 0.0000000000000000e+00  -1.1767751049586929e-05 3.0661954019924249e-03 0.0000000000000000e+00  2.2137889096707187e-04 2.4680187715642428e-03 0.0000000000000000e+00  2.1856931145541222e-04 2.5170375930817497e-03 0.0000000000000000e+00  2.1455146963346520e-04 2.5667397426246586e-03 0.0000000000000000e+00  2.0917395176175328e-04 2.6169743823501687e-03 0.0000000000000000e+00  2.0226051643230223e-04 2.6674951449767478e-03 0.0000000000000000e+00  1.9362674032655298e-04 2.7179349254588120e-03 0.0000000000000000e+00  1.8310782505077976e-04 2.7677860403375384e-03 0.0000000000000000e+00  1.7059871609971129e-04 2.8163843855853830e-03 0.0000000000000000e+00  1.5612677062184715e-04 2.8629183272013050e-03 0.0000000000000000e+00  1.3983157437440994e-04 2.9066256378059404e-03 0.0000000000000000e+00  1.2200135791814099e-04 2.9468970623952604e-03 0.0000000000000000e+00  1.0322797228772664e-04 2.9835738550950219e-03 0.0000000000000000e+00  8.4520564662688905e-05 3.0161625657498187e-03 0.0000000000000000e+00  6.5799352037221014e-05 3.0486183134697418e-03 0.0000000000000000e+00  4.6074284686551107e-05 3.0772592248270495e-03 0.0000000000000000e+00  3.5549150529262959e-05 3.1019766932428041e-03 0.0000000000000000e+00  2.9389762102113004e-05 3.0873983141173809e-03 0.0000000000000000e+00  2.4726762028924852e-05 3.0744358036523135e-03 0.0000000000000000e+00  1.8719038767121374e-05 3.0643650443397731e-03 0.0000000000000000e+00  1.2712088680964293e-05 3.0488877566139539e-03 0.0000000000000000e+00  2.1327972149695797e-04 2.5357607743761645e-03 0.0000000000000000e+00  2.0993793313405410e-04 2.5880608384408255e-03 0.0000000000000000e+00  2.0532862683139195e-04 2.6410618702969956e-03 0.0000000000000000e+00  1.9923799110147569e-04 2.6945299102376663e-03 0.0000000000000000e+00  1.9142521963128319e-04 2.7480788659942470e-03 0.000000000000000