<?xml version="1.0"?>
<VTKFile type="UnstructuredGrid"  version="0.1"  >
<UnstructuredGrid>
<Piece  NumberOfPoints="650" NumberOfCells="1199">
<Points>
<DataArray  type="Float64"  NumberOfComponents="3"  format="ascii">3.238260869565217 0 0  3.254782608695652 0 0  3.254782608695652 0.01666666666666667 0  3.238260869565217 0.01666666666666667 0  3.271304347826087 0 0  3.271304347826087 0.01666666666666667 0  3.287826086956521 0 0  3.287826086956521 0.01666666666666667 0  3.304347826086957 0 0  3.304347826086957 0.01666666666666667 0  3.320869565217391 0 0  3.320869565217391 0.01666666666666667 0  3.337391304347826 0 0  3.337391304347826 0.01666666666666667 0  3.353913043478261 0 0  3.353913043478261 0.01666666666666667 0  3.370434782608696 0 0  3.370434782608696 0.01666666666666667 0  3.386956521739131 0 0  3.386956521739131 0.01666666666666667 0  3.403478260869565 0 0  3.403478260869565 0.01666666666666667 0  3.419999999999999 0 0  3.419999999999999 0.01666666666666667 0  3.436521739130435 0 0  3.436521739130435 0.01666666666666667 0  3.453043478260869 0 0  3.453043478260869 0.01666666666666667 0  3.469565217391304 0 0  3.469565217391304 0.01666666666666667 0  3.486086956521739 0 0  3.486086956521739 0.01666666666666667 0  3.502608695652174 0 0  3.502608695652174 0.01666666666666667 0  3.519130434782609 0 0  3.519130434782609 0.01666666666666667 0  3.535652173913043 0 0  3.535652173913043 0.01666666666666667 0  3.552173913043478 0 0  3.552173913043478 0.01666666666666667 0  3.568695652173913 0 0  3.568695652173913 0.01666666666666667 0  3.585217391304347 0 0  3.585217391304347 0.01666666666666667 0  3.601739130434782 0 0  3.601739130434782 0.01666666666666667 0  3.618260869565217 0 0  3.618260869565217 0.01666666666666667 0  3.634782608695652 0 0  3.634782608695652 0.01666666666666667 0  3.651304347826087 0 0  3.651304347826087 0.01666666666666667 0  3.667826086956521 0 0  3.667826086956521 0.01666666666666667 0  3.684347826086956 0 0  3.684347826086956 0.01666666666666667 0  3.700869565217391 0 0  3.700869565217391 0.01666666666666667 0  3.717391304347826 0 0  3.717391304347826 0.01666666666666667 0  3.733913043478261 0 0  3.733913043478261 0.01666666666666667 0  3.750434782608695 0 0  3.750434782608695 0.01666666666666667 0  3.766956521739131 0 0  3.766956521739131 0.01666666666666667 0  3.783478260869565 0 0  3.783478260869565 0.01666666666666667 0  3.8 0 0  3.8 0.01666666666666667 0  3.254782608695652 0.03333333333333333 0  3.271304347826087 0.03333333333333333 0  3.287826086956521 0.03333333333333333 0  3.304347826086957 0.03333333333333333 0  3.320869565217391 0.03333333333333333 0  3.337391304347826 0.03333333333333333 0  3.353913043478261 0.03333333333333333 0  3.370434782608696 0.03333333333333333 0  3.386956521739131 0.03333333333333333 0  3.403478260869565 0.03333333333333333 0  3.419999999999999 0.03333333333333333 0  3.436521739130435 0.03333333333333333 0  3.453043478260869 0.03333333333333333 0  3.469565217391304 0.03333333333333333 0  3.486086956521739 0.03333333333333333 0  3.502608695652174 0.03333333333333333 0  3.519130434782609 0.03333333333333333 0  3.535652173913043 0.03333333333333333 0  3.552173913043478 0.03333333333333333 0  3.568695652173913 0.03333333333333333 0  3.585217391304347 0.03333333333333333 0  3.601739130434782 0.03333333333333333 0  3.618260869565217 0.03333333333333333 0  3.634782608695652 0.03333333333333333 0  3.651304347826087 0.03333333333333333 0  3.667826086956521 0.03333333333333333 0  3.684347826086956 0.03333333333333333 0  3.700869565217391 0.03333333333333333 0  3.717391304347826 0.03333333333333333 0  3.733913043478261 0.03333333333333333 0  3.750434782608695 0.03333333333333333 0  3.766956521739131 0.03333333333333333 0  3.783478260869565 0.03333333333333333 0  3.8 0.03333333333333333 0  3.271304347826087 0.05 0  3.287826086956521 0.05 0  3.304347826086957 0.05 0  3.320869565217391 0.05 0  3.337391304347826 0.05 0  3.353913043478261 0.05 0  3.370434782608696 0.05 0  3.386956521739131 0.05 0  3.403478260869565 0.05 0  3.419999999999999 0.05 0  3.436521739130435 0.05 0  3.453043478260869 0.05 0  3.469565217391304 0.05 0  3.486086956521739 0.05 0  3.502608695652174 0.05 0  3.519130434782609 0.05 0  3.535652173913043 0.05 0  3.552173913043478 0.05 0  3.568695652173913 0.05 0  3.585217391304347 0.05 0  3.601739130434782 0.05 0  3.618260869565217 0.05 0  3.634782608695652 0.05 0  3.651304347826087 0.05 0  3.667826086956521 0.05 0  3.684347826086956 0.05 0  3.700869565217391 0.05 0  3.717391304347826 0.05 0  3.733913043478261 0.05 0  3.750434782608695 0.05 0  3.766956521739131 0.05 0  3.783478260869565 0.05 0  3.8 0.05 0  3.287826086956521 0.06666666666666667 0  3.304347826086957 0.06666666666666667 0  3.320869565217391 0.06666666666666667 0  3.337391304347826 0.06666666666666667 0  3.353913043478261 0.06666666666666667 0  3.370434782608696 0.06666666666666667 0  3.386956521739131 0.06666666666666667 0  3.403478260869565 0.06666666666666667 0  3.419999999999999 0.06666666666666667 0  3.436521739130435 0.06666666666666667 0  3.453043478260869 0.06666666666666667 0  3.469565217391304 0.06666666666666667 0  3.486086956521739 0.06666666666666667 0  3.502608695652174 0.06666666666666667 0  3.519130434782609 0.06666666666666667 0  3.535652173913043 0.06666666666666667 0  3.552173913043478 0.06666666666666667 0  3.568695652173913 0.06666666666666667 0  3.585217391304347 0.06666666666666667 0  3.601739130434782 0.06666666666666667 0  3.618260869565217 0.06666666666666667 0  3.634782608695652 0.06666666666666667 0  3.651304347826087 0.06666666666666667 0  3.667826086956521 0.06666666666666667 0  3.684347826086956 0.06666666666666667 0  3.700869565217391 0.06666666666666667 0  3.717391304347826 0.06666666666666667 0  3.733913043478261 0.06666666666666667 0  3.750434782608695 0.06666666666666667 0  3.766956521739131 0.06666666666666667 0  3.783478260869565 0.06666666666666667 0  3.8 0.06666666666666667 0  3.304347826086957 0.08333333333333333 0  3.320869565217391 0.08333333333333333 0  3.337391304347826 0.08333333333333333 0  3.353913043478261 0.08333333333333333 0  3.370434782608696 0.08333333333333333 0  3.386956521739131 0.08333333333333333 0  3.403478260869565 0.08333333333333333 0  3.419999999999999 0.08333333333333333 0  3.436521739130435 0.08333333333333333 0  3.453043478260869 0.08333333333333333 0  3.469565217391304 0.08333333333333333 0  3.486086956521739 0.08333333333333333 0  3.502608695652174 0.08333333333333333 0  3.519130434782609 0.08333333333333333 0  3.535652173913043 0.08333333333333333 0  3.552173913043478 0.08333333333333333 0  3.568695652173913 0.08333333333333333 0  3.585217391304347 0.08333333333333333 0  3.601739130434782 0.08333333333333333 0  3.618260869565217 0.08333333333333333 0  3.634782608695652 0.08333333333333333 0  3.651304347826087 0.08333333333333333 0  3.667826086956521 0.08333333333333333 0  3.684347826086956 0.08333333333333333 0  3.700869565217391 0.08333333333333333 0  3.717391304347826 0.08333333333333333 0  3.733913043478261 0.08333333333333333 0  3.750434782608695 0.08333333333333333 0  3.766956521739131 0.08333333333333333 0  3.783478260869565 0.08333333333333333 0  3.8 0.08333333333333333 0  3.320869565217391 0.1 0  3.337391304347826 0.1 0  3.353913043478261 0.1 0  3.370434782608696 0.1 0  3.386956521739131 0.1 0  3.403478260869565 0.1 0  3.419999999999999 0.1 0  3.436521739130435 0.1 0  3.453043478260869 0.1 0  3.469565217391304 0.1 0  3.486086956521739 0.1 0  3.502608695652174 0.1 0  3.519130434782609 0.1 0  3.535652173913043 0.1 0  3.552173913043478 0.1 0  3.568695652173913 0.1 0  3.585217391304347 0.1 0  3.601739130434782 0.1 0  3.618260869565217 0.1 0  3.634782608695652 0.1 0  3.651304347826087 0.1 0  3.667826086956521 0.1 0  3.684347826086956 0.1 0  3.700869565217391 0.1 0  3.717391304347826 0.1 0  3.733913043478261 0.1 0  3.750434782608695 0.1 0  3.766956521739131 0.1 0  3.783478260869565 0.1 0  3.8 0.1 0  3.337391304347826 0.1166666666666667 0  3.353913043478261 0.1166666666666667 0  3.370434782608696 0.1166666666666667 0  3.386956521739131 0.1166666666666667 0  3.403478260869565 0.1166666666666667 0  3.419999999999999 0.1166666666666667 0  3.436521739130435 0.1166666666666667 0  3.453043478260869 0.1166666666666667 0  3.469565217391304 0.1166666666666667 0  3.486086956521739 0.1166666666666667 0  3.502608695652174 0.1166666666666667 0  3.519130434782609 0.1166666666666667 0  3.535652173913043 0.1166666666666667 0  3.552173913043478 0.1166666666666667 0  3.568695652173913 0.1166666666666667 0  3.585217391304347 0.1166666666666667 0  3.601739130434782 0.1166666666666667 0  3.618260869565217 0.1166666666666667 0  3.634782608695652 0.1166666666666667 0  3.651304347826087 0.1166666666666667 0  3.667826086956521 0.1166666666666667 0  3.684347826086956 0.1166666666666667 0  3.700869565217391 0.1166666666666667 0  3.717391304347826 0.1166666666666667 0  3.733913043478261 0.1166666666666667 0  3.750434782608695 0.1166666666666667 0  3.766956521739131 0.1166666666666667 0  3.783478260869565 0.1166666666666667 0  3.8 0.1166666666666667 0  3.353913043478261 0.1333333333333333 0  3.370434782608696 0.1333333333333333 0  3.386956521739131 0.1333333333333333 0  3.403478260869565 0.1333333333333333 0  3.419999999999999 0.1333333333333333 0  3.436521739130435 0.1333333333333333 0  3.453043478260869 0.1333333333333333 0  3.469565217391304 0.1333333333333333 0  3.486086956521739 0.1333333333333333 0  3.502608695652174 0.1333333333333333 0  3.519130434782609 0.1333333333333333 0  3.535652173913043 0.1333333333333333 0  3.552173913043478 0.1333333333333333 0  3.568695652173913 0.1333333333333333 0  3.585217391304347 0.1333333333333333 0  3.601739130434782 0.1333333333333333 0  3.618260869565217 0.1333333333333333 0  3.634782608695652 0.1333333333333333 0  3.651304347826087 0.1333333333333333 0  3.667826086956521 0.1333333333333333 0  3.684347826086956 0.1333333333333333 0  3.700869565217391 0.1333333333333333 0  3.717391304347826 0.13333333
[...]
<PointData  Vectors="Displacement"> 
<DataArray  type="Float64"  Name="Displacement"  NumberOfComponents="3" format="ascii">4.1431286767951885e-04 5.6524668635306351e-03 0.0000000000000000e+00  4.2041954725903941e-04 5.6822536114403974e-03 0.0000000000000000e+00  3.9060523073037576e-04 5.6804843096014274e-03 0.0000000000000000e+00  3.8558651193669100e-04 5.6505066132522793e-03 0.0000000000000000e+00  4.2586147096336784e-04 5.7131594414871279e-03 0.0000000000000000e+00  3.9502251245090894e-04 5.7116013647988545e-03 0.0000000000000000e+00  4.3061378144055738e-04 5.7450520096297367e-03 0.0000000000000000e+00  3.9885978867777147e-04 5.7437054078616906e-03 0.0000000000000000e+00  4.3467099639961593e-04 5.7777909384159106e-03 0.0000000000000000e+00  4.0212997063371759e-04 5.7766545847743479e-03 0.0000000000000000e+00  4.3803731925291345e-04 5.8112348972826104e-03 0.0000000000000000e+00  4.0484203823456692e-04 5.8103069430643561e-03 0.0000000000000000e+00  4.4072831157347913e-04 5.8452361532469197e-03 0.0000000000000000e+00  4.0701051009785319e-04 5.8445105256526020e-03 0.0000000000000000e+00  4.4277234839238067e-04 5.8796508588020149e-03 0.0000000000000000e+00  4.0865808885335594e-04 5.8791173629162904e-03 0.0000000000000000e+00  4.4420745811882842e-04 5.9143482007871558e-03 0.0000000000000000e+00  4.0981362183344381e-04 5.9139944550981437e-03 0.0000000000000000e+00  4.4507820978993023e-04 5.9492106366467162e-03 0.0000000000000000e+00  4.1051085985894939e-04 5.9490227132387085e-03 0.0000000000000000e+00  4.4543450356308211e-04 5.9841326126956699e-03 0.0000000000000000e+00  4.1078825537373836e-04 5.9840949520912389e-03 0.0000000000000000e+00  4.4533061912975822e-04 6.0190214931634982e-03 0.0000000000000000e+00  4.1068821369818180e-04 6.0191172342981348e-03 0.0000000000000000e+00  4.4482376967309344e-04 6.0537984927807945e-03 0.0000000000000000e+00  4.1025585121178307e-04 6.0540100413567239e-03 0.0000000000000000e+00  4.4397264996343463e-04 6.0883984673851350e-03 0.0000000000000000e+00  4.0953786738651197e-04 6.0887079309587516e-03 0.0000000000000000e+00  4.4283634286958266e-04 6.1227691670142550e-03 0.0000000000000000e+00  4.0858169042265713e-04 6.1231586267512135e-03 0.0000000000000000e+00  4.4147352861496707e-04 6.1568705367374046e-03 0.0000000000000000e+00  4.0743478707676734e-04 6.1573222481860791e-03 0.0000000000000000e+00  4.3994180163775510e-04 6.1906742164725154e-03 0.0000000000000000e+00  4.0614401122313564e-04 6.1911708106386762e-03 0.0000000000000000e+00  4.3829693380405466e-04 6.2241631770297064e-03 0.0000000000000000e+00  4.0475490298767460e-04 6.2246879058336455e-03 0.0000000000000000e+00  4.3659205101104470e-04 6.2573312806634487e-03 0.0000000000000000e+00  4.0331094614300708e-04 6.2578682903111455e-03 0.0000000000000000e+00  4.3487678659769909e-04 6.2901826365370098e-03 0.0000000000000000e+00  4.0185283943557982e-04 6.2907172332566609e-03 0.0000000000000000e+00  4.3319647973661871e-04 6.3227307574186863e-03 0.0000000000000000e+00  4.0041782163174839e-04 6.3232496478230612e-03 0.0000000000000000e+00  4.3159145976352331e-04 6.3549975565851402e-03 0.0000000000000000e+00  3.9903907337756836e-04 6.3554890546623291e-03 0.0000000000000000e+00  4.3009643548038129e-04 6.3870122223247351e-03 0.0000000000000000e+00  3.9774520978499409e-04 6.3874664189536691e-03 0.0000000000000000e+00  4.2873998945683366e-04 6.4188100072559377e-03 0.0000000000000000e+00  3.9655986663533679e-04 6.4192189036273934e-03 0.0000000000000000e+00  4.2754416174851923e-04 6.4504309573455423e-03 0.0000000000000000e+00  3.9550137448796243e-04 6.4507885674264433e-03 0.0000000000000000e+00  4.2652409836864365e-04 6.4819185837533596e-03 0.0000000000000000e+00  3.9458251174110331e-04 6.4822210121082934e-03 0.0000000000000000e+00  4.2568773714923001e-04 6.5133184548701751e-03 0.0000000000000000e+00  3.9381032936580972e-04 6.5135639558951200e-03 0.0000000000000000e+00  4.2503550694844263e-04 6.5446766547875533e-03 0.0000000000000000e+00  3.9318604654617161e-04 6.5448656786181265e-03 0.0000000000000000e+00  4.2456002827018620e-04 6.5760380120836936e-03 0.0000000000000000e+00  3.9270502898032495e-04 6.5761732420837197e-03 0.0000000000000000e+00  4.2424583242654514e-04 6.6074439406765611e-03 0.0000000000000000e+00  3.9235688134239415e-04 6.6075303303144905e-03 0.0000000000000000e+00  4.2406918035088452e-04 6.6389296406532978e-03 0.0000000000000000e+00  3.9212571067499130e-04 6.6389744717368394e-03 0.0000000000000000e+00  4.2399820083904947e-04 6.6705202664303640e-03 0.0000000000000000e+00  3.9199063710317224e-04 6.6705332939156507e-03 0.0000000000000000e+00  4.2399387638326555e-04 6.7022254871771407e-03 0.0000000000000000e+00  3.9192660714433840e-04 6.7022193274720978e-03 0.0000000000000000e+00  4.2401316620765299e-04 6.7340318811943845e-03 0.0000000000000000e+00  3.9190542081852923e-04 6.7340227610714612e-03 0.0000000000000000e+00  4.2401843041102233e-04 6.7658957995861422e-03 0.0000000000000000e+00  3.9189645810379993e-04 6.7659012973427107e-03 0.0000000000000000e+00  3.6223250959178802e-04 5.6790583992561176e-03 0.0000000000000000e+00  3.6555598123872091e-04 5.7103694016873143e-03 0.0000000000000000e+00  3.6844250365843513e-04 5.7426511761587426e-03 0.0000000000000000e+00  3.7089710012406797e-04 5.7757743385294658e-03 0.0000000000000000e+00  3.7291796763454959e-04 5.8096031819180978e-03 0.0000000000000000e+00  3.7451205254662490e-04 5.8439779492102661e-03 0.0000000000000000e+00  3.7569674494628008e-04 5.8787449685199855e-03 0.0000000000000000e+00  3.7649375802092694e-04 5.9137712634987670e-03 0.0000000000000000e+00  3.7692770467667318e-04 5.9489375544076132e-03 0.0000000000000000e+00  3.7702753488378163e-04 5.9841347592529317e-03 0.0000000000000000e+00  3.7682620543752590e-04 6.0192674578871909e-03 0.0000000000000000e+00  3.7635916096314011e-04 6.0542556637610103e-03 0.0000000000000000e+00  3.7566320925784254e-04 6.0890338982674246e-03 0.0000000000000000e+00  3.7477592980734108e-04 6.1235499047126770e-03 0.0000000000000000e+00  3.7373524547924114e-04 6.1577638406557994e-03 0.0000000000000000e+00  3.7257893940294940e-04 6.1916478677014409e-03 0.0000000000000000e+00  3.7134401627058369e-04 6.2251859813423245e-03 0.0000000000000000e+00  3.7006598125551368e-04 6.2583736552198187e-03 0.0000000000000000e+00  3.6877815597874766e-04 6.2912171515116886e-03 0.0000000000000000e+00  3.6751107541319159e-04 6.3237326028372847e-03 0.0000000000000000e+00  3.6629197502979739e-04 6.3559449287727311e-03 0.0000000000000000e+00  3.6514437651238602e-04 6.3878866238540983e-03 0.0000000000000000e+00  3.6408777237324687e-04 6.4195964672513180e-03 0.0000000000000000e+00  3.6313740297199342e-04 6.4511181867265618e-03 0.0000000000000000e+00  3.6230411900574225e-04 6.4824990812539836e-03 0.0000000000000000e+00  3.6159432455949383e-04 6.5137885808232961e-03 0.0000000000000000e+00  3.6100999749405017e-04 6.5450366947398765e-03 0.0000000000000000e+00  3.6054878384841345e-04 6.5762922658185487e-03 0.0000000000000000e+00  3.6020415708759601e-04 6.6076009053573134e-03 0.0000000000000000e+00  3.5996561022502493e-04 6.6390024361497255e-03 0.0000000000000000e+00  3.5981878441810803e-04 6.6705276295201885e-03 0.0000000000000000e+00  3.5974528373200791e-04 6.7021940122825628e-03 0.0000000000000000e+00  3.5972159211024822e-04 6.7340005622420545e-03 0.0000000000000000e+00  3.5971576686021040e-04 6.7659209625166323e-03 0.0000000000000000e+00  3.3709352676454676e-04 5.7094946969787419e-03 0.0000000000000000e+00  3.3902209038884823e-04 5.7419053552754534e-03 0.0000000000000000e+00  3.4065280477519483e-04 5.7751655732235256e-03 0.0000000000000000e+00  3.4196264999286223e-04 5.8091489745485982e-03 0.0000000000000000e+00  3.4294907032861554e-04 5.8436745231597569e-03 0.0000000000000000e+00  3.4362630042834407e-04 5.8785781006783369e-03 0.0000000000000000e+00  3.4400993332369756e-04 5.9137306014430714e-03 0.0000000000000000e+00  3.4411592662659938e-04 5.9490141964022684e-03 0.0000000000000000e+00  3.4396524106254975e-04 5.9843166256537909e-03 0.0000000000000000e+00  3.4358350759161978e-04 6.0195404876725216e-03 0.0000000000000000e+00  3.4299847679576521e-04 6.0546058890014829e-03 0.0000000000000000e+00  3.4223875349318291e-04 6.0894478662291219e-03 0.0000000000000000e+00  3.4133359696931906e-04 6.1240143540132255e-03 0.0000000000000000e+00  3.4031287592472539e-04 6.1582654181304508e-03 0.0000000000000000e+00  3.3920681866098117e-04 6.1921730878222933e-03 0.0000000000000000e+00  3.3804540542534247e-04 6.2257215418116451e-03 0.0000000000000000e+00  3.3685760069765642e-04 6.2589068580087611e-03 0.0000000000000000e+00  3.3567066585741531e-04 6.2917362286976277e-03 0.0000000000000000e+00  3.3450959476035699e-04 6.3242269551971883e-03 0.0000000000000000e+00  3.3339666099005335e-04 6.3564052940245910e-03 0.0000000000000000e+00  3.3235108234004021e-04 6.3883051720330028e-03 0.0000000000000000e+00  3.3138879642794996e-04 6.4199668385646171e-03 0.0000000000000000e+00  3.3052233193483924e-04 6.4514354935302455e-03 0.0000000000000000e+00  3.2976076166296286e-04 6.4827598944132096e-03 0.0000000000000000e+00  3.2910972473166624e-04 6.5139909246742641e-03 0.0000000000000000e+00  3.2857150037811443e-04 6.5451800886169777e-03 0.0000000000000000e+00  3.2814510387550738e-04 6.5763778766725163e-03 0.0000000000000000e+00  3.2782635275281830e-04 6.6076319230538192e-03 0.0000000000000000e+00  3.2760780931239233e-04 6.6389848671549699e-03 0.0000000000000000e+00  3.2747842618755424e-04 6.6704718534670434e-03 0.0000000000000000e+00  3.2742258017022258e-04 6.7021177001359003e-03 0.0000000000000000e+00  3.2741794002598185e-04 6.7339339896641667e-03 0.0000000000000000e+00  3.2743120194891846e-04 6.7659167433108567e-03 0.0000000000000000e+00  3.1027344783049736e-04 5.7414618598342296e-03 0.0000000000000000e+00  3.1109732245167911e-04 5.7748259027076768e-03 0.0000000000000000e+00  3.1169376731005814e-04 5.8089577762427888e-03 0.0000000000000000e+00  3.1205606852116932e-04 5.8436244235970094e-03 0.0000000000000000e+00  3.1220149189754870e-04 5.8786461240841331e-03 0.0000000000000000e+00  3.1213929540171705e-04 5.9139079774022897e-03 0.0000000000000000e+00  3.1187537919892858e-04 5.9492952724326783e-03 0.0000000000000000e+00  3.1142401185146038e-04 5.9846886147679650e-03 0.0000000000000000e+00  3.1080582100296851e-04 6.0199878114252153e-03 0.0000000000000000e+00  3.1004261262413638e-04 6.0551143996302207e-03 0.0000000000000000e+00  3.0915604747352695e-04 6.0900048639795923e-03 0.0000000000000000e+00  3.0816823386850241e-04 6.1246075137600178e-03 0.0000000000000000e+00  3.0710223984107920e-04 6.1588820821249128e-03 0.0000000000000000e+00  3.0598211542223861e-04 6.1928000547961581e-03 0.0000000000000000e+00  3.0483219999829993e-04 6.2263455762764826e-03 0.0000000000000000e+00  3.0367618949243375e-04 6.2595153219626174e-03 0.0000000000000000e+00  3.0253641084747595e-04 6.2923174753295400e-03 0.0000000000000000e+00  3.0143328269719848e-04 6.3247705910479705e-03 0.0000000000000000e+00  3.0038490460940860e-04 6.3569023492917849e-03 0.0000000000000000e+00  2.9940678847900301e-04 6.3887481633643894e-03 0.0000000000000000e+00  2.9851171653051277e-04 6.4203497571977686e-03 0.0000000000000000e+00  2.9770969424643579e-04 6.4517537590791227e-03 0.0000000000000000e+00  2.9700797429634278e-04 6.4830103070640053e-03 0.0000000000000000e+00  2.9641112925305482e-04 6.5141716536700756e-03 0.0000000000000000e+00  2.9592114030111414e-04 6.5452907545980920e-03 0.0000000000000000e+00  2.9553744976332387e-04 6.5764198178272955e-03 0.0000000000000000e+00  2.9525689834881448e-04 6.6076087826106291e-03 0.0000000000000000e+00  2.9507342917312794e-04 6.6389037117224351e-03 0.0000000000000000e+00  2.9497738240239456e-04 6.6703451410696415e-03 0.0000000000000000e+00  2.9495412215550684e-04 6.7019665764718739e-03 0.0000000000000000e+00  2.9498163715222908e-04 6.7337936219590945e-03 0.0000000000000000e+00  2.9502667099578117e-04 6.7658448089516167e-03 0.0000000000000000e+00  2.8195981323703585e-04 5.7747333942280692e-03 0.0000000000000000e+00  2.8184582743264001e-04 5.8090339882305511e-03 0.0000000000000000e+00  2.8158075997886453e-04 5.8438421120177372e-03 0.0000000000000000e+00  2.8119106774384756e-04 5.8789635251503651e-03 0.0000000000000000e+00  2.8067311084443080e-04 5.9143232839286705e-03 0.0000000000000000e+00  2.8001817229784449e-04 5.9498092729955094e-03 0.0000000000000000e+00  2.7923613484875172e-04 5.9852847590616499e-03 0.0000000000000000e+00  2.7834602263859251e-04 6.0206462552835774e-03 0.0000000000000000e+00  2.7736527698900027e-04 6.0558199842817191e-03 0.0000000000000000e+00  2.7630932559809051e-04 6.0907453313933475e-03 0.0000000000000000e+00  2.7519388580069415e-04 6.1253709807964291e-03 0.0000000000000000e+00  2.7403624815195495e-04 6.1596558010435466e-03 0.0000000000000000e+00  2.7285558684841536e-04 6.1935700309788712e-03 0.0000000000000000e+00  2.7167191897720214e-04 6.2270975797174563e-03 0.0000000000000000e+00  2.7050481048536412e-04 6.2602358911236352e-03 0.0000000000000000e+00  2.6937261582357078e-04 6.2929943494141544e-03 0.0000000000000000e+00  2.6829197774391788e-04 6.3253929918171943e-03 0.0000000000000000e+00  2.6727744343967572e-04 6.3574611667515588e-03 0.0000000000000000e+00  2.6634125716617455e-04 6.3892359795183909e-03 0.0000000000000000e+00  2.6549329834717796e-04 6.4207607763454126e-03 0.0000000000000000e+00  2.6474110806866858e-04 6.4520837102082030e-03 0.0000000000000000e+00  2.6408997266548571e-04 6.4832563587365723e-03 0.0000000000000000e+00  2.6354303753206630e-04 6.5143323872333750e-03 0.0000000000000000e+00  2.6310140708109378e-04 6.5453662667510834e-03 0.0000000000000000e+00  2.6276416233440668e-04 6.5764120569204061e-03 0.0000000000000000e+00  2.6252820366994754e-04 6.6075222602492321e-03 0.0000000000000000e+00  2.6238780195795208e-04 6.6387467755629846e-03 0.0000000000000000e+00  2.6233371454694625e-04 6.6701320482092149e-03 0.0000000000000000e+00  2.6235169940450829e-04 6.7017206603997796e-03 0.0000000000000000e+00  2.6242026635323333e-04 6.7335518684350348e-03 0.0000000000000000e+00  2.6250760561959640e-04 6.7656640615910901e-03 0.0000000000000000e+00  2.5214356891407462e-04 5.8093798920026947e-03 0.0000000000000000e+00  2.5126905079511425e-04 5.8443321616320565e-03 0.0000000000000000e+00  2.5037630497813033e-04 5.8795268013933869e-03 0.0000000000000000e+00  2.4941817549535751e-04 5.9149805714305195e-03 0.0000000000000000e+00  2.4836926839109518e-04 5.9505732569438063e-03 0.0000000000000000e+00  2.4724363599985593e-04 5.9861276101696925e-03 0.0000000000000000e+00  2.4606452480939689e-04 6.0215397152887859e-03 0.0000000000000000e+00  2.4484586973618730e-04 6.0567480385193325e-03 0.0000000000000000e+00  2.4359663684354020e-04 6.0916966793790796e-03 0.0000000000000000e+00  2.4232647079056841e-04 6.1263340613084104e-03 0.0000000000000000e+00  2.4104774240305129e-04 6.1606171057952920e-03 0.0000000000000000e+00  2.3977611454904788e-04 6.1945135456427458e-03 0.0000000000000000e+00  2.3852860777311792e-04 6.2280069609250864e-03 0.0000000000000000e+00  2.3732165489690274e-04 6.2610960568264696e-03 0.0000000000000000e+00  2.3617043602537746e-04 6.2937917862611855e-03 0.0000000000000000e+00  2.3508847346765031e-04 6.3261160432895270e-03 0.0000000000000000e+00  2.3408724528211215e-04 6.3581002613160645e-03 0.0000000000000000e+00  2.3317604035651715e-04 6.3897835914684719e-03 0.0000000000000000e+00  2.3236198387059146e-04 6.4212112779432470e-03 0.0000000000000000e+00  2.3165013358222885e-04 6.4524332126350229e-03 0.0000000000000000e+00  2.3104362009387236e-04 6.4835025750145537e-03 0.0000000000000000e+00  2.3054381007907830e-04 6.5144745612116849e-03 0.0000000000000000e+00  2.3015044103893404e-04 6.5454052477361005e-03 0.0000000000000000e+00  2.2986164511988737e-04 6.5763506332710423e-03 0.0000000000000000e+00  2.2967376221984950e-04 6.6073658870118126e-03 0.0000000000000000e+00  2.2958083706715263e-04 6.6385048440543680e-03 0.0000000000000000e+00  2.2957369768675552e-04 6.6698198484397937e-03 0.0000000000000000e+00  2.2963853169454527e-04 6.7013621617085682e-03 0.0000000000000000e+00  2.2975493967582235e-04 6.7331833393093387e-03 0.0000000000000000e+00  2.2989361041197493e-04 6.7653382433133999e-03 0.0000000000000000e+00  2.2081251445542506e-04 5.8450582064624567e-03 0.0000000000000000e+00  2.1957929657881841e-04 5.8803086486509341e-03 0.0000000000000000e+00  2.1820921159918731e-04 5.9158698272870642e-03 0.0000000000000000e+00  2.1676770673358442e-04 5.9515979974709421e-03 0.0000000000000000e+00  2.1529759125812813e-04 5.9872311477010432e-03 0.0000000000000000e+00  2.1382944806461058e-04 6.0226802386180583e-03 0.0000000000000000e+00  2.1237032074786200e-04 6.0579115617402359e-03 0.0000000000000000e+00  2.1092090786231147e-04 6.0928745746483366e-03 0.0000000000000000e+00  2.0948495293195046e-04 6.1275152580954175e-03 0.0000000000000000e+00  2.0807079948037416e-04 6.1617866823463199e-03 0.0000000000000000e+00  2.0669225601652939e-04 6.1956518071790692e-03 0.0000000000000000e+00  2.0536472070686794e-04 6.2290942123818787e-03 0.0000000000000000e+00  2.0410224304450231e-04 6.2621149555433225e-03 0.0000000000000000e+00  2.0291742790988981e-04 6.2947270202809644e-03 0.0000000000000000e+00  2.0182121415492719e-04 6.3269546545737477e-03 0.0000000000000000e+00  2.0082238521158710e-04 6.3588319937571873e-03 0.0000000000000000e+00  1.9992749611021131e-04 6.3904007283656326e-03 0.0000000000000000e+00  1.9914100409080079e-04 6.4217083826754798e-03 0.0000000000000000e+00  1.9846542764687640e-04 6.4528068981991715e-03 0.0000000000000000e+00  1.9790154326276683e-04 6.4837512933875342e-03 0.0000000000000000e+00  1.9744862060460316e-04 6.5145984433547244e-03 0.0000000000000000e+00  1.9710463630828192e-04 6.5454060836622604e-03 0.0000000000000000e+00  1.9686636393991731e-04 6.5762321186182901e-03 0.0000000000000000e+00  1.9672923039708773e-04 6.6071342656612072e-03 0.0000000000000000e+00  1.9668684500353259e-04 6.6381700583899566e-03 0.0000000000000000e+00  1.9673013443645090e-04 6.6693972746101286e-03 0.0000000000000000e+00  1.9684605903256245e-04 6.7008749386441432e-03 0.0000000000000000e+00  1.9701596676546744e-04 6.7326651512971949e-03 0.0000000000000000e+00  1.9721379939385334e-04 6.7648360974986279e-03 0.0000000000000000e+00  1.8906873255467455e-04 5.8813557442791561e-03 0.0000000000000000e+00  1.8693249797419213e-04 5.9169902731223706e-03 0.0000000000000000e+00  1.8504396358170382e-04 5.9528953811055947e-03 0.0000000000000000e+00  1.8325017101625710e-04 5.9886018781259293e-03 0.0000000000000000e+00  1.8151698088851321e-04 6.0240674378993315e-03 0.0000000000000000e+00  1.7983278391835769e-04 6.0593117162443125e-03 0.0000000000000000e+00  1.7819105758410344e-04 6.0942841674803674e-03 0.0000000000000000e+00  1.7659210900545524e-04 6.1289237028471152e-03 0.0000000000000000e+00  1.7504153402241252e-04 6.1631769443707797e-03 0.0000000000000000e+00  1.7355341648221407e-04 6.1969979098168183e-03 0.0000000000000000e+00  1.7214278021383033e-04 6.2303717890701835e-03 0.0000000000000000e+00  1.7082146085649073e-04 6.2633041451905739e-03 0.0000000000000000e+00  1.6959983388623612e-04 6.2958102363823700e-03 0.0000000000000000e+00  1.6848674603063416e-04 6.3279172332758168e-03 0.0000000000000000e+00  1.6748860075762502e-04 6.3596628646845213e-03 0.0000000000000000e+00  1.6660939657801952e-04 6.3910919737564060e-03 0.0000000000000000e+00  1.6585099486295565e-04 6.4222548265264207e-03 0.0000000000000000e+00  1.6521331556146600e-04 6.4532058110877734e-03 0.0000000000000000e+00  1.6469458666641839e-04 6.4840020852592484e-03 0.0000000000000000e+00  1.6429168887465426e-04 6.5147023547465089e-03 0.0000000000000000e+00  1.6400051325621498e-04 6.5453659886860914e-03 0.0000000000000000e+00  1.6381619063949717e-04 6.5760525962598928e-03 0.0000000000000000e+00  1.6373306284537419e-04 6.6068220726757153e-03 0.0000000000000000e+00  1.6374430997873908e-04 6.6377350872261764e-03 0.0000000000000000e+00  1.6384119479562602e-04 6.6688540215171406e-03 0.0000000000000000e+