<?xml version="1.0"?>
<VTKFile type="UnstructuredGrid"  version="0.1"  >
<UnstructuredGrid>
<Piece  NumberOfPoints="640" NumberOfCells="1181">
<Points>
<DataArray  type="Float64"  NumberOfComponents="3"  format="ascii">2.973913043478261 0 0  2.990434782608696 0 0  2.990434782608696 0.01666666666666667 0  2.973913043478261 0.01666666666666667 0  3.006956521739131 0 0  3.006956521739131 0.01666666666666667 0  3.023478260869565 0 0  3.023478260869565 0.01666666666666667 0  3.04 0 0  3.04 0.01666666666666667 0  3.056521739130435 0 0  3.056521739130435 0.01666666666666667 0  3.073043478260869 0 0  3.073043478260869 0.01666666666666667 0  3.089565217391304 0 0  3.089565217391304 0.01666666666666667 0  3.106086956521739 0 0  3.106086956521739 0.01666666666666667 0  3.122608695652174 0 0  3.122608695652174 0.01666666666666667 0  3.139130434782609 0 0  3.139130434782609 0.01666666666666667 0  3.155652173913043 0 0  3.155652173913043 0.01666666666666667 0  3.172173913043478 0 0  3.172173913043478 0.01666666666666667 0  3.188695652173913 0 0  3.188695652173913 0.01666666666666667 0  3.205217391304347 0 0  3.205217391304347 0.01666666666666667 0  3.221739130434782 0 0  3.221739130434782 0.01666666666666667 0  3.238260869565217 0 0  3.238260869565217 0.01666666666666667 0  2.990434782608696 0.03333333333333333 0  2.973913043478261 0.03333333333333333 0  3.006956521739131 0.03333333333333333 0  3.023478260869565 0.03333333333333333 0  3.04 0.03333333333333333 0  3.056521739130435 0.03333333333333333 0  3.073043478260869 0.03333333333333333 0  3.089565217391304 0.03333333333333333 0  3.106086956521739 0.03333333333333333 0  3.122608695652174 0.03333333333333333 0  3.139130434782609 0.03333333333333333 0  3.155652173913043 0.03333333333333333 0  3.172173913043478 0.03333333333333333 0  3.188695652173913 0.03333333333333333 0  3.205217391304347 0.03333333333333333 0  3.221739130434782 0.03333333333333333 0  3.238260869565217 0.03333333333333333 0  3.254782608695652 0.03333333333333333 0  2.990434782608696 0.05 0  3.006956521739131 0.05 0  3.023478260869565 0.05 0  3.04 0.05 0  3.056521739130435 0.05 0  3.073043478260869 0.05 0  3.089565217391304 0.05 0  3.106086956521739 0.05 0  3.122608695652174 0.05 0  3.139130434782609 0.05 0  3.155652173913043 0.05 0  3.172173913043478 0.05 0  3.188695652173913 0.05 0  3.205217391304347 0.05 0  3.221739130434782 0.05 0  3.238260869565217 0.05 0  3.254782608695652 0.05 0  3.271304347826087 0.05 0  3.006956521739131 0.06666666666666667 0  2.990434782608696 0.06666666666666667 0  3.023478260869565 0.06666666666666667 0  3.04 0.06666666666666667 0  3.056521739130435 0.06666666666666667 0  3.073043478260869 0.06666666666666667 0  3.089565217391304 0.06666666666666667 0  3.106086956521739 0.06666666666666667 0  3.122608695652174 0.06666666666666667 0  3.139130434782609 0.06666666666666667 0  3.155652173913043 0.06666666666666667 0  3.172173913043478 0.06666666666666667 0  3.188695652173913 0.06666666666666667 0  3.205217391304347 0.06666666666666667 0  3.221739130434782 0.06666666666666667 0  3.238260869565217 0.06666666666666667 0  3.254782608695652 0.06666666666666667 0  3.271304347826087 0.06666666666666667 0  3.287826086956521 0.06666666666666667 0  3.006956521739131 0.08333333333333333 0  3.023478260869565 0.08333333333333333 0  3.04 0.08333333333333333 0  3.056521739130435 0.08333333333333333 0  3.073043478260869 0.08333333333333333 0  3.089565217391304 0.08333333333333333 0  3.106086956521739 0.08333333333333333 0  3.122608695652174 0.08333333333333333 0  3.139130434782609 0.08333333333333333 0  3.155652173913043 0.08333333333333333 0  3.172173913043478 0.08333333333333333 0  3.188695652173913 0.08333333333333333 0  3.205217391304347 0.08333333333333333 0  3.221739130434782 0.08333333333333333 0  3.238260869565217 0.08333333333333333 0  3.254782608695652 0.08333333333333333 0  3.271304347826087 0.08333333333333333 0  3.287826086956521 0.08333333333333333 0  3.304347826086957 0.08333333333333333 0  3.023478260869565 0.1 0  3.006956521739131 0.1 0  3.04 0.1 0  3.056521739130435 0.1 0  3.073043478260869 0.1 0  3.089565217391304 0.1 0  3.106086956521739 0.1 0  3.122608695652174 0.1 0  3.139130434782609 0.1 0  3.155652173913043 0.1 0  3.172173913043478 0.1 0  3.188695652173913 0.1 0  3.205217391304347 0.1 0  3.221739130434782 0.1 0  3.238260869565217 0.1 0  3.254782608695652 0.1 0  3.271304347826087 0.1 0  3.287826086956521 0.1 0  3.304347826086957 0.1 0  3.320869565217391 0.1 0  3.023478260869565 0.1166666666666667 0  3.04 0.1166666666666667 0  3.056521739130435 0.1166666666666667 0  3.073043478260869 0.1166666666666667 0  3.089565217391304 0.1166666666666667 0  3.106086956521739 0.1166666666666667 0  3.122608695652174 0.1166666666666667 0  3.139130434782609 0.1166666666666667 0  3.155652173913043 0.1166666666666667 0  3.172173913043478 0.1166666666666667 0  3.188695652173913 0.1166666666666667 0  3.205217391304347 0.1166666666666667 0  3.221739130434782 0.1166666666666667 0  3.238260869565217 0.1166666666666667 0  3.254782608695652 0.1166666666666667 0  3.271304347826087 0.1166666666666667 0  3.287826086956521 0.1166666666666667 0  3.304347826086957 0.1166666666666667 0  3.320869565217391 0.1166666666666667 0  3.337391304347826 0.1166666666666667 0  3.04 0.1333333333333333 0  3.023478260869565 0.1333333333333333 0  3.056521739130435 0.1333333333333333 0  3.073043478260869 0.1333333333333333 0  3.089565217391304 0.1333333333333333 0  3.106086956521739 0.1333333333333333 0  3.122608695652174 0.1333333333333333 0  3.139130434782609 0.1333333333333333 0  3.155652173913043 0.1333333333333333 0  3.172173913043478 0.1333333333333333 0  3.188695652173913 0.1333333333333333 0  3.205217391304347 0.1333333333333333 0  3.221739130434782 0.1333333333333333 0  3.238260869565217 0.1333333333333333 0  3.254782608695652 0.1333333333333333 0  3.271304347826087 0.1333333333333333 0  3.287826086956521 0.1333333333333333 0  3.304347826086957 0.1333333333333333 0  3.320869565217391 0.1333333333333333 0  3.337391304347826 0.1333333333333333 0  3.353913043478261 0.1333333333333333 0  3.04 0.15 0  3.056521739130435 0.15 0  3.073043478260869 0.15 0  3.089565217391304 0.15 0  3.106086956521739 0.15 0  3.122608695652174 0.15 0  3.139130434782609 0.15 0  3.155652173913043 0.15 0  3.172173913043478 0.15 0  3.188695652173913 0.15 0  3.205217391304347 0.15 0  3.221739130434782 0.15 0  3.238260869565217 0.15 0  3.254782608695652 0.15 0  3.271304347826087 0.15 0  3.287826086956521 0.15 0  3.304347826086957 0.15 0  3.320869565217391 0.15 0  3.337391304347826 0.15 0  3.353913043478261 0.15 0  3.370434782608696 0.15 0  3.056521739130435 0.1666666666666667 0  3.073043478260869 0.1666666666666667 0  3.089565217391304 0.1666666666666667 0  3.106086956521739 0.1666666666666667 0  3.122608695652174 0.1666666666666667 0  3.139130434782609 0.1666666666666667 0  3.155652173913043 0.1666666666666667 0  3.172173913043478 0.1666666666666667 0  3.188695652173913 0.1666666666666667 0  3.205217391304347 0.1666666666666667 0  3.221739130434782 0.1666666666666667 0  3.238260869565217 0.1666666666666667 0  3.254782608695652 0.1666666666666667 0  3.271304347826087 0.1666666666666667 0  3.287826086956521 0.1666666666666667 0  3.304347826086957 0.1666666666666667 0  3.320869565217391 0.1666666666666667 0  3.337391304347826 0.1666666666666667 0  3.353913043478261 0.1666666666666667 0  3.370434782608696 0.1666666666666667 0  3.386956521739131 0.1666666666666667 0  3.073043478260869 0.1833333333333333 0  3.089565217391304 0.1833333333333333 0  3.106086956521739 0.1833333333333333 0  3.122608695652174 0.1833333333333333 0  3.139130434782609 0.1833333333333333 0  3.155652173913043 0.1833333333333333 0  3.172173913043478 0.1833333333333333 0  3.188695652173913 0.1833333333333333 0  3.205217391304347 0.1833333333333333 0  3.221739130434782 0.1833333333333333 0  3.238260869565217 0.1833333333333333 0  3.254782608695652 0.1833333333333333 0  3.271304347826087 0.1833333333333333 0  3.287826086956521 0.1833333333333333 0  3.304347826086957 0.1833333333333333 0  3.320869565217391 0.1833333333333333 0  3.337391304347826 0.1833333333333333 0  3.353913043478261 0.1833333333333333 0  3.370434782608696 0.1833333333333333 0  3.386956521739131 0.1833333333333333 0  3.403478260869565 0.1833333333333333 0  3.089565217391304 0.2 0  3.106086956521739 0.2 0  3.122608695652174 0.2 0  3.139130434782609 0.2 0  3.155652173913043 0.2 0  3.172173913043478 0.2 0  3.188695652173913 0.2 0  3.205217391304347 0.2 0  3.221739130434782 0.2 0  3.238260869565217 0.2 0  3.254782608695652 0.2 0  3.271304347826087 0.2 0  3.287826086956521 0.2 0  3.304347826086957 0.2 0  3.320869565217391 0.2 0  3.337391304347826 0.2 0  3.353913043478261 0.2 0  3.370434782608696 0.2 0  3.386956521739131 0.2 0  3.403478260869565 0.2 0  3.419999999999999 0.2 0  3.106086956521739 0.2166666666666667 0  3.122608695652174 0.2166666666666667 0  3.139130434782609 0.2166666666666667 0  3.155652173913043 0.2166666666666667 0  3.172173913043478 0.2166666666666667 0  3.188695652173913 0.2166666666666667 0  3.205217391304347 0.2166666666666667 0  3.221739130434782 0.2166666666666667 0  3.238260869565217 0.2166666666666667 0  3.254782608695652 0.2166666666666667 0  3.271304347826087 0.2166666666666667 0  3.287826086956521 0.2166666666666667 0  3.304347826086957 0.2166666666666667 0  3.320869565217391 0.2166666666666667 0  3.337391304347826 0.2166666666666667 0  3.353913043478261 0.2166666666666667 0  3.370434782608696 0.2166666666666667 0  3.386956521739131 0.2166666666666667 0  3.403478260869565 0.2166666666666667 0  3.419999999999999 0.2166666666666667 0  3.436521739130435 0.2166666666666667 0  3.122608695652174 0.2333333333333333 0  3.139130434782609 0.2333333333333333 0  3.155652173913043 0.2333333333333333 0  3.172173913043478 0.2333333333333333 0  3.188695652173913 0.2333333333333333 0  3.205217391304347 0.2333333333333333 0  3.221739130434782 0.2333333333333333 0  3.238260869565217 0.2333333333333333 0  3.254782
[...]
<CellData  Scalars="sigma_m"> 
<DataArray  type="Float64"  Name="sigma_m"  format="ascii">1.9577684760090234e+06   5.3974231935613360e+06   2.2162809161471976e+06   4.6474649730235199e+06   2.6077099132575197e+06   3.7383033026845017e+06   2.9606952536525880e+06   3.1715542928897482e+06   3.2506713918191106e+06   2.8560071373892245e+06   3.4650897706465586e+06   2.7345193869256843e+06   3.6297110861267126e+06   2.7127541553743659e+06   3.7149033565366492e+06   2.7328019671785953e+06   3.6206754800449894e+06   2.7462665018029576e+06   3.2176529719934827e+06   2.7095240525822146e+06   2.4492051320322263e+06   2.5564244334687307e+06   1.4552147934558194e+06   2.0090816143614112e+06   1.1782377843570844e+06   1.7427539837193475e+06   8.1625575798757143e-03   1.5702453583666507e+01   0.0000000000000000e+00   1.6886085893864347e-08   0.0000000000000000e+00   0.0000000000000000e+00   5.4722383316470357e+06   9.2739415648605172e+06   4.7469250234321682e+06   7.0529872540453691e+06   3.7104093761087586e+06   3.7026538099559117e+06   3.1266742068192256e+06   3.0310960754507161e+06   2.8281050404182039e+06   2.0271639068162392e+06   2.7142654719190616e+06   1.8359889147137294e+06   2.6935032195192212e+06   1.7805273078543514e+06   2.7023774717454682e+06   1.8516664340313580e+06   2.7065790840269178e+06   2.0447092267616412e+06   2.7081540511825010e+06   2.3825347392731458e+06   2.7166153689539931e+06   2.8136627991131144e+06   2.6284313283332842e+06   3.3009366254360238e+06   3.9023921714950637e+06   4.4027735038201306e+06   3.0582422036047351e+01   5.7154046321817031e+06   8.2056050687377149e-08   6.5743138682256771e-02   0.0000000000000000e+00   9.5540536509694871e-10   0.0000000000000000e+00   2.5654620711261055e+02   3.4425472588114694e+03   4.4600241896837095e-01   1.0360201918634046e+06   5.2891216053911300e+01   2.8306826562873702e+06   5.3121177104575944e+05   1.9305659086845070e+06   1.2136001006104806e+06   1.7406992875342348e+06   8.4183752192169649e+05   1.7329462119181990e+06   7.7782278678761085e+05   1.8261889809878801e+06   9.3367180807097652e+05   1.9907407203945352e+06   1.2505876569994020e+06   2.1647957628901228e+06   1.7473125518064569e+06   2.3656927994744075e+06   2.1885679897806416e+06   2.5224141037894976e+06   2.7365570081938556e+06   3.2607629186184336e+06   3.7973249137042719e+06   5.7635781496299431e+06   6.4811154552747337e+06   3.2246798072787897e+03   7.6828534663381847e+06   3.4479030041682940e-05   4.2885549360524863e+02   0.0000000000000000e+00   5.3838036924716316e-06   0.0000000000000000e+00   6.9443442152613488e-10   0.0000000000000000e+00   4.3058940046028964e-06   5.4196936458305000e-10   4.4296267717908613e+00   4.5107335627854726e-05   7.3676852203284670e+05   3.1062318837661223e+03   5.5809586901914678e+05   2.1021237735464302e+05   7.1434907821726182e+05   9.0707570622006198e+04   9.1724072766138520e+05   3.4124683795117156e+05   1.1411005211941875e+06   8.5389820486673631e+05   1.1516716542803806e+06   1.6277109316906999e+06   1.2942911861890315e+06   1.6387189790935309e+06   1.5962124676072712e+06   1.4619555824704794e+06   2.0895279567656049e+06   2.0203769813961564e+06   3.4104610443916754e+06   3.2249519657335225e+06   5.2581835626872499e+06   4.8396139276334941e+06   4.2643667390395645e+06   5.6214109406717615e+06   1.3409318196356894e+01   4.9540695209750189e+06   2.5597336808629799e-08   2.5834123294082660e+00   6.3828831401902409e-09   0.0000000000000000e+00   0.0000000000000000e+00   0.0000000000000000e+00   2.6694279067941785e-05   2.0522814813580482e-07   2.9345652668453240e+04   1.5516613648034203e+02   1.8042893697412562e+05   6.1218639983135171e+05   1.1334327817061491e+05   5.9561253785685368e+05   4.0740923417145724e+05   1.0176034463251190e+06   6.0006632373970200e+05   1.9242328825620611e+06   6.2304341618160158e+05   3.6348150336246961e+06   9.0551338022008736e+05   3.6454162195681753e+06   1.4484455733513399e+06   3.2517493868598077e+06   1.1402987739171006e+06   2.1194143751555062e+06   1.1040222094731405e+06   1.5743421613267744e+06   2.3517871353879548e+06   2.5451875028754133e+06   3.5181353367813262e+06   3.3957899512494495e+06   4.4624319643197870e+06   4.2961587865777332e+06   1.8557085235298248e+06   4.7081477570941458e+06   1.0035296714680354e-02   1.4452749706946211e+06   1.3615226920292839e-03   0.0000000000000000e+00   0.0000000000000000e+00   2.7946521100918448e-03   1.9308849244092994e-04   1.2697953220688373e+05   4.6510103913884307e+05   6.9262722264380706e+05   8.5371130854701111e+05   1.1724671151288182e+06   1.2557856702725093e+06   1.9350193839943730e+06   1.6302348894907574e+06   3.2324072608251041e+06   3.0013250068965047e+06   4.0087746000148938e+06   5.6871900575569822e+06   2.7391079169408353e+06   1.6613080931112098e+06   3.7629310771889454e+06   3.2081707172609365e+05   3.6563897130680429e+06   4.7103857626025015e+06   2.1331873454396720e+06   2.5800645778267356e+06   5.8127300941080216e+05   1.5539325596599034e+06   1.1894257533597548e+06   1.5982106278743919e+06   2.3940280955530000e+06   2.5183922143453499e+06   3.2994780881070234e+06   3.3789454709561570e+06   4.0939564079006305e+06   4.5216616643542228e+06   1.6787980681889001e+03   4.7420005019480605e+06   1.4281562184331412e+02   1.3054880652181890e-06   9.2882617210070039e+03   2.4645084495379933e+03   1.6848317912322509e+06   2.2017558189336932e+06   1.4578370199565652e+06   1.9302315416501197e+06   2.0366187654949629e+06   1.7780291029192642e+06   2.8834249319437277e+06   2.0049050975618158e+06   4.4317809895454049e+06   2.4799719828790408e+06   5.1365572656145127e+02   4.0794588251165010e+02   2.6893530945340479e-03   7.5739011016173882e-05   3.8966471998608523e-03   8.7304955978525316e-07   7.9589055552289460e+02   3.3180567184708861e-04   4.0930644988730298e+06   1.2792391851012633e+03   2.7222692316240184e+06   2.2682059392728289e+06   1.2548680234916604e+06   1.5492986827177207e+06   5.0929699123601586e+05   1.1128723283625909e+06   1.5092228009384798e+06   1.6897580415775040e+06   2.5326647680482469e+06   2.5304652265454200e+06   3.3347397185427486e+06   3.2104775266275038e+06   1.9025180783847426e+06   3.2660450153996106e+06   1.6902861778694864e+06   2.5023765951057300e+06   2.9098312633165987e+06   2.0099432746834918e+06   2.4165506987276748e+06   1.6865909580663636e+06   1.8222720893839267e+06   1.9184667201729922e+06   1.4810708971990705e+06   2.3196808455178547e+06   1.5499582326391791e+06   5.0117122060110021e+04   5.3205263774128049e+05   2.8961528607555377e-06   3.7491389406922576e-06   0.0000000000000000e+00   0.0000000000000000e+00   0.0000000000000000e+00   0.0000000000000000e+00   0.0000000000000000e+00   0.0000000000000000e+00   5.3161664264830539e-04   0.0000000000000000e+00   6.6937947300155487e+04   8.9374052635654306e-04   2.8542494685043767e+06   2.2874860444355986e+05   1.7163330151598693e+06   1.8283072639031063e+06   5.5280383437111764e+05   8.2858896902300371e+05   9.2854143310490320e+05   1.1934710025947189e+06   1.9034672161804948e+06   2.0309256068029981e+06   2.4842812173113213e+06   2.5969801924691675e+06   3.1048860998512600e+06   3.4684012696644557e+06   3.3790553486719765e+06   2.5587703772907616e+06   1.7266274261163040e+06   1.8816455067690890e+06   1.3888425046229756e+06   1.2392435843291241e+06   1.1671700828101393e+06   8.9728599310657021e+05   1.0616359399324846e+06   5.0556284404710028e+05   3.9955562148849431e-03   5.3114373472585935e-02   0.0000000000000000e+00   0.0000000000000000e+00   0.0000000000000000e+00   0.0000000000000000e+00   0.0000000000000000e+00   0.0000000000000000e+00   0.0000000000000000e+00   0.0000000000000000e+00   0.0000000000000000e+00   0.0000000000000000e+00   0.0000000000000000e+00   0.0000000000000000e+00   2.6461435087078013e-02   0.0000000000000000e+00   7.2330904368024692e+05   6.9465092907521397e-02   1.7923886590678929e+06   5.3989930699782912e+05   6.6870436531899439e+05   8.2974914136560296e+05   6.0421139118845656e+05   8.7897798384929239e+05   1.3470510526399482e+06   1.4605506356056037e+06   2.0507541748031345e+06   2.0870125621848984e+06   2.5122445554984566e+06   2.4260958461597962e+06   2.2471002440918013e+06   1.2451863714329696e+06   7.9446185763304017e+05   4.9568765349518659e+05   4.6168631668469746e+05   1.5519814545868678e+05   3.3413363335263500e+02   2.1152234900880603e+03   0.0000000000000000e+00   0.0000000000000000e+00   0.0000000000000000e+00   0.0000000000000000e+00   0.0000000000000000e+00   0.0000000000000000e+00   0.0000000000000000e+00   0.0000000000000000e+00   0.0000000000000000e+00   0.0000000000000000e+00   0.0000000000000000e+00   0.0000000000000000e+00   0.0000000000000000e+00   0.0000000000000000e+00   0.0000000000000000e+00   0.0000000000000000e+00   8.3716577063610724e-09   0.0000000000000000e+00   2.0020009868185844e+00   2.2336927066789137e-08   1.4394568666815953e+06   1.1240515530537435e+01   6.7357321814005764e+05   5.0792216257770767e+05   4.0411942812748253e+05   4.9066561015609122e+05   1.1348328277194449e+06   1.2524410333352867e+06   1.7157789934108530e+06   1.7744624285862816e+06   1.9563887008725717e+06   2.0175276561684574e+06   2.2539408620654545e+06   4.2064073898827762e+05   2.7065388444270240e+05   3.6234904199180176e+05   2.1892680316543116e-07   5.9951191805372992e-07   0.0000000000000000e+00   0.0000000000000000e+00   0.0000000000000000e+00   0.0000000000000000e+00   0.0000000000000000e+00   0.0000000000000000e+00   0.0000000000000000e+00   0.0000000000000000e+00   0.0000000000000000e+00   0.0000000000000000e+00   0.0000000000000000e+00   0.0000000000000000e+00   0.0000000000000000e+00   0.0000000000000000e+00   0.0000000000000000e+00   0.0000000000000000e+00   0.0000000000000000e+00   0.0000000000000000e+00   0.0000000000000000e+00   0.0000000000000000e+00   5.4555275803366780e-06   0.0000000000000000e+00   1.0180940741176724e+04   4.1934345183140299e-05   5.5202569057032513e+05   1.6414390616388147e+05   4.5424948414908815e+05   4.7478414833436301e+05   1.0639926213255443e+06   1.1217102498081429e+06   1.4716543168221111e+06   1.5255494195465711e+06   1.8054795066462876e+06   1.8566434263461451e+06   2.2587363905026382e+06   3.2175587959298758e-06   0.0000000000000000e+00   0.0000000000000000e+00   0.0000000000000000e+00   0.0000000000000000e+00   0.0000000000000000e+00   0.0000000000000000e+00   0.0000000000000000e+00   0.0000000000000000e+00   0.0000000000000000e+00   0.0000000000000000e+00   0.0000000000000000e+00   0.0000000000000000e+00   0.0000000000000000e+00   0.0000000000000000e+00   0.0000000000000000e+00   0.0000000000000000e+00   0.0000000000000000e+00   0.0000000000000000e+00   0.0000000000000000e+00   0.0000000000000000e+00   0.0000000000000000e+00   0.0000000000000000e+00   0.0000000000000000e+00   0.0000000000000000e+00   0.0000000000000000e+00   0.0000000000000000e+00   4.0840955941918017e-01   1.2132786810831462e-09   1.8881802013014295e+05   1.0127056495379749e+01   5.5246755440831103e+05   5.0445031092596386e+05   9.9401279521837388e+05   1.0430848988876769e+06   1.3642619209790071e+06   1.4165315118882498e+06   1.6317934732611678e+06   1.6509947551023902e+06   1.5843120921654657e+06   0.0000000000000000e+00   0.0000000000000000e+00   0.0000000000000000e+00   0.0000000000000000e+00   0.0000000000000000e+00   0.0000000000000000e+00   0.0000000000000000e+00   0.0000000000000000e+00   0.0000000000000000e+00   0.0000000000000000e+00   0.0000000000000000e+00   0.0000000000000000e+00   0.0000000000000000e+00   0.0000000000000000e+00   0.0000000000000000e+00   0.0000000000000000e+00   0.0000000000000000e+00   0.0000000000000000e+00   0.0000000000000000e+00   0.0000000000000000e+00   0.0000000000000000e+00   0.0000000000000000e+00   0.0000000000000000e+00   0.0000000000000000e+00   0.0000000000000000e+00   0.0000000000000000e+00   0.0000000000000000e+00   5.5128905950409714e-05   0.0000000000000000e+00   1.1404261830347208e+04   1.6523983815189174e-03   5.5727951424491685e+05   2.4582232422361473e+05   1.0738425628563827e+06   1.1217458471960772e+06   1.4187386724293570e+06   1.4342518327736568e+06   1.5155392873864272e+06   1.5028193870213449e+06   1.3810121315862038e+06   0.0000000000000000e+00   0.0000000000000000e+00   0.0000000000000000e+00   0.0000000000000000e+00   0.0000000000000000e+00   0.0000000000000000e+00   0.0000000000000000e+00   0.0000000000000000e+00   0.0000000000000000e+00   0.0000000000000000e+00   0.0000000000000000e+00   0.0000000000000000e+00   0.0000000000000000e+00   0.0000000000000000e+00   0.0000000000000000e+00   0.0000000000000000e+00   0.0000000000000000e+00   0.0000000000000000e+00   0.0000000000000000e+00   0.0000000000000000e+00   0.0000000000000000e+00   0.0000000000000000e+00   0.0000000000000000e+00   0.0000000000000000e+00   0.0000000000000000e+00   0.0000000000000000e+00   0.0000000000000000e+00   2.8471117836537598e-08   0.0000000000000000e+00   5.6516123944872231e+02   7.2570604655971652e-07   9.9741795608174335e+05   2.9575170759443510e+04   1.4364899379809671e+06   1.3918913464333515e+06   1.5126673653781393e+06   1.5004161539963118e+06   1.4646884343651074e+06   1.4501014984587224e+06   1.3271979546516649e+06   0.0000000000000000e+00   0.0000000000000000e+00   0.0000000000000000e+00   0.0000000000000000e+00   0.0000000000000000e+00   0.0000000000000000e+00   0.0000000000000000e+00   0.0000000000000000e+00   0.0000000000000000e+00   0.0000000000000000e+00   0.0000000000000000e+00   0.0000000000000000e+00   0.0000000000000000e+00   0.0000000000000000e+00   0.0000000000000000e+00   0.0000000000000000e+00   0.0000000000000000e+00   0.0000000000000000e+00   0.0000000000000000e+00   0.0000000000000000e+00   0.0000000000000000e+00   0.0000000000000000e+00   0.0000000000000000e+00   0.0000000000000000e+00   0.0000000000000000e+00   0.0000000000000000e+00   0.0000000000000000e+00   0.0000000000000000e+00   0.0000000000000000e+00   4.2859145118502673e-01   0.0000000000000000e+00   1.1731148754774651e+06   2.0507627893013833e+01   1.6253704013249420e+06   1.4625331446346103e+06   1.5860808430783430e+06   1.5698827222496457e+06   1.5265801916255988e+06   1.5171011102954608e+06   1.2819690350252069e+06   0.0000000000000000e+00   0.0000000000000000e+00   0.0000000000000000e+00   0.0000000000000000e+00   0.0000000000000000e+00   0.0000000000000000e+00   0.0000000000000000e+00   0.0000000000000000e+00   0.0000000000000000e+00   0.0000000000000000e+00   0.0000000000000000e+00   0.0000000000000000e+00   0.0000000000000000e+00   0.0000000000000000e+00   0.0000000000000000e+00   0.0000000000000000e+00   0.0000000000000000e+00   0.0000000000000000e+00   0.0000000000000000e+00   0.0000000000000000e+00   0.0000000000000000e+00   0.0000000000000000e+00   0.0000000000000000e+00   0.0000000000000000e+00   0.0000000000000000e+00   0.0000000000000000e+00   0.0000000000000000e+00   0.0000000000000000e+00   0.0000000000000000e+00   2.5009375625360412e-04   0.0000000000000000e+00   3.6243717602792714e+05   1.0087547434533585e-02   1.6498479034937012e+06   1.0685630091499547e+06   1.8023394644060447e+06   1.8186044043155119e+06   1.6933487451591692e+06   1.6510491045791225e+06   1.2649575699283795e+06   0.0000000000000000e+00   0.0000000000000000e+00   0.0000000000000000e+00   0.0000000000000000e+00   0.0000000000000000e+00   0.0000000000000000e+00   0.0000000000000000e+00   0.0000000000000000e+00   0.0000000000000000e+00   0.0000000000000000e+00   0.0000000000000000e+00   0.0000000000000000e+00   0.0000000000000000e+00   0.0000000000000000e+00   0.0000000000000000e+00   0.0000000000000000e+00   0.0000000000000000e+00   0.0000000000000000e+00   0.0000000000000000e+00   0.0000000000000000e+00   0.0000000000000000e+00   0.0000000000000000e+00   0.0000000000000000e+00   0.0000000000000000e+00   0.0000000000000000e+00   0.0000000000000000e+00   0.0000000000000000e+00   0.0000000000000000e+00   0.0000000000000000e+00   1.8865222374472826e-07   0.0000000000000000e+00   3.5544317137370695e+03   5.1620334768264642e-06   2.1881421653190921e+06   1.3952088425778761e+05   2.2460140453145723e+06   2.2238500301394989e+06   1.9367515816129094e+06   1.8881983007387563e+06   1.4020445488399044e+06   0.0000000000000000e+00   0.0000000000000000e+00   0.0000000000000000e+00   0.0000000000000000e+00   0.0000000000000000e+00   0.0000000000000000e+00   0.0000000000000000e+00   0.0000000000000000e+00   0.0000000000000000e+00   0.0000000000000000e+00   0.0000000000000000e+00   0.0000000000000000e+00   0.0000000000000000e+00   0.0000000000000000e+00   0.0000000000000000e+00   0.0000000000000000e+00   0.0000000000000000e+00   0.0000000000000000e+00   0.0000000000000000e+00   0.0000000000000000e+00   0.0000000000000000e+00   0.0000000000000000e+00   0.0000000000000000e+00   0.0000000000000000e+00   0.0000000000000000e+00   0.0000000000000000e+00   0.0000000000000000e+00   0.0000000000000000e+00   0.0000000000000000e+00   0.0000000000000000e+00   0.0000000000000000e+00   1.3826871347238365e+00   1.9144318684630064e-09   2.4814783961258992e+06   4.2474653589724909e+01   2.7940024489028202e+06   2.4604622953949780e+06   2.2852033990606777e+06   2.2000174109398322e+06   1.7933022098979461e+06   0.0000000000000000e+00   0.0000000000000000e+00   0.0000000000000000e+00   0.0000000000000000e+00   0.0000000000000000e+00   0.0000000000000000e+00   0.0000000000000000e+00   0.0000000000000000e+00   0.0000000000000000e+00   0.0000000000000000e+00   0.0000000000000000e+00   0.0000000000000000e+00   0.0000000000000000e+00   0.0000000000000000e+00   0.0000000000000000e+00   0.0000000000000000e+00   0.0000000000000000e+00   0.0000000000000000e+00   0.0000000000000000e+00   0.0000000000000000e+00   0.0000000000000000e+00   0.0000000000000000e+00   0.0000000000000000e+00   0.0000000000000000e+00   0.0000000000000000e+00   0.0000000000000000e+00   0.0000000000000000e+00   0.0000000000000000e+00   0.0000000000000000e+00   0.0000000000000000e+00   0.0000000000000000e+00   2.2369300603801247e-04   0.0000000000000000e+00   3.0414630017504463e+05   4.4995600626746724e-03   2.7212648886650382e+06   1.1270779547614031e+06   2.7984965254482841e+06   2.9095987179001379e+06   2.2041700223414898e+06   0.0000000000000000e+00   0.0000000000000000e+00   0.0000000000000000e+00   0.0000000000000000e+00   0.0000000000000000e+00   0.0000000000000000e+00   0.0000000000000000e+00   0.0000000000000000e+00   0.0000000000000000e+00   0.0000000000000000e+00   0.0000000000000000e+00   0.0000000000000000e+00   0.0000000000000000e+00   0.0000000000000000e+00   0.0000000000000000e+00   0.0000000000000000e+00   0.0000000000000000e+00   0.0000000000000000e+00   0.0000000000000000e+00   0.0000000000000000e+00   0.0000000000000000e+00   0.0000000000000000e+00   0.0000000000000000e+00   0.0000000000000000e+00   0.0000000000000000e+00   0.0000000000000000e+00   0.0000000000000000e+00   0.0000000000000000e+00   0.0000000000000000e+00   0.0000000000000000e+00   0.0000000000000000e+00   3.0454385167743959e-08   0.0000000000000000e+00   1.1760243315341023e+02   4.1601250280147772e-07   4.1808366990548340e+06   2.1320616933691335e+03   4.0305725246548136e+06   3.6550687437118362e+06   2.5497734184587728e+06   0.0000000000000000e+00   0.0000000000000000e+00   0.0000000000000000e+00   0.0000000000000000e+00   0.0000000000000000e+00   0.0000000000000000e+00   0.0000000000000000e+00   0.0000000000000000e+00   0.0000000000000000e+00   0.0000000000000000e+00   0.0000000000000000e+00   0.0000000000000000e+00   0.0000000000000000e+00   0.0000000000000000e+00   0.0000000000000000e+00   0.0000000000000000e+00   0.0000000000000000e+00   0.0000000000000000e+00   0.0000000000000000e+00   0.0000000000000000e+00   0.0000000000000000e+00   0.0000000000000000e+00   0.0000000000000000e+00   0.0000000000000000e+00   0.0000000000000000e+00   0.0000000000000000e+00   0.0000000000000000e+00   0.0000000000000000e+00   0.0000000000000000e+00   0.0000000000000000e+00   0.0000000000000000e+00   0.0000000000000000e+00   0.00000000