<?xml version="1.0"?>
<VTKFile type="UnstructuredGrid"  version="0.1"  >
<UnstructuredGrid>
<Piece  NumberOfPoints="621" NumberOfCells="1125">
<Points>
<DataArray  type="Float64"  NumberOfComponents="3"  format="ascii">1.883478260869565 0 0  1.9 0 0  1.9 0.01666666666666667 0  1.883478260869565 0.01666666666666667 0  1.916521739130435 0 0  1.916521739130435 0.01666666666666667 0  1.933043478260869 0 0  1.933043478260869 0.01666666666666667 0  1.949565217391304 0 0  1.949565217391304 0.01666666666666667 0  1.966086956521739 0 0  1.966086956521739 0.01666666666666667 0  1.982608695652174 0 0  1.982608695652174 0.01666666666666667 0  1.999130434782608 0 0  1.999130434782608 0.01666666666666667 0  2.015652173913043 0 0  2.015652173913043 0.01666666666666667 0  2.032173913043478 0 0  2.032173913043478 0.01666666666666667 0  2.048695652173913 0 0  2.048695652173913 0.01666666666666667 0  2.065217391304348 0 0  2.065217391304348 0.01666666666666667 0  2.081739130434782 0 0  2.081739130434782 0.01666666666666667 0  2.098260869565217 0 0  2.098260869565217 0.01666666666666667 0  2.114782608695652 0 0  2.114782608695652 0.01666666666666667 0  2.131304347826087 0 0  2.131304347826087 0.01666666666666667 0  2.147826086956522 0 0  2.147826086956522 0.01666666666666667 0  2.164347826086956 0 0  2.164347826086956 0.01666666666666667 0  2.180869565217391 0 0  2.180869565217391 0.01666666666666667 0  2.197391304347826 0 0  2.197391304347826 0.01666666666666667 0  2.213913043478261 0 0  2.213913043478261 0.01666666666666667 0  2.230434782608695 0 0  2.230434782608695 0.01666666666666667 0  2.24695652173913 0 0  2.24695652173913 0.01666666666666667 0  2.263478260869565 0 0  2.263478260869565 0.01666666666666667 0  2.28 0 0  2.28 0.01666666666666667 0  2.296521739130434 0 0  2.296521739130434 0.01666666666666667 0  2.31304347826087 0 0  2.31304347826087 0.01666666666666667 0  2.329565217391304 0 0  2.329565217391304 0.01666666666666667 0  2.346086956521739 0 0  2.346086956521739 0.01666666666666667 0  2.362608695652174 0 0  2.362608695652174 0.01666666666666667 0  2.379130434782609 0 0  2.379130434782609 0.01666666666666667 0  2.395652173913044 0 0  2.395652173913044 0.01666666666666667 0  2.412173913043478 0 0  2.412173913043478 0.01666666666666667 0  2.428695652173913 0 0  2.428695652173913 0.01666666666666667 0  2.445217391304348 0 0  2.445217391304348 0.01666666666666667 0  2.461739130434782 0 0  2.461739130434782 0.01666666666666667 0  2.478260869565217 0 0  2.478260869565217 0.01666666666666667 0  2.494782608695652 0 0  2.494782608695652 0.01666666666666667 0  2.511304347826087 0 0  2.511304347826087 0.01666666666666667 0  2.527826086956522 0 0  2.527826086956522 0.01666666666666667 0  2.544347826086956 0 0  2.544347826086956 0.01666666666666667 0  2.560869565217391 0 0  2.560869565217391 0.01666666666666667 0  2.577391304347826 0 0  2.577391304347826 0.01666666666666667 0  1.916521739130435 0.03333333333333333 0  1.933043478260869 0.03333333333333333 0  1.949565217391304 0.03333333333333333 0  1.966086956521739 0.03333333333333333 0  1.982608695652174 0.03333333333333333 0  1.999130434782608 0.03333333333333333 0  2.015652173913043 0.03333333333333333 0  2.032173913043478 0.03333333333333333 0  2.048695652173913 0.03333333333333333 0  2.065217391304348 0.03333333333333333 0  2.081739130434782 0.03333333333333333 0  2.098260869565217 0.03333333333333333 0  2.114782608695652 0.03333333333333333 0  2.131304347826087 0.03333333333333333 0  2.147826086956522 0.03333333333333333 0  2.164347826086956 0.03333333333333333 0  2.180869565217391 0.03333333333333333 0  2.197391304347826 0.03333333333333333 0  2.213913043478261 0.03333333333333333 0  2.230434782608695 0.03333333333333333 0  2.24695652173913 0.03333333333333333 0  2.263478260869565 0.03333333333333333 0  2.28 0.03333333333333333 0  2.296521739130434 0.03333333333333333 0  2.31304347826087 0.03333333333333333 0  2.329565217391304 0.03333333333333333 0  2.346086956521739 0.03333333333333333 0  2.362608695652174 0.03333333333333333 0  2.379130434782609 0.03333333333333333 0  2.395652173913044 0.03333333333333333 0  2.412173913043478 0.03333333333333333 0  2.428695652173913 0.03333333333333333 0  2.445217391304348 0.03333333333333333 0  2.461739130434782 0.03333333333333333 0  2.478260869565217 0.03333333333333333 0  2.494782608695652 0.03333333333333333 0  2.511304347826087 0.03333333333333333 0  2.527826086956522 0.03333333333333333 0  2.544347826086956 0.03333333333333333 0  2.560869565217391 0.03333333333333333 0  2.577391304347826 0.03333333333333333 0  2.593913043478261 0.03333333333333333 0  1.933043478260869 0.05 0  1.949565217391304 0.05 0  1.966086956521739 0.05 0  1.982608695652174 0.05 0  1.999130434782608 0.05 0  2.015652173913043 0.05 0  2.032173913043478 0.05 0  2.048695652173913 0.05 0  2.065217391304348 0.05 0  2.081739130434782 0.05 0  2.098260869565217 0.05 0  2.114782608695652 0.05 0  2.131304347826087 0.05 0  2.147826086956522 0.05 0  2.164347826086956 0.05 0  2.180869565217391 0.05 0  2.197391304347826 0.05 0  2.213913043478261 0.05 0  2.230434782608695 0.05 0  2.24695652173913 0.05 0  2.263478260869565 0.05 0  2.28 0.05 0  2.296521739130434 0.05 0  2.31304347826087 0.05 0  2.329565217391304 0.05 0  2.346086956521739 0.05 0  2.362608695652174 0.05 0  2.379130434782609 0.05 0  2.395652173913044 0.05 0  2.412173913043478 0.05 0  2.428695652173913 0.05 0  2.445217391304348 0.05 0  2.461739130434782 0.05 0  2.478260869565217 0.05 0  2.494782608695652 0.05 0  2.511304347826087 0.05 0  2.527826086956522 0.05 0  2.544347826086956 0.05 0  2.560869565217391 0.05 0  2.577391304347826 0.05 0  2.593913043478261 0.05 0  2.610434782608696 0.05 0  1.949565217391304 0.06666666666666667 0  1.966086956521739 0.06666666666666667 0  1.982608695652174 0.06666666666666667 0  1.999130434782608 0.06666666666666667 0  2.015652173913043 0.06666666666666667 0  2.032173913043478 0.06666666666666667 0  2.048695652173913 0.06666666666666667 0  2.065217391304348 0.06666666666666667 0  2.081739130434782 0.06666666666666667 0  2.098260869565217 0.06666666666666667 0  2.114782608695652 0.06666666666666667 0  2.131304347826087 0.06666666666666667 0  2.147826086956522 0.06666666666666667 0  2.164347826086956 0.06666666666666667 0  2.180869565217391 0.06666666666666667 0  2.197391304347826 0.06666666666666667 0  2.213913043478261 0.06666666666666667 0  2.230434782608695 0.06666666666666667 0  2.24695652173913 0.06666666666666667 0  2.263478260869565 0.06666666666666667 0  2.28 0.06666666666666667 0  2.296521739130434 0.06666666666666667 0  2.31304347826087 0.06666666666666667 0  2.329565217391304 0.06666666666666667 0  2.346086956521739 0.06666666666666667 0  2.362608695652174 0.06666666666666667 0  2.379130434782609 0.06666666666666667 0  2.395652173913044 0.06666666666666667 0  2.412173913043478 0.06666666666666667 0  2.428695652173913 0.06666666666666667 0  2.445217391304348 0.06666666666666667 0  2.461739130434782 0.06666666666666667 0  2.478260869565217 0.06666666666666667 0  2.494782608695652 0.06666666666666667 0  2.511304347826087 0.06666666666666667 0  2.527826086956522 0.06666666666666667 0  2.544347826086956 0.06666666666666667 0  2.560869565217391 0.06666666666666667 0  2.577391304347826 0.06666666666666667 0  2.593913043478261 0.06666666666666667 0  2.610434782608696 0.06666666666666667 0  2.62695652173913 0.06666666666666667 0  1.966086956521739 0.08333333333333333 0  1.982608695652174 0.08333333333333333 0  1.999130434782608 0.08333333333333333 0  2.015652173913043 0.08333333333333333 0  2.032173913043478 0.08333333333333333 0  2.048695652173913 0.08333333333333333 0  2.065217391304348 0.08333333333333333 0  2.081739130434782 0.08333333333333333 0  2.098260869565217 0.08333333333333333 0  2.114782608695652 0.08333333333333333 0  2.131304347826087 0.08333333333333333 0  2.147826086956522 0.08333333333333333 0  2.164347826086956 0.08333333333333333 0  2.180869565217391 0.08333333333333333 0  2.197391304347826 0.08333333333333333 0  2.213913043478261 0.08333333333333333 0  2.230434782608695 0.08333333333333333 0  2.24695652173913 0.08333333333333333 0  2.263478260869565 0.08333333333333333 0  2.28 0.08333333333333333 0  2.296521739130434 0.08333333333333333 0  2.31304347826087 0.08333333333333333 0  2.329565217391304 0.08333333333333333 0  2.346086956521739 0.08333333333333333 0  2.362608695652174 0.08333333333333333 0  2.379130434782609 0.08333333333333333 0  2.395652173913044 0.08333333333333333 0  2.412173913043478 0.08333333333333333 0  2.428695652173913 0.08333333333333333 0  2.445217391304348 0.08333333333333333 0  2.461739130434782 0.08333333333333333 0  2.478260869565217 0.08333333333333333 0  2.494782608695652 0.08333333333333333 0  2.511304347826087 0.08333333333333333 0  2.527826086956522 0.08333333333333333 0  2.544347826086956 0.08333333333333333 0  2.560869565217391 0.08333333333333333 0  2.577391304347826 0.08333333333333333 0  2.593913043478261 0.08333333333333333 0  2.610434782608696 0.08333333333333333 0  2.62695652173913 0.08333333333333333 0  2.643478260869565 0.08333333333333333 0  1.982608695652174 0.1 0  1.999130434782608 0.1 0  2.015652173913043 0.1 0  2.032173913043478 0.1 0  2.048695652173913 0.1 0  2.065217391304348 0.1 0  2.081739130434782 0.1 0  2.098260869565217 0.1 0  2.114782608695652 0.1 0  2.131304347826087 0.1 0  2.147826086956522 0.1 0  2.164347826086956 0.1 0  2.180869565217391 0.1 0  2.197391304347826 0.1 0  2.213913043478261 0.1 0  2.230434782608695 0.1 0  2.24695652173913 0.1 0  2.263478260869565 0.1 0  2.28 0.1 0  2.296521739130434 0.1 0  2.31304347826087 0.1 0  2.329565217391304 0.1 0  2.346086956521739 0.1 0  2.362608695652174 0.1 0  2.379130434782609 0.1 0  2.395652173913044 0.1 0  2.412173913043478 0.1 0  2.428695652173913 0.1 0  2.445217391304348 0.1 0  2.461739130434782 0.1 0  2.478260869565217 0.1 0  2.494782608695652 0.1 0  2.511304347826087 0.1 0  2.527826086956522 0.1 0  2.544347826086956 0.1 0  2.560869565217391 0.1 0  2.5773
[...]
<PointData  Vectors="Displacement"> 
<DataArray  type="Float64"  Name="Displacement"  NumberOfComponents="3" format="ascii">3.0603694431724293e-04 2.8810585902949485e-03 0.0000000000000000e+00  3.0526829592284388e-04 2.9200281867377306e-03 0.0000000000000000e+00  2.6727449669999967e-04 2.9199653888903215e-03 0.0000000000000000e+00  2.6545380970445731e-04 2.8808957492613176e-03 0.0000000000000000e+00  3.0431087141375671e-04 2.9566690371191627e-03 0.0000000000000000e+00  2.6854426135188947e-04 2.9567497319945074e-03 0.0000000000000000e+00  3.0327444320373643e-04 2.9910586176894920e-03 0.0000000000000000e+00  2.6940072937651675e-04 2.9911990895695050e-03 0.0000000000000000e+00  3.0230654299477053e-04 3.0236023706260141e-03 0.0000000000000000e+00  2.6994666978016625e-04 3.0237522277891445e-03 0.0000000000000000e+00  3.0150070692329140e-04 3.0547473975785469e-03 0.0000000000000000e+00  2.7028505679699727e-04 3.0548872646709619e-03 0.0000000000000000e+00  3.0092997451262074e-04 3.0848449845886756e-03 0.0000000000000000e+00  2.7051272479158654e-04 3.0849535416682511e-03 0.0000000000000000e+00  3.0070969062893341e-04 3.1141609842199433e-03 0.0000000000000000e+00  2.7075851265081894e-04 3.1141872399604266e-03 0.0000000000000000e+00  3.0099184541443563e-04 3.1430077317494698e-03 0.0000000000000000e+00  2.7117015035311933e-04 3.1428857540360912e-03 0.0000000000000000e+00  3.0184146763749704e-04 3.1718883205563170e-03 0.0000000000000000e+00  2.7180460173202153e-04 3.1716094842078688e-03 0.0000000000000000e+00  3.0314386301081203e-04 3.2013669588456511e-03 0.0000000000000000e+00  2.7256647614225742e-04 3.2010018320343852e-03 0.0000000000000000e+00  3.0472351888650084e-04 3.2317354746912563e-03 0.0000000000000000e+00  2.7335230150132795e-04 3.2313405936542508e-03 0.0000000000000000e+00  3.0645755815244413e-04 3.2631394976644391e-03 0.0000000000000000e+00  2.7409301348249728e-04 3.2627241746316961e-03 0.0000000000000000e+00  3.0832675971806666e-04 3.2956674448924171e-03 0.0000000000000000e+00  2.7484121684747759e-04 3.2951650967860558e-03 0.0000000000000000e+00  3.1025875953329384e-04 3.3293585726471746e-03 0.0000000000000000e+00  2.7579348679705810e-04 3.3288464274540000e-03 0.0000000000000000e+00  3.1219224576939717e-04 3.3640163513772498e-03 0.0000000000000000e+00  2.7684441096073630e-04 3.3634930361441011e-03 0.0000000000000000e+00  3.1410799019283343e-04 3.3994793059603850e-03 0.0000000000000000e+00  2.7800093853224301e-04 3.3989629994842299e-03 0.0000000000000000e+00  3.1599139506179719e-04 3.4356687348653945e-03 0.0000000000000000e+00  2.7916909441886044e-04 3.4351681767556658e-03 0.0000000000000000e+00  3.1783598315227518e-04 3.4725688523805846e-03 0.0000000000000000e+00  2.8029487036447564e-04 3.4720841874526075e-03 0.0000000000000000e+00  3.1964452880468987e-04 3.5101960173759784e-03 0.0000000000000000e+00  2.8136607154107034e-04 3.5097166843294759e-03 0.0000000000000000e+00  3.2142311733592579e-04 3.5485463622892204e-03 0.0000000000000000e+00  2.8242613992164546e-04 3.5480689944048256e-03 0.0000000000000000e+00  3.2317486778005823e-04 3.5875903339220409e-03 0.0000000000000000e+00  2.8349671461638950e-04 3.5871140980221323e-03 0.0000000000000000e+00  3.2490103260977306e-04 3.6272887593440210e-03 0.0000000000000000e+00  2.8458425067915560e-04 3.6268129769344588e-03 0.0000000000000000e+00  3.2660200736474526e-04 3.6675986917668658e-03 0.0000000000000000e+00  2.8569226625114259e-04 3.6671228587698995e-03 0.0000000000000000e+00  3.2827801114869220e-04 3.7084731645072788e-03 0.0000000000000000e+00  2.8682422095498329e-04 3.7079967265247604e-03 0.0000000000000000e+00  3.2992961370683586e-04 3.7498614026260178e-03 0.0000000000000000e+00  2.8798388108465913e-04 3.7493836624497342e-03 0.0000000000000000e+00  3.3155736757491523e-04 3.7917097739801043e-03 0.0000000000000000e+00  2.8917477275221845e-04 3.7912306147503847e-03 0.0000000000000000e+00  3.3316111438073704e-04 3.8339627784601243e-03 0.0000000000000000e+00  2.9039783966831943e-04 3.8334831261629732e-03 0.0000000000000000e+00  3.3473993203962540e-04 3.8765659827973463e-03 0.0000000000000000e+00  2.9164939326685110e-04 3.8760871889351122e-03 0.0000000000000000e+00  3.3629271518165606e-04 3.9194692278932105e-03 0.0000000000000000e+00  2.9292313317736334e-04 3.9189922615155146e-03 0.0000000000000000e+00  3.3781869956972624e-04 3.9626271836363646e-03 0.0000000000000000e+00  2.9421388001610636e-04 3.9621524388695302e-03 0.0000000000000000e+00  3.3931757383253716e-04 4.0059977151064166e-03 0.0000000000000000e+00  2.9551905743910220e-04 4.0055252092685411e-03 0.0000000000000000e+00  3.4078935988304186e-04 4.0495399949183608e-03 0.0000000000000000e+00  2.9683811486507883e-04 4.0490695438268505e-03 0.0000000000000000e+00  3.4223428308396731e-04 4.0932132542428343e-03 0.0000000000000000e+00  2.9817167424549306e-04 4.0927445527435121e-03 0.0000000000000000e+00  3.4365266212501596e-04 4.1369760745702897e-03 0.0000000000000000e+00  2.9952102416256558e-04 4.1365087652431983e-03 0.0000000000000000e+00  3.4504480002590791e-04 4.1807859449836584e-03 0.0000000000000000e+00  3.0088777981561145e-04 4.1803196923584553e-03 0.0000000000000000e+00  3.4641092070386234e-04 4.2245989693595462e-03 0.0000000000000000e+00  3.0227360770393149e-04 4.2241334936830794e-03 0.0000000000000000e+00  3.4775117306989824e-04 4.2683697432395595e-03 0.0000000000000000e+00  3.0368007227041108e-04 4.2679048311003737e-03 0.0000000000000000e+00  3.4906564361359706e-04 4.3120514028811936e-03 0.0000000000000000e+00  3.0510852103183905e-04 4.3115869692948441e-03 0.0000000000000000e+00  3.5035431814327175e-04 4.3555959578280871e-03 0.0000000000000000e+00  3.0655972987636570e-04 4.3551321475153960e-03 0.0000000000000000e+00  3.5161702230429104e-04 4.3989551353334723e-03 0.0000000000000000e+00  3.0803333001115847e-04 4.3984923336414126e-03 0.0000000000000000e+00  3.5285345856824043e-04 4.4420815646245091e-03 0.0000000000000000e+00  3.0952765083763246e-04 4.4416202234638710e-03 0.0000000000000000e+00  3.5406337311880999e-04 4.4849296503770937e-03 0.0000000000000000e+00  3.1104046254476047e-04 4.4844700577050334e-03 0.0000000000000000e+00  2.3369031380866660e-04 2.9562867742862287e-03 0.0000000000000000e+00  2.3631359839390641e-04 2.9909350112230226e-03 0.0000000000000000e+00  2.3809999025021513e-04 3.0235848766321555e-03 0.0000000000000000e+00  2.3931154767002478e-04 3.0548276683864044e-03 0.0000000000000000e+00  2.4007590724754323e-04 3.0849980057528190e-03 0.0000000000000000e+00  2.4056057633667908e-04 3.1142275837058460e-03 0.0000000000000000e+00  2.4100807884476979e-04 3.1427516789959541e-03 0.0000000000000000e+00  2.4152348532336469e-04 3.1712876017067982e-03 0.0000000000000000e+00  2.4194931291285921e-04 3.2006941664511138e-03 0.0000000000000000e+00  2.4214245227509966e-04 3.2310862806863897e-03 0.0000000000000000e+00  2.4219600064528788e-04 3.2624753177632419e-03 0.0000000000000000e+00  2.4218278275187462e-04 3.2948076923789925e-03 0.0000000000000000e+00  2.4194909246591306e-04 3.3284747604534672e-03 0.0000000000000000e+00  2.4189578783530212e-04 3.3631417898327032e-03 0.0000000000000000e+00  2.4222015255662629e-04 3.3985776545978484e-03 0.0000000000000000e+00  2.4264662863739445e-04 3.4347790008072854e-03 0.0000000000000000e+00  2.4305519275266081e-04 3.4717093094886577e-03 0.0000000000000000e+00  2.4340343325922895e-04 3.5093607588614914e-03 0.0000000000000000e+00  2.4373742024299061e-04 3.5477201751035934e-03 0.0000000000000000e+00  2.4410771903423509e-04 3.5867640773472611e-03 0.0000000000000000e+00  2.4452981371532776e-04 3.6264549916840559e-03 0.0000000000000000e+00  2.4501611648402195e-04 3.6667547157955855e-03 0.0000000000000000e+00  2.4557942116892011e-04 3.7076191766067172e-03 0.0000000000000000e+00  2.4622689899794743e-04 3.7489970612872509e-03 0.0000000000000000e+00  2.4695824927057367e-04 3.7908339342680826e-03 0.0000000000000000e+00  2.4777406321566526e-04 3.8330758459071317e-03 0.0000000000000000e+00  2.4867162120875653e-04 3.8756704533464900e-03 0.0000000000000000e+00  2.4964201727080686e-04 3.9185681531921429e-03 0.0000000000000000e+00  2.5067571070999076e-04 3.9617226833500614e-03 0.0000000000000000e+00  2.5176684964194187e-04 4.0050906660652474e-03 0.0000000000000000e+00  2.5291347201256018e-04 4.0486303922904129e-03 0.0000000000000000e+00  2.5411596993133730e-04 4.0923005697729407e-03 0.0000000000000000e+00  2.5537577793975554e-04 4.1360594933886989e-03 0.0000000000000000e+00  2.5669503012401606e-04 4.1798645702461048e-03 0.0000000000000000e+00  2.5807680884602519e-04 4.2236719686750005e-03 0.0000000000000000e+00  2.5952478994004943e-04 4.2674364081602056e-03 0.0000000000000000e+00  2.6104241636303553e-04 4.3111112263482009e-03 0.0000000000000000e+00  2.6263191642406466e-04 4.3546488306858500e-03 0.0000000000000000e+00  2.6429309453695175e-04 4.3980015439706917e-03 0.0000000000000000e+00  2.6602330761528746e-04 4.4411224755151078e-03 0.0000000000000000e+00  2.6781878675359263e-04 4.4839660301340964e-03 0.0000000000000000e+00  2.6967612077499905e-04 4.5264879903848913e-03 0.0000000000000000e+00  2.0494459653455736e-04 2.9903082198032955e-03 0.0000000000000000e+00  2.0772483766099239e-04 3.0233441476080064e-03 0.0000000000000000e+00  2.0934479864054343e-04 3.0547645037018235e-03 0.0000000000000000e+00  2.1033662270556475e-04 3.0851783305075584e-03 0.0000000000000000e+00  2.1083569688171364e-04 3.1144557347139892e-03 0.0000000000000000e+00  2.1120141790385209e-04 3.1426242408426753e-03 0.0000000000000000e+00  2.1164915170668899e-04 3.1707735993826208e-03 0.0000000000000000e+00  2.1188192094569910e-04 3.2002334675562145e-03 0.0000000000000000e+00  2.1186548551563564e-04 3.2307683640614071e-03 0.0000000000000000e+00  2.1131438633447490e-04 3.2622593417766395e-03 0.0000000000000000e+00  2.1167258461434894e-04 3.2902014322000084e-03 0.0000000000000000e+00  2.1268240579543990e-04 3.3218683128934164e-03 0.0000000000000000e+00  2.1379191516190837e-04 3.3551017067254209e-03 0.0000000000000000e+00  2.1499093710450448e-04 3.3893961192576288e-03 0.0000000000000000e+00  2.1626080811195555e-04 3.4246707544026088e-03 0.0000000000000000e+00  2.1757172831630219e-04 3.4608402642459456e-03 0.0000000000000000e+00  2.1890518983758590e-04 3.4978509149062214e-03 0.0000000000000000e+00  2.2026432719221182e-04 3.5356552367984285e-03 0.0000000000000000e+00  2.2166315595348288e-04 3.5742170289878865e-03 0.0000000000000000e+00  2.2311269116940947e-04 3.6135018661736396e-03 0.0000000000000000e+00  2.2461790340243048e-04 3.6534694988635858e-03 0.0000000000000000e+00  2.2618055308574957e-04 3.6940742779467848e-03 0.0000000000000000e+00  2.2779902320997644e-04 3.7352656706491354e-03 0.0000000000000000e+00  2.2946801095449844e-04 3.7769897717521337e-03 0.0000000000000000e+00  2.3117984426909542e-04 3.8191905689453345e-03 0.0000000000000000e+00  2.3292552087162517e-04 3.8618128589642236e-03 0.0000000000000000e+00  2.3469532544794018e-04 3.9048029305806093e-03 0.0000000000000000e+00  2.3648043017673512e-04 3.9481080019491757e-03 0.0000000000000000e+00  2.3827463843838510e-04 3.9916765684216218e-03 0.0000000000000000e+00  2.4007504295711193e-04 4.0354587887834192e-03 0.0000000000000000e+00  2.4188160612100633e-04 4.0794062830118473e-03 0.0000000000000000e+00  2.4369629266456067e-04 4.1234715889834437e-03 0.0000000000000000e+00  2.4552225216196733e-04 4.1676075619029099e-03 0.0000000000000000e+00  2.4736316850288402e-04 4.2117668994721327e-03 0.0000000000000000e+00  2.4922263608171557e-04 4.2559019415189837e-03 0.0000000000000000e+00  2.5110350781006941e-04 4.2999646464838299e-03 0.0000000000000000e+00  2.5300731394185669e-04 4.3439067637937563e-03 0.0000000000000000e+00  2.5493390926349690e-04 4.3876801965810402e-03 0.0000000000000000e+00  2.5688157860449264e-04 4.4312371928010427e-03 0.0000000000000000e+00  2.5884763212611120e-04 4.4745303669574393e-03 0.0000000000000000e+00  2.6082920498214505e-04 4.5175127034809580e-03 0.0000000000000000e+00  2.6282394387174484e-04 4.5601375389973222e-03 0.0000000000000000e+00  1.7885828807028914e-04 3.0233287803350891e-03 0.0000000000000000e+00  1.8040185420905788e-04 3.0547805646355809e-03 0.0000000000000000e+00  1.8167204924710961e-04 3.0856624244724896e-03 0.0000000000000000e+00  1.8219302230250225e-04 3.1151179173551789e-03 0.0000000000000000e+00  1.8237736685450614e-04 3.1425623169146644e-03 0.0000000000000000e+00  1.8273102100921457e-04 3.1698370567381485e-03 0.0000000000000000e+00  1.8295924570318862e-04 3.1993806684139105e-03 0.0000000000000000e+00  1.8285118499216567e-04 3.2298442136513158e-03 0.0000000000000000e+00  1.8360871154864418e-04 3.2561950452124995e-03 0.0000000000000000e+00  1.8513455740091548e-04 3.2840172955004273e-03 0.0000000000000000e+00  1.8638821343380880e-04 3.3141766648069827e-03 0.0000000000000000e+00  1.8789745568999254e-04 3.3461390002111945e-03 0.0000000000000000e+00  1.8960596867104851e-04 3.3793888074486996e-03 0.0000000000000000e+00  1.9146686892265022e-04 3.4137479897818567e-03 0.0000000000000000e+00  1.9345325961197686e-04 3.4491297676651988e-03 0.0000000000000000e+00  1.9553814075168609e-04 3.4854695289647025e-03 0.0000000000000000e+00  1.9770379007831974e-04 3.5227069625194153e-03 0.0000000000000000e+00  1.9994115671632479e-04 3.5607920069516499e-03 0.0000000000000000e+00  2.0224485162207461e-04 3.5996834496026513e-03 0.0000000000000000e+00  2.0460840929350868e-04 3.6393396402519098e-03 0.0000000000000000e+00  2.0702276789302199e-04 3.6797140151532104e-03 0.0000000000000000e+00  2.0947658362812974e-04 3.7207549525090358e-03 0.0000000000000000e+00  2.1195661821081608e-04 3.7624069749252133e-03 0.0000000000000000e+00  2.1444846035800072e-04 3.8046116829468430e-03 0.0000000000000000e+00  2.1693763325967809e-04 3.8473094048152800e-03 0.0000000000000000e+00  2.1941106658871932e-04 3.8904400788973724e-03 0.0000000000000000e+00  2.2185836197022662e-04 3.9339435070527414e-03 0.0000000000000000e+00  2.2427254944767304e-04 3.9777601706035143e-03 0.0000000000000000e+00  2.2665027697166433e-04 4.0218322527789552e-03 0.0000000000000000e+00  2.2899140127821143e-04 4.0661041767149917e-03 0.0000000000000000e+00  2.3129814330985886e-04 4.1105225467378522e-03 0.0000000000000000e+00  2.3357408569201483e-04 4.1550357076097890e-03 0.0000000000000000e+00  2.3582321905697459e-04 4.1995931968336992e-03 0.0000000000000000e+00  2.3804913664810009e-04 4.2441452997613099e-03 0.0000000000000000e+00  2.4025442760859498e-04 4.2886427272621121e-03 0.0000000000000000e+00  2.4244029938279968e-04 4.3330364180967067e-03 0.0000000000000000e+00  2.4460647840184241e-04 4.3772774391549110e-03 0.0000000000000000e+00  2.4675142043753420e-04 4.4213168221923956e-03 0.0000000000000000e+00  2.4887276488552148e-04 4.4651053571915286e-03 0.0000000000000000e+00  2.5096792354169272e-04 4.5085934558257079e-03 0.0000000000000000e+00  2.5303469859735376e-04 4.5517310761990434e-03 0.0000000000000000e+00  2.5507184850565891e-04 4.5944675623433850e-03 0.0000000000000000e+00  1.5556296620365909e-04 3.0537622948877152e-03 0.0000000000000000e+00  1.5552691094607924e-04 3.0874530818600331e-03 0.0000000000000000e+00  1.5569216471603657e-04 3.1165068358878279e-03 0.0000000000000000e+00  1.5573193252766060e-04 3.1426552878210654e-03 0.0000000000000000e+00  1.5597759969779591e-04 3.1679645553476807e-03 0.0000000000000000e+00  1.5650076659566689e-04 3.1958756017844746e-03 0.0000000000000000e+00  1.5758376655763585e-04 3.2227837257345305e-03 0.0000000000000000e+00  1.5920223475036530e-04 3.2492445203048596e-03 0.0000000000000000e+00  1.6056614007014540e-04 3.2765808128148413e-03 0.0000000000000000e+00  1.6201050431987138e-04 3.3057186559347419e-03 0.0000000000000000e+00  1.6372825742774186e-04 3.3364989770215750e-03 0.0000000000000000e+00  1.6574783613805761e-04 3.3686921570988773e-03 0.0000000000000000e+00  1.6802689536594392e-04 3.4021086776943065e-03 0.0000000000000000e+00  1.7051922557578234e-04 3.4366728991948791e-03 0.0000000000000000e+00  1.7318019150302507e-04 3.4723186189029795e-03 0.0000000000000000e+00  1.7597629941899087e-04 3.5089740528754035e-03 0.0000000000000000e+00  1.7888496466682873e-04 3.5465763908411304e-03 0.0000000000000000e+00  1.8188758413475949e-04 3.5850783677839819e-03 0.0000000000000000e+00  1.8496506276331352e-04 3.6244363974817970e-03 0.0000000000000000e+00  1.8809688615190639e-04 3.6646023967235948e-03 0.0000000000000000e+00  1.9126159425929558e-04 3.7055224138635070e-03 0.0000000000000000e+00  1.9443721429199387e-04 3.7471380295158786e-03 0.0000000000000000e+00  1.9760194426324558e-04 3.7893869944713777e-03 0.0000000000000000e+00  2.0073540425961348e-04 3.8322038928990882e-03 0.0000000000000000e+00  2.0382026224855453e-04 3.8755209625550885e-03 0.0000000000000000e+00  2.0684350658165823e-04 3.9192692528570178e-03 0.0000000000000000e+00  2.0979692379688349e-04 3.9633803049566952e-03 0.0000000000000000e+00  2.1267684311903549e-04 4.0077878543420941e-03 0.0000000000000000e+00  2.1548333495245695e-04 4.0524289532778788e-03 0.0000000000000000e+00  2.1821907331014476e-04 4.0972442999487125e-03 0.0000000000000000e+00  2.2088809827592031e-04 4.1421779146234928e-03 0.0000000000000000e+00  2.2349468336878078e-04 4.1871764561850870e-03 0.0000000000000000e+00  2.2604244370604454e-04 4.2321884484388447e-03 0.0000000000000000e+00  2.2853375247094588e-04 4.2771635526901624e-03 0.0000000000000000e+00  2.3096947429357217e-04 4.3220519490781333e-03 0.0000000000000000e+00  2.3334899806048636e-04 4.3668038302563765e-03 0.0000000000000000e+00  2.3567052675176235e-04 4.4113689500569478e-03 0.0000000000000000e+00  2.3793154171437158e-04 4.4556962454535987e-03 0.0000000000000000e+00  2.4012936210357245e-04 4.4997335838214006e-03 0.0000000000000000e+00  2.4226174170684602e-04 4.5434276210902635e-03 0.0000000000000000e+00  2.4432744723221905e-04 4.5867236917423292e-03 0.0000000000000000e+00  2.4632675070108555e-04 4.6295657192767566e-03 0.0000000000000000e+00  1.3329554710584887e-04 3.0869578403649313e-03 0.0000000000000000e+00  1.3243750288185528e-04 3.1189374920581794e-03 0.0000000000000000e+00  1.3213991412872159e-04 3.1431596740718812e-03 0.0000000000000000e+00  1.3215648991970073e-04 3.1660905875379440e-03 0.0000000000000000e+00  1.3288835129957987e-04 3.1880485338008366e-03 0.0000000000000000e+00  1.3455954424505142e-04 3.2155485073343971e-03 0.0000000000000000e+00  1.3596253357244436e-04 3.2416997562938858e-03 0.0000000000000000e+00  1.3734732360733248e-04 3.2685330780229849e-03 0.0000000000000000e+00  1.3894497691869170e-04 3.2965648501846151e-03 0.0000000000000000e+00  1.4087710382880281e-04 3.3262267111801602e-03 0.0000000000000000e+00  1.4313715004931750e-04 3.3573697893756016e-03 0.0000000000000000e+00  1.4572728602941064e-04 3.3898098022273038e-03 0.0000000000000000e+00  1.4860138391754711e-04 3.4235306948994597e-03 0.0000000000000000e+00  1.5170045963790131e-04 3.4584674169689153e-03 0.0000000000000000e+00  1.5498207962785898e-04 3.4945297587498014e-03 0.0000000000000000e+00  1.5841879191964367e-04 3.5316402485750693e-03 0.0000000000000000e+00  1.6198391120610979e-04 3.5697505978661971e-03 0.0000000000000000e+00  1.6564700839501694e-04 3.6088179469371002e-03 0.0000000000000000e+00  1.6937602205308725e-04 3.6487923424612101e-03 0.0000000000000000e+00  1.7313920740894611e-04 3.6896162033324864e-03 0.0000000000000000e+00  1.7690542163799661e-04 3.7312271460203739e-03 0.0000000000000000e+00  1.8064471004273683e-04 3.7735579304484386e-03 0.0000000000000000e+00  1.8432992422233764e-04 3.8165360225237018e-03 0.0000000000000000e+00  1.8793873939551637e-04 3.8600843678284935e-03 0.0000000000000000e+00  1.9145507778274752e-04 3.9041235496321482e-03 0.0000000000000000e+00  1.9486941299247946e-04 3.9485746974599568e-03 0.0000000000000000e+00  1.9817804805136638e-04 3.9933621673995919e-03 0.0000000000000000e+00  2.0138173920288441e-04 4.0384152794156018e-03 0.0000000000000000e+00  2.0448405692982278e-04 4.0836689022151675e-03 0.0000000000000000e+00  2.0748979895267631e-04 4.1290630735781614e-03 0.0000000000000000e+