<?xml version="1.0"?>
<VTKFile type="UnstructuredGrid"  version="0.1"  >
<UnstructuredGrid>
<Piece  NumberOfPoints="650" NumberOfCells="1199">
<Points>
<DataArray  type="Float64"  NumberOfComponents="3"  format="ascii">3.238260869565217 0 0  3.254782608695652 0 0  3.254782608695652 0.01666666666666667 0  3.238260869565217 0.01666666666666667 0  3.271304347826087 0 0  3.271304347826087 0.01666666666666667 0  3.287826086956521 0 0  3.287826086956521 0.01666666666666667 0  3.304347826086957 0 0  3.304347826086957 0.01666666666666667 0  3.320869565217391 0 0  3.320869565217391 0.01666666666666667 0  3.337391304347826 0 0  3.337391304347826 0.01666666666666667 0  3.353913043478261 0 0  3.353913043478261 0.01666666666666667 0  3.370434782608696 0 0  3.370434782608696 0.01666666666666667 0  3.386956521739131 0 0  3.386956521739131 0.01666666666666667 0  3.403478260869565 0 0  3.403478260869565 0.01666666666666667 0  3.419999999999999 0 0  3.419999999999999 0.01666666666666667 0  3.436521739130435 0 0  3.436521739130435 0.01666666666666667 0  3.453043478260869 0 0  3.453043478260869 0.01666666666666667 0  3.469565217391304 0 0  3.469565217391304 0.01666666666666667 0  3.486086956521739 0 0  3.486086956521739 0.01666666666666667 0  3.502608695652174 0 0  3.502608695652174 0.01666666666666667 0  3.519130434782609 0 0  3.519130434782609 0.01666666666666667 0  3.535652173913043 0 0  3.535652173913043 0.01666666666666667 0  3.552173913043478 0 0  3.552173913043478 0.01666666666666667 0  3.568695652173913 0 0  3.568695652173913 0.01666666666666667 0  3.585217391304347 0 0  3.585217391304347 0.01666666666666667 0  3.601739130434782 0 0  3.601739130434782 0.01666666666666667 0  3.618260869565217 0 0  3.618260869565217 0.01666666666666667 0  3.634782608695652 0 0  3.634782608695652 0.01666666666666667 0  3.651304347826087 0 0  3.651304347826087 0.01666666666666667 0  3.667826086956521 0 0  3.667826086956521 0.01666666666666667 0  3.684347826086956 0 0  3.684347826086956 0.01666666666666667 0  3.700869565217391 0 0  3.700869565217391 0.01666666666666667 0  3.717391304347826 0 0  3.717391304347826 0.01666666666666667 0  3.733913043478261 0 0  3.733913043478261 0.01666666666666667 0  3.750434782608695 0 0  3.750434782608695 0.01666666666666667 0  3.766956521739131 0 0  3.766956521739131 0.01666666666666667 0  3.783478260869565 0 0  3.783478260869565 0.01666666666666667 0  3.8 0 0  3.8 0.01666666666666667 0  3.254782608695652 0.03333333333333333 0  3.271304347826087 0.03333333333333333 0  3.287826086956521 0.03333333333333333 0  3.304347826086957 0.03333333333333333 0  3.320869565217391 0.03333333333333333 0  3.337391304347826 0.03333333333333333 0  3.353913043478261 0.03333333333333333 0  3.370434782608696 0.03333333333333333 0  3.386956521739131 0.03333333333333333 0  3.403478260869565 0.03333333333333333 0  3.419999999999999 0.03333333333333333 0  3.436521739130435 0.03333333333333333 0  3.453043478260869 0.03333333333333333 0  3.469565217391304 0.03333333333333333 0  3.486086956521739 0.03333333333333333 0  3.502608695652174 0.03333333333333333 0  3.519130434782609 0.03333333333333333 0  3.535652173913043 0.03333333333333333 0  3.552173913043478 0.03333333333333333 0  3.568695652173913 0.03333333333333333 0  3.585217391304347 0.03333333333333333 0  3.601739130434782 0.03333333333333333 0  3.618260869565217 0.03333333333333333 0  3.634782608695652 0.03333333333333333 0  3.651304347826087 0.03333333333333333 0  3.667826086956521 0.03333333333333333 0  3.684347826086956 0.03333333333333333 0  3.700869565217391 0.03333333333333333 0  3.717391304347826 0.03333333333333333 0  3.733913043478261 0.03333333333333333 0  3.750434782608695 0.03333333333333333 0  3.766956521739131 0.03333333333333333 0  3.783478260869565 0.03333333333333333 0  3.8 0.03333333333333333 0  3.271304347826087 0.05 0  3.287826086956521 0.05 0  3.304347826086957 0.05 0  3.320869565217391 0.05 0  3.337391304347826 0.05 0  3.353913043478261 0.05 0  3.370434782608696 0.05 0  3.386956521739131 0.05 0  3.403478260869565 0.05 0  3.419999999999999 0.05 0  3.436521739130435 0.05 0  3.453043478260869 0.05 0  3.469565217391304 0.05 0  3.486086956521739 0.05 0  3.502608695652174 0.05 0  3.519130434782609 0.05 0  3.535652173913043 0.05 0  3.552173913043478 0.05 0  3.568695652173913 0.05 0  3.585217391304347 0.05 0  3.601739130434782 0.05 0  3.618260869565217 0.05 0  3.634782608695652 0.05 0  3.651304347826087 0.05 0  3.667826086956521 0.05 0  3.684347826086956 0.05 0  3.700869565217391 0.05 0  3.717391304347826 0.05 0  3.733913043478261 0.05 0  3.750434782608695 0.05 0  3.766956521739131 0.05 0  3.783478260869565 0.05 0  3.8 0.05 0  3.287826086956521 0.06666666666666667 0  3.304347826086957 0.06666666666666667 0  3.320869565217391 0.06666666666666667 0  3.337391304347826 0.06666666666666667 0  3.353913043478261 0.06666666666666667 0  3.370434782608696 0.06666666666666667 0  3.386956521739131 0.06666666666666667 0  3.403478260869565 0.06666666666666667 0  3.419999999999999 0.06666666666666667 0  3.436521739130435 0.06666666666666667 0  3.453043478260869 0.06666666666666667 0  3.469565217391304 0.06666666666666667 0  3.486086956521739 0.06666666666666667 0  3.502608695652174 0.06666666666666667 0  3.519130434782609 0.06666666666666667 0  3.535652173913043 0.06666666666666667 0  3.552173913043478 0.06666666666666667 0  3.568695652173913 0.06666666666666667 0  3.585217391304347 0.06666666666666667 0  3.601739130434782 0.06666666666666667 0  3.618260869565217 0.06666666666666667 0  3.634782608695652 0.06666666666666667 0  3.651304347826087 0.06666666666666667 0  3.667826086956521 0.06666666666666667 0  3.684347826086956 0.06666666666666667 0  3.700869565217391 0.06666666666666667 0  3.717391304347826 0.06666666666666667 0  3.733913043478261 0.06666666666666667 0  3.750434782608695 0.06666666666666667 0  3.766956521739131 0.06666666666666667 0  3.783478260869565 0.06666666666666667 0  3.8 0.06666666666666667 0  3.304347826086957 0.08333333333333333 0  3.320869565217391 0.08333333333333333 0  3.337391304347826 0.08333333333333333 0  3.353913043478261 0.08333333333333333 0  3.370434782608696 0.08333333333333333 0  3.386956521739131 0.08333333333333333 0  3.403478260869565 0.08333333333333333 0  3.419999999999999 0.08333333333333333 0  3.436521739130435 0.08333333333333333 0  3.453043478260869 0.08333333333333333 0  3.469565217391304 0.08333333333333333 0  3.486086956521739 0.08333333333333333 0  3.502608695652174 0.08333333333333333 0  3.519130434782609 0.08333333333333333 0  3.535652173913043 0.08333333333333333 0  3.552173913043478 0.08333333333333333 0  3.568695652173913 0.08333333333333333 0  3.585217391304347 0.08333333333333333 0  3.601739130434782 0.08333333333333333 0  3.618260869565217 0.08333333333333333 0  3.634782608695652 0.08333333333333333 0  3.651304347826087 0.08333333333333333 0  3.667826086956521 0.08333333333333333 0  3.684347826086956 0.08333333333333333 0  3.700869565217391 0.08333333333333333 0  3.717391304347826 0.08333333333333333 0  3.733913043478261 0.08333333333333333 0  3.750434782608695 0.08333333333333333 0  3.766956521739131 0.08333333333333333 0  3.783478260869565 0.08333333333333333 0  3.8 0.08333333333333333 0  3.320869565217391 0.1 0  3.337391304347826 0.1 0  3.353913043478261 0.1 0  3.370434782608696 0.1 0  3.386956521739131 0.1 0  3.403478260869565 0.1 0  3.419999999999999 0.1 0  3.436521739130435 0.1 0  3.453043478260869 0.1 0  3.469565217391304 0.1 0  3.486086956521739 0.1 0  3.502608695652174 0.1 0  3.519130434782609 0.1 0  3.535652173913043 0.1 0  3.552173913043478 0.1 0  3.568695652173913 0.1 0  3.585217391304347 0.1 0  3.601739130434782 0.1 0  3.618260869565217 0.1 0  3.634782608695652 0.1 0  3.651304347826087 0.1 0  3.667826086956521 0.1 0  3.684347826086956 0.1 0  3.700869565217391 0.1 0  3.717391304347826 0.1 0  3.733913043478261 0.1 0  3.750434782608695 0.1 0  3.766956521739131 0.1 0  3.783478260869565 0.1 0  3.8 0.1 0  3.337391304347826 0.1166666666666667 0  3.353913043478261 0.1166666666666667 0  3.370434782608696 0.1166666666666667 0  3.386956521739131 0.1166666666666667 0  3.403478260869565 0.1166666666666667 0  3.419999999999999 0.1166666666666667 0  3.436521739130435 0.1166666666666667 0  3.453043478260869 0.1166666666666667 0  3.469565217391304 0.1166666666666667 0  3.486086956521739 0.1166666666666667 0  3.502608695652174 0.1166666666666667 0  3.519130434782609 0.1166666666666667 0  3.535652173913043 0.1166666666666667 0  3.552173913043478 0.1166666666666667 0  3.568695652173913 0.1166666666666667 0  3.585217391304347 0.1166666666666667 0  3.601739130434782 0.1166666666666667 0  3.618260869565217 0.1166666666666667 0  3.634782608695652 0.1166666666666667 0  3.651304347826087 0.1166666666666667 0  3.667826086956521 0.1166666666666667 0  3.684347826086956 0.1166666666666667 0  3.700869565217391 0.1166666666666667 0  3.717391304347826 0.1166666666666667 0  3.733913043478261 0.1166666666666667 0  3.750434782608695 0.1166666666666667 0  3.766956521739131 0.1166666666666667 0  3.783478260869565 0.1166666666666667 0  3.8 0.1166666666666667 0  3.353913043478261 0.1333333333333333 0  3.370434782608696 0.1333333333333333 0  3.386956521739131 0.1333333333333333 0  3.403478260869565 0.1333333333333333 0  3.419999999999999 0.1333333333333333 0  3.436521739130435 0.1333333333333333 0  3.453043478260869 0.1333333333333333 0  3.469565217391304 0.1333333333333333 0  3.486086956521739 0.1333333333333333 0  3.502608695652174 0.1333333333333333 0  3.519130434782609 0.1333333333333333 0  3.535652173913043 0.1333333333333333 0  3.552173913043478 0.1333333333333333 0  3.568695652173913 0.1333333333333333 0  3.585217391304347 0.1333333333333333 0  3.601739130434782 0.1333333333333333 0  3.618260869565217 0.1333333333333333 0  3.634782608695652 0.1333333333333333 0  3.651304347826087 0.1333333333333333 0  3.667826086956521 0.1333333333333333 0  3.684347826086956 0.1333333333333333 0  3.700869565217391 0.1333333333333333 0  3.717391304347826 0.13333333
[...]
<CellData  Scalars="rho"> 
<DataArray  type="Float64"  Name="rho"  format="ascii">1.9202350320476605e-01   2.1125444459198311e-01   1.4676460405571795e-01   1.6793387844103203e-01   9.7527820517817609e-02   1.2058548417208938e-01   4.9537487995230119e-02   7.4045809099484175e-02   3.5011060156283275e-03   1.9124522763161473e-02   2.9600885786836366e-03   3.1939193701743963e-03   2.4944439902087907e-03   2.6942093133311223e-03   2.0974248092984296e-03   2.2670416596801287e-03   1.7608202453827863e-03   1.9043077906127394e-03   1.4763487286464617e-03   1.5974579842118833e-03   1.2363632461333625e-03   1.3384261840890747e-03   1.0341300584576043e-03   1.1200292969135795e-03   8.6386683722246456e-04   9.3606574961997160e-04   7.2066377926782753e-04   7.8125883193944762e-04   6.0036525984373795e-04   6.5114058047730362e-04   4.9944954388704392e-04   5.4192535470844335e-04   4.1492429248360564e-04   4.5039716760535565e-04   3.4424062955208695e-04   3.7381645499977404e-04   2.8522530572952374e-04   3.0984587649606914e-04   2.3602727832127990e-04   2.5649234014871934e-04   1.9507382967300747e-04   2.1206007590730559e-04   1.6103393468044880e-04   1.7511156043690569e-04   1.3278669209430022e-04   1.4443404694649807e-04   1.0939345122788542e-04   1.1901011835299293e-04   9.0072768490412718e-05   9.7991244588057575e-05   7.4177970228287134e-05   8.0673993614804914e-05   6.1177345144649989e-05   6.6478799638621021e-05   5.0637239123154224e-05   5.4931696062772091e-05   4.2207523048955789e-05   4.5648506674863917e-05   3.5610048591403558e-05   3.8322088901515418e-05   3.0629368245882173e-05   3.2711958289728426e-05   2.7108191653031632e-05   2.8636550684329776e-05   2.4948591847007115e-05   2.5969819673218668e-05   2.4126240862237669e-05   2.4633383861907968e-05   2.1700621280042467e-01   1.7473935592692971e-01   2.0452930288233120e-01   1.2801323451735019e-01   1.6095128234496700e-01   8.1516531234914452e-02   1.1255596134736824e-01   2.6397878353708611e-02   6.4259540335815726e-02   3.2550506951290466e-03   7.0111897554720661e-03   2.7448568059482512e-03   3.0718318746209305e-03   2.3095314043944859e-03   2.5875545312108528e-03   1.9401023624847447e-03   2.1756897681865471e-03   1.6275411702191705e-03   1.8266844773923933e-03   1.3635433595656657e-03   1.5315399595099365e-03   1.1408191271032131e-03   1.2822642711740756e-03   9.5311735072700740e-04   1.0719676685899905e-03   7.9512590470933028e-04   8.9478311552317156e-04   6.6233554944520690e-04   7.4572433916730862e-04   5.5090982063981677e-04   6.2054378543681290e-04   4.5757419376130749e-04   5.1561048073711115e-04   3.7952812032330591e-04   4.2781264662862761e-04   3.1437600269976646e-04   3.5448221791185906e-04   2.6007235949391578e-04   2.9333533104400751e-04   2.1487697729484647e-04   2.4242413002614296e-04   1.7731645344480851e-04   2.0009558619612817e-04   1.4615042213718740e-04   1.6495518318591668e-04   1.2034102338434499e-04   1.3583396231096006e-04   9.9025119157925925e-05   1.1175822500491373e-04   8.1489239862869413e-05   9.1921884221551233e-05   6.7147298301346324e-05   7.5661708799405351e-05   5.5521393207900226e-05   6.2435532407858409e-05   4.6225673647441383e-05   5.1804092224347626e-05   3.8952896689152606e-05   4.3415484518502417e-05   3.3464386345447323e-05   3.6993269292496698e-05   2.9582046918716842e-05   3.2327276044043822e-05   2.7181375629876121e-05   2.9265226533370992e-05   2.6178684900254921e-05   2.7705430851626667e-05   2.4829128385515070e-01   2.1060454413426627e-01   2.5572274535763023e-01   1.4117890464804886e-01   2.0890975301989939e-01   8.9012433575565833e-02   1.3473488787382915e-01   3.6530668400181147e-02   8.0483558597798682e-02   3.3281223165013149e-03   2.5686051315251500e-02   2.8060175218588899e-03   3.2195083261000700e-03   2.3613377921122207e-03   2.7135695525898704e-03   1.9837938049469834e-03   2.2828088093056905e-03   1.6638597929506591e-03   1.9169357185482403e-03   1.3931527710657314e-03   1.6067287834580235e-03   1.1644591130656947e-03   1.3441842693910253e-03   9.7160844781539371e-04   1.1224247529909230e-03   8.0931372528954867e-04   9.3553477727136719e-04   6.7302840540483166e-04   7.7840595165049270e-04   5.5883171778347218e-04   6.4661347493107514e-04   4.6333951335763559e-04   5.3632096252767710e-04   3.8363617447190169e-04   4.4420814431840626e-04   3.1721974172609101e-04   3.6741390146054871e-04   2.6195529234309496e-04   3.0348766813864051e-04   2.1603329414916328e-04   2.5034570797380660e-04   1.7793096242098248e-04   2.0622987520512186e-04   1.4637582860743919e-04   1.6966804368582049e-04   1.2031159383842588e-04   1.3943625478458582e-04   9.8866646728307516e-05   1.1452325358311288e-04   8.1326038217847602e-05   9.4098333596253085e-05   6.7107037811365129e-05   7.7483129278436348e-05   5.5738740158422474e-05   6.4127535232270266e-05   4.6845634052092171e-05   5.3590452104167078e-05   4.0134440470765214e-05   4.5524191388099054e-05   3.5384640030708843e-05   3.9662889519247127e-05   3.2440055780303324e-05   3.5814202966012337e-05   3.1200226862394660e-05   3.3850958428595395e-05   2.9411770171400953e-01   2.7210926036851318e-01   2.9556758256187127e-01   2.0425018675200596e-01   2.7145523110452541e-01   1.2535281412905655e-01   2.0068333158968821e-01   6.6616940448097059e-02   1.2191661586326022e-01   2.7146777234045301e-02   7.7986239397354468e-02   3.0636652168046928e-03   1.8284958496115181e-02   2.5810058075895880e-03   3.0095607289664034e-03   2.1692840997439549e-03   2.5342932934202173e-03   1.8190124227375744e-03   2.1284633308745436e-03   1.5218389135738472e-03   1.7830744029290870e-03   1.2704521393606051e-03   1.4901320145295504e-03   1.0584388785694356e-03   1.2425353057211772e-03   8.8016357768792896e-04   1.0339733586335821e-03   7.3067484196008634e-04   8.5884664930080314e-04   6.0563538311962217e-04   7.1220742238937540e-04   5.0126704654745904e-04   5.8971305519391851e-04   4.1430377945313299e-04   4.8758529081862386e-04   3.4194685143355141e-04   4.0256916651827652e-04   2.8182014343469572e-04   3.3188925949265879e-04   2.3192460109517109e-04   2.7320276849105975e-04   1.9059238329274648e-04   2.2455029558903915e-04   1.5644185665330618e-04   1.8430598797654165e-04   1.2833529816279389e-04   1.5112940748434971e-04   1.0534057722354930e-04   1.2392105330635402e-04   8.6698157022194254e-05   1.0178338316218659e-04   7.1793484757985145e-05   8.3988049364061012e-05   6.0135097369560873e-05   6.9949336227724825e-05   5.1338314559685064e-05   5.9204376979599241e-05   4.5112676463410770e-05   5.1398303789248584e-05   4.1253466995259797e-05   4.6273627014174647e-05   3.9636918751562091e-05   4.3665200677181811e-05   3.1592377908956115e-01   2.9728121339053920e-01   3.1845106858763966e-01   2.7468084954542205e-01   2.9921778954615258e-01   2.3519744612679855e-01   2.8452092211774310e-01   1.2757415102630207e-01   2.3296925166461699e-01   6.4217379061375604e-02   1.2221183344358533e-01   3.4740134700951908e-03   5.6843234997210987e-02   2.9303180156327806e-03   3.4414312804493278e-03   2.4633692321722445e-03   2.9001882024813652e-03   2.0644202428274994e-03   2.4352539458302415e-03   1.7252491716657095e-03   2.0383008244174486e-03   1.4382209390632963e-03   1.7012581818374760e-03   1.1963323493706858e-03   1.4164882564440954e-03   9.9322872330179332e-04   1.1769094326866960e-03   8.2321259151456555e-04   9.7606629208470889e-04   6.8124170836705508e-04   8.0817266552556674e-04   5.6291245940543334e-04   6.6812562716115200e-04   4.6442945775364286e-04   5.5149341267516174e-04   3.8256254648278971e-04   4.5448213660530484e-04   3.1459399405775977e-04   3.7388599382554087e-04   2.5825945563727546e-04   3.0702602781135327e-04   2.1168697164398962e-04   2.5168332393365106e-04   1.7333766987980389e-04   2.0603169524792541e-04   1.4195178230325407e-04   1.6857471018863807e-04   1.1650197134342170e-04   1.3809017173807304e-04   9.6155204478209718e-05   1.1358406043498195e-04   8.0243039386731178e-05   9.4254409567658701e-05   6.8239822726604273e-05   7.9464240003500875e-05   5.9747717703564489e-05   6.8723112226179046e-05   5.4486984327831449e-05   6.1675342490699899e-05   5.2290804936566832e-05   5.8092287280472189e-05   3.6767121159156452e-01   3.4167749560237010e-01   3.7691987464868909e-01   3.1210421420699541e-01   3.4626654024099651e-01   2.7037333963591592e-01   3.1524522759708923e-01   1.9888338072601450e-01   2.6590729588995421e-01   1.3835922029433775e-01   1.9332666144766036e-01   3.9904646843714538e-02   1.3133453562030797e-01   3.3880419260781595e-03   3.0511134687912587e-02   2.8476560980808785e-03   3.3636318233598141e-03   2.3845018293201588e-03   2.8230424052724155e-03   1.9903931499629848e-03   2.3606074172856520e-03   1.6570509178573363e-03   1.9679394039425523e-03   1.3764890500302699e-03   1.6364921344266341e-03   1.1412630103347240e-03   1.3580189301608595e-03   9.4462214350912624e-04   1.1248694431513434e-03   7.8058205442510401e-04   9.3015569701639762e-04   6.4394108475402225e-04   7.6782268910295865e-04   5.3025464883041764e-04   6.3265431729318507e-04   4.3577989762679057e-04   5.2023254617347323e-04   3.5740116813637025e-04   4.2686578268746975e-04   2.9254635639490060e-04   3.4949970829420722e-04   2.3910335268942192e-04   2.8562320247343980e-04   1.9534262396168789e-04   2.3317834080200151e-04   1.5985102904558833e-04   1.9048129360480745e-04   1.3147804136505735e-04   1.5615726175944688e-04   1.0929565489551987e-04   1.2909065752492912e-04   9.2569954481012281e-05   1.0839005400336135e-04   8.0741946380531536e-05   9.3364297537337551e-05   7.3418124406275979e-05   8.3509163352837621e-05   7.0364562880800312e-05   7.8501793968432232e-05   4.1573779458081495e-01   3.8290020263275504e-01   4.1853971130909368e-01   3.4704371951585539e-01   3.8352209656279584e-01   3.1839636231780993e-01   3.4789536458874337e-01   2.6188935523188822e-01   3.0564975140567957e-01   1.7577827039010976e-01   2.2048248307150267e-01   1.1598309471944040e-01   1.6871606529649474e-01   9.4907921975743402e-03   7.0940979618883265e-02   3.3121826848590422e-03   3.9148943198690197e-03   2.7715213855581153e-03   3.2846168375820226e-03   2.3113802075600742e-03   2.7448016927033208e-03   1.9224714535789735e-03   2.2865145938771657e-03   1.5954486655324371e-03   1.8999317073191365e-03   1.3214695876471686e-03   1.5753181966188640e-03   1.0925008486867061e-03   1.3035863684773138e-03   9.0146222285286844e-04   1.0765809689906875e-03   7.4226197995343093e-04   8.8719908696159101e-04   6.0975615907728773e-04   7.2939420117511256e-04   4.9966137602670726e-04   5.9810545231745425e-04   4.0844313661674546e-04   4.8914501455204920e-04   3.3319822073411885e-04   3.9906839234134705e-04   2.7154525631204645e-04   3.2504786470521452e-04   2.2153038883670220e-04   2.6476039162497139e-04   1.8155331485523400e-04   2.1629728013618257e-04   1.5031315255562317e-04   1.7809718514085306e-04   1.2677221690222728e-04   1.4890052678963122e-04   1.1013491142146742e-04   1.2772266464469755e-04   9.9836409443267401e-05   1.1383953437279000e-04   9.5540695283707734e-05   1.0678384154824282e-04   4.4870787306918442e-01   4.1957005733004216e-01   4.4906476756147656e-01   3.8010731781367940e-01   4.1785009640701731e-01   3.4550689875070562e-01   3.8228650427145328e-01   2.9531362535392036e-01   3.4216025368103697e-01   2.0389459414128314e-01   2.8950656212180359e-01   1.4830112927493075e-01   1.9383745552735643e-01   4.8060019054473921e-02   1.3890057754692239e-01   3.8523923087899732e-03   3.5659948259121714e-02   3.2230967404383529e-03   3.8177062161528288e-03   2.6872187492148836e-03   3.1904721529410610e-03   2.2342194415824307e-03   2.6575347176738080e-03   1.8531830986553688e-03   2.2076549152769600e-03   1.5337100587823494e-03   1.8294982813291838e-03   1.2663975430422302e-03   1.5124713749787571e-03   1.0430464863053141e-03   1.2471493523037291e-03   8.5668953482687376e-04   1.0254226223933892e-03   7.0150863517248589e-04   8.4046854978516935e-04   5.7269521966661662e-04   6.8662540231039480e-04   4.6629064441798226e-04   5.5922356672384404e-04   3.7903327827339475e-04   4.5441165245881007e-04   3.0822882343050793e-04   3.6900306449449310e-04   2.5164939734938636e-04   3.0035346526852521e-04   2.0746444506381624e-04   2.4627411362516754e-04   1.7419782511559698e-04   2.0497830913458824e-04   1.5070542536556764e-04   1.7505227947144490e-04   1.3616945628218058e-04   1.5544717249209371e-04   1.3009781253829953e-04   1.4547956512196843e-04   4.7079328086040256e-01   4.4620193326877650e-01   4.6956762476896946e-01   4.1070553118365566e-01   4.4295974205973565e-01   3.7630930589086320e-01   4.0525032810226580e-01   3.3158771816722893e-01   3.7158648964890378e-01   2.4413610551431913e-01   3.2224562293128911e-01   1.8836740384915809e-01   2.4549361609026424e-01   8.8640439895370945e-02   1.8552560017671901e-01   9.7008534240282350e-03   7.5939498961984431e-02   3.7410971612307532e-03   4.4243294222752090e-03   3.1205375532930707e-03   3.7009841687261594e-03   2.5948467426318168e-03   3.0845189835765228e-03   2.1516205981557280e-03   2.5625767564553719e-03   1.7790046895471289e-03   2.1224266512822475e-03   1.4663695294419444e-03   1.7521985311341958e-03   1.2045498899014913e-03   1.4414313467210325e-03   9.8583338911012062e-04   1.1812111034920265e-03   8.0381049249992210e-04   9.6408144621575487e-04   6.5317234025561550e-04   7.8384639042330332e-04   5.2950822510037555e-04   6.3534858796967391e-04   4.2913205998624350e-04   5.1426755587296636e-04   3.4895397864482885e-04   4.1696394126626774e-04   2.8639654593625856e-04   3.4037557640380822e-04   2.3935134317056800e-04   2.8196139668935027e-04   2.0616499884646431e-04   2.3968382145760851e-04   1.8564069196247795e-04   2.1201104205731104e-04   1.7705399506739370e-04   1.9793616430757846e-04   4.8405567182135634e-01   4.6463921297985056e-01   4.8226643856712381e-01   4.3385192689009605e-01   4.6085458061047008e-01   4.0030530550633187e-01   4.2792760178639294e-01   3.6427523290391672e-01   4.1165709803493583e-01   3.2113857606731522e-01   3.6857849423192107e-01   2.2358977089598486e-01   2.8457617662321905e-01   1.6635671502807961e-01   2.1187750910296352e-01   6.0980069829340060e-02   1.5642803240855116e-01   4.3307390514179239e-03   4.8861275348376233e-02   3.6163599814326318e-03   4.2823212332915913e-03   3.0082035899656745e-03   3.5724622382313706e-03   2.4929603750512542e-03   2.9678982122188064e-03   2.0578428019374629e-03   2.4552768277849761e-03   1.6914354776053995e-03   2.0220942167512765e-03   1.3839466057992227e-03   1.6573509688880246e-03   1.1271283009012647e-03   1.3516642495354841e-03   9.1405831762812143e-04   1.0971063418354664e-03   7.3889606498829671e-04   8.8695888414038122e-04   5.9666992149377796e-04   7.1547689833418551e-04   4.8312464940650988e-04   5.7770732332588733e-04   3.9463842743375175e-04   4.6938466999044045e-04   3.2819422417952094e-04   3.8689568067045766e-04   2.8138871205898744e-04   3.2728995458063814e-04   2.5246413307273175e-04   2.8832213299600948e-04   2.4034036805083866e-04   2.6849594252271948e-04   4.9096348430405945e-01   4.7711911629757969e-01   4.8949795462443663e-01   4.5163247342121998e-01   4.7368321521424644e-01   4.3214642326218833e-01   4.4615533010791403e-01   3.9243583869646242e-01   4.3212043103239317e-01   3.5149148398467117e-01   3.8442786484140662e-01   2.6277132553561278e-01   3.4338445269903811e-01   2.0772169713886104e-01   2.5168761936308953e-01   1.0514450880108224e-01   1.9415824720563715e-01   2.5307903846773668e-02   9.3921936911772974e-02   4.1800514940893031e-03   1.8216409893346327e-02   3.4770805451469805e-03   4.1251870442348343e-03   2.8773102788064494e-03   3.4243559695994684e-03   2.3680510986866369e-03   2.8259850804289006e-03   1.9378542106775175e-03   2.3180217631023009e-03   1.5767508786586032e-03   1.8896380744711583e-03   1.2761361596392753e-03   1.5313232890689827e-03   1.0285393177998225e-03   1.2347263727908932e-03   8.2740250187679683e-04   9.9244226827065293e-04   6.6693682953637798e-04   7.9785106394951477e-04   5.4207323004527776e-04   6.4505806428185480e-04   4.4849043109562606e-04   5.2892943334361829e-04   3.8268642700689753e-04   4.4518790951569642e-04   3.4206207855723355e-04   3.9052413655442885e-04   3.2500541419038214e-04   3.6271027198095255e-04   4.9370046931364137e-01   4.8564824843248411e-01   4.9320085147564313e-01   4.6592293433436038e-01   4.8323871840217109e-01   4.3456643474065754e-01   4.6160323305662437e-01   4.2170039678555044e-01   4.4581064169074830e-01   3.8064791009000259e-01   4.1624033922159642e-01   3.0011275881247967e-01   3.7371717891782952e-01   2.3033463119067848e-01   2.9031010506454247e-01   1.7603462290767485e-01   2.2006815180163047e-01   7.2490511294518473e-02   1.3910591888647297e-01   4.8135308729247671e-03   6.2108151063925025e-02   3.9995671064828328e-03   4.7409613026015256e-03   3.2995115751729013e-03   3.9263414794009936e-03   2.7023465301994651e-03   3.2261564498117603e-03   2.1975039925860394e-03   2.6302547110399455e-03   1.7752127046034248e-03   2.1286705861368834e-03   1.4264826497507204e-03   1.7119034230271080e-03   1.1429803988157311e-03   1.3709181651071771e-03   9.1697975116368882e-04   1.0971239329775574e-03   7.4144089877826525e-04   8.8248061267753777e-04   6.1018210171278329e-04   7.1972523880213328e-04   5.1808863724505305e-04   6.0264979648181997e-04   4.6131324105161441e-04   5.2637545750160500e-04   4.3743365063795821e-04   4.8756947090644180e-04   4.9383540494038280e-01   4.9165733689706520e-01   4.9464141332421252e-01   4.7801944484238212e-01   4.9065409736543225e-01   4.5288866943868916e-01   4.7525414630360757e-01   4.3351777637100414e-01   4.4851687490314834e-01   3.9656344569889612e-01   4.3631941354238796e-01   3.5827948456678949e-01   3.9013889781745714e-01   2.7188131932759113e-01   3.5183091677862022e-01   2.0068099588459098e-01   2.6305681519623531e-01   1.1971351896413898e-01   1.9124617897392704e-01   4.1355992338520206e-02   1.0994437725217526e-01   4.5642693668463590e-03   2.1761736688607321e-02   3.7456587383718530e-03   4.4574381446730888e-03   3.0462049659622007e-03   3.6382231601383439e-03   2.4570219851965326e-03   2.9421436177601719e-03   1.9685824237051551e-03   2.3604945033968427e-03   1.5709968792614116e-03   1.8834146980664353e-03   1.2542854932706010e-03   1.5003328730824838e-03   1.0088004886504855e-03   1.2005272761696241e-03   8.2573763053633636e-04   9.7380733251780716e-04   6.9763663052694648e-04   8.1119463161218540e-04   6.1879580589850537e-04   7.0549611106785826e-04   5.8558650039916582e-04   6.5174299881911322e-04   4.9212810785352945e-01   4.9577585901286514e-01   4.9423305463173445e-01   4.8839042759091739e-01   4.9620116947759596e-01   4.6980636152656963e-01   4.8719996328507886e-01   4.4023930036851289e-01   4.6713873815837553e-01   4.1237486959129949e-01   4.3627453333883776e-01   3.7812825777886017e-01   4.0878726227523549e-01   3.1242315207455429e-01   3.7023588977912714e-01   2.4589954075457152e-01   3.0463314440984285e-01   1.9049705268902825e-01   2.3699396657745911e-01   7.5492077003666475e-02   1.6628296591402533e-01   5.1456389543796562e-03   6.4869494802493932e-02   4.1904932940524048e-03   4.9869560747104365e-03   3.3771732678468478e-03   4.0341804607798206e-03   2.6988180622389210e-03   3.2308823718539309e-03   2.1453531136225758e-03   2.5691955774015045e-03   1.7046501677412901e-03   2.0374770672784079e-03   1.3638039448221385e-03   1.6220108012989791e-03   1.1104003872045817e-03   1.3087382918546317e-03   9.3361036251040828e-04   1.0847741652025653e-03   8.2502486246034971e-04   9.3958442735881157e-04   7.7922037258512297e-04   8.6579101578918461e-04   4.8841278307233021e-01   4.9771240401193823e-01   4.9145812585148846e-01   4.9658040490207256e-01   4.9923306121992961e-01   4.8466988771615771e-01   4.9663107800373396e-01   4.6196806393513717e-01   4.8334683603336964e-01   4.2873431965651337e-01   4.5937178411899737e-01   4.0145211557742133e-01   4.2492355602739834e-01   3.4120067101682799