<?xml version="1.0"?>
<VTKFile type="UnstructuredGrid"  version="0.1"  >
<UnstructuredGrid>
<Piece  NumberOfPoints="169" NumberOfCells="287">
<Points>
<DataArray  type="Float64"  NumberOfComponents="3"  format="ascii">1.850434782608696 0 0  1.883478260869565 0 0  1.883478260869565 0.03333333333333333 0  1.850434782608696 0.03333333333333333 0  1.916521739130435 0 0  1.916521739130435 0.03333333333333333 0  1.949565217391304 0 0  1.949565217391304 0.03333333333333333 0  1.982608695652174 0 0  1.982608695652174 0.03333333333333333 0  2.015652173913043 0 0  2.015652173913043 0.03333333333333333 0  2.048695652173913 0 0  2.048695652173913 0.03333333333333333 0  2.081739130434782 0 0  2.081739130434782 0.03333333333333333 0  2.114782608695652 0 0  2.114782608695652 0.03333333333333333 0  1.883478260869565 0.06666666666666667 0  1.916521739130435 0.06666666666666667 0  1.949565217391304 0.06666666666666667 0  1.982608695652174 0.06666666666666667 0  2.015652173913043 0.06666666666666667 0  2.048695652173913 0.06666666666666667 0  2.081739130434782 0.06666666666666667 0  2.114782608695652 0.06666666666666667 0  2.147826086956522 0.06666666666666667 0  1.916521739130435 0.1 0  1.883478260869565 0.1 0  1.949565217391304 0.1 0  1.982608695652174 0.1 0  2.015652173913043 0.1 0  2.048695652173913 0.1 0  2.081739130434782 0.1 0  2.114782608695652 0.1 0  2.147826086956522 0.1 0  1.916521739130435 0.1333333333333333 0  1.883478260869565 0.1333333333333333 0  1.949565217391304 0.1333333333333333 0  1.982608695652174 0.1333333333333333 0  2.015652173913043 0.1333333333333333 0  2.048695652173913 0.1333333333333333 0  2.081739130434782 0.1333333333333333 0  2.114782608695652 0.1333333333333333 0  2.147826086956522 0.1333333333333333 0  1.916521739130435 0.1666666666666667 0  1.883478260869565 0.1666666666666667 0  1.949565217391304 0.1666666666666667 0  1.982608695652174 0.1666666666666667 0  2.015652173913043 0.1666666666666667 0  2.048695652173913 0.1666666666666667 0  2.081739130434782 0.1666666666666667 0  2.114782608695652 0.1666666666666667 0  2.147826086956522 0.1666666666666667 0  1.916521739130435 0.2 0  1.883478260869565 0.2 0  1.949565217391304 0.2 0  1.982608695652174 0.2 0  2.015652173913043 0.2 0  2.048695652173913 0.2 0  2.081739130434782 0.2 0  2.114782608695652 0.2 0  2.147826086956522 0.2 0  2.180869565217391 0.2 0  1.916521739130435 0.2333333333333333 0  1.949565217391304 0.2333333333333333 0  1.982608695652174 0.2333333333333333 0  2.015652173913043 0.2333333333333333 0  2.048695652173913 0.2333333333333333 0  2.081739130434782 0.2333333333333333 0  2.114782608695652 0.2333333333333333 0  2.147826086956522 0.2333333333333333 0  2.180869565217391 0.2333333333333333 0  2.213913043478261 0.2333333333333333 0  1.949565217391304 0.2666666666666667 0  1.916521739130435 0.2666666666666667 0  1.982608695652174 0.2666666666666667 0  2.015652173913043 0.2666666666666667 0  2.048695652173913 0.2666666666666667 0  2.081739130434782 0.2666666666666667 0  2.114782608695652 0.2666666666666667 0  2.147826086956522 0.2666666666666667 0  2.180869565217391 0.2666666666666667 0  2.213913043478261 0.2666666666666667 0  2.24695652173913 0.2666666666666667 0  1.949565217391304 0.3 0  1.916521739130435 0.3 0  1.982608695652174 0.3 0  2.015652173913043 0.3 0  2.048695652173913 0.3 0  2.081739130434782 0.3 0  2.114782608695652 0.3 0  2.147826086956522 0.3 0  2.180869565217391 0.3 0  2.213913043478261 0.3 0  2.24695652173913 0.3 0  2.28 0.3 0  1.949565217391304 0.3333333333333333 0  1.916521739130435 0.3333333333333333 0  1.982608695652174 0.3333333333333333 0  2.015652173913043 0.3333333333333333 0  2.048695652173913 0.3333333333333333 0  2.081739130434782 0.3333333333333333 0  2.114782608695652 0.3333333333333333 0  2.147826086956522 0.3333333333333333 0  2.180869565217391 0.3333333333333333 0  2.213913043478261 0.3333333333333333 0  2.24695652173913 0.3333333333333333 0  2.28 0.3333333333333333 0  1.949565217391304 0.3666666666666666 0  1.916521739130435 0.3666666666666666 0  1.982608695652174 0.3666666666666666 0  2.015652173913043 0.3666666666666666 0  2.048695652173913 0.3666666666666666 0  2.081739130434782 0.3666666666666666 0  2.114782608695652 0.3666666666666666 0  2.147826086956522 0.3666666666666666 0  2.180869565217391 0.3666666666666666 0  2.213913043478261 0.3666666666666666 0  2.24695652173913 0.3666666666666666 0  2.28 0.3666666666666666 0  1.949565217391304 0.4 0  1.916521739130435 0.4 0  1.982608695652174 0.4 0  2.015652173913043 0.4 0  2.048695652173913 0.4 0  2.081739130434782 0.4 0  2.114782608695652 0.4 0  2.147826086956522 0.4 0  2.180869565217391 0.4 0  2.213913043478261 0.4 0  2.24695652173913 0.4 0  2.28 0.4 0  1.949565217391304 0.4333333333333333 0  1.916521739130435 0.4333333333333333 0  1.982608695652174 0.4333333333333333 0  2.015652173913043 0.4333333333333333 0  2.048695652173913 0.4333333333333333 0  2.081739130434782 0.4333333333333333 0  2.114782608695652 0.4333333333333333 0  2.147826086956522 0.4333333333333333 0  2.180869565217391 0.4333333333333333 0  2.213913043478261 0.4333333333333333 0  2.24695652173913 0.4333333333333333 0  2.28 0.4333333333333333 0  1.949565217391304 0.4666666666666667 0  1.916521739130435 0.4666666666666667 0  1.982608695652174 0.4666666666666667 0  2.015652173913043 0.4666666666666667 0  2.048695652173913 0.4666666666666667 0  2.081739130434782 0.4666666666666667 0  2.114782608695652 0.4666666666666667 0  2.147826086956522 0.4666666666666667 0  2.180869565217391 0.4666666666666667 0  2.213913043478261 0.4666666666666667 0  2.24695652173913 0.4666666666666667 0  2.28 0.4666666666666667 0  1.949565217391304 0.5 0  1.982608695652174 0.5 0  2.015652173913043 0.5 0  2.048695652173913 0.5 0  2.081739130434782 0.5 0  2.114782608695652 0.5 0  2.147826086956522 0.5 0  2.180869565217391 0.5 0  2.213913043478261 0.5 0  2.24695652173913 0.5 0  2.28 0.5 0  2.31304347826087 0.5 0  </DataArray>
</Points>
<Cells>
<DataArray  type="UInt32"  Name="connectivity"  format="ascii">0 1 2  0 3 2  1 4 5  1 2 5  4 6 7  4 5 7  6 8 9  6 7 9  8 10 11  8 9 11  10 12 13  10 11 13  12 14 15  12 13 15  14 16 17  14 15 17  3 2 18  2 5 19  2 18 19  5 7 20  5 19 20  7 9 21  7 20 21  9 11 22  9 21 22  11 13 23  11 22 23  13 15 24  13 23 24  15 17 25  15 24 25  17 25 26  18 19 27  18 28 27  19 20 29  19 27 29  20 21 30  20 29 30  21 22 31  21 30 31  22 23 32  22 31 32  23 24 33  23 32 33  24 25 34  24 33 34  25 26 35  25 34 35  28 27 36  28 37 36  27 29 38  27 36 38  29 30 39  29 38 39  30 31 40  30 39 40  31 32 41  31 40 41  32 33 42  32 41 42  33 34 43  33 42 43  34 35 44  34 43 44  37 36 45  37 46 45  36 38 47  36 45 47  38 39 48  38 47 48  39 40 49  39 48 49  40 41 50  40 49 50  41 42 51  41 50 51  42 43 52  42 51 52  43 44 53  43 52 53  46 45 54  46 55 54  45 47 56  45 54 56  47 48 57  47 56 57  48 49 58  48 57 58  49 50 59  49 58 59  50 51 60  50 59 60  51 52 61  51 60 61  52 53 62  52 61 62  53 62 63  55 54 64  54 56 65  54 64 65  56 57 66  56 65 66  57 58 67  57 66 67  58 59 68  58 67 68  59 60 69  59 68 69  60 61 70  60 69 70  61 62 71  61 70 71  62 63 72  62 71 72  63 72 73  64 65 74  64 75 74  65 66 76  65 74 76  66 67 77  66 76 77  67 68 78  67 77 78  68 69 79  68 78 79  69 70 80  69 79 80  70 71 81  70 80 81  71 72 82  71 81 82  72 73 83  72 82 83  73 83 84  75 74 85  75 86 85  74 76 87  74 85 87  76 77 88  76 87 88  77 78 89  77 88 89  78 79 90  78 89 90  79 80 91  79 90 91  80 81 92  80 91 92  81 82 93  81 92 93  82 83 94  82 93 94  83 84 95  83 94 95  84 95 96  86 85 97  86 98 97  85 87 99  85 97 99  87 88 100  87 99 100  88 89 101  88 100 101  89 90 102  89 101 102  90 91 103  90 102 103  91 92 104  91 103 104  92 93 105  92 104 105  93 94 106  93 105 106  94 95 107  94 106 107  95 96 108  95 107 108  98 97 109  98 110 109  97 99 111  97 109 111  99 100 112  99 111 112  100 101 113  100 112 113  101 102 114  101 113 114  102 103 115  102 114 115  103 104 116  103 115 116  104 105 117  104 116 117  105 106 118  105 117 118  106 107 119  106 118 119  107 108 120  107 119 120  110 109 121  110 122 121  109 111 123  109 121 123  111 112 124  111 123 124  112 113 125  112 124 125  113 114 126  113 125 126  114 115 127  114 126 127  115 116 128  115 127 128  116 117 129  116 128 129  117 118 130  117 129 130  118 119 131  118 130 131  119 120 132  119 131 132  122 121 133  122 134 133  121 123 135  121 133 135  123 124 136  123 135 136  124 125 137  124 136 137  125 126 138  125 137 138  126 127 139  126 138 139  127 128 140  127 139 140  128 129 141  128 140 141  129 130 142  129 141 142  130 131 143  130 142 143  131 132 144  131 143 144  134 133 145  134 146 145  133 135 147  133 145 147  135 136 148  135 147 148  136 137 149  136 148 149  137 138 150  137 149 150  138 139 151  138 150 151  139 140 152  139 151 152  140 141 153  140 152 153  141 142 154  141 153 154  142 143 155  142 154 155  143 144 156  143 155 156  146 145 157  145 147 158  145 157 158  147 148 159  147 158 159  148 149 160  148 159 160  149 150 161  149 160 161  150 151 162  150 161 162  151 152 163  151 162 163  152 153 164  152 163 164  153 154 165  153 164 165  154 155 166  154 165 166  155 156 167  155 166 167  156 167 168  </DataArray>
<DataArray  type="UInt32"  Name="offsets"  format="ascii">3 6 9 12 15 18 21 24 27 30 33 36 39 42 45 48 51 54 57 60 63 66 69 72 75 78 81 84 87 90 93 96 99 102 105 108 111 114 117 120 123 126 129 132 135 138 141 144 147 150 153 156 159 162 165 168 171 174 177 180 183 186 189 192 195 198 201 204 207 210 213 216 219 222 225 228 231 234 237 240 243 246 249 252 255 258 261 264 267 270 273 276 279 282 285 288 291 294 297 300 303 306 309 312 315 318 321 324 327 330 333 336 339 342 345 348 351 354 357 360 363 366 369 372 375 378 381 384 387 390 393 396 399 402 405 408 411 414 417 420 423 426 429 432 435 438 441 444 447 450 453 456 459 462 465 468 471 474 477 480 483 486 489 492 495 498 501 504 507 510 513 516 519 522 525 528 531 534 537 540 543 546 549 552 555 558 561 564 567 570 573 576 579 582 585 588 591 594 597 600 603 606 609 612 615 618 621 624 627 630 633 636 639 642 645 648 651 654 657 660 663 666 669 672 675 678 681 684 687 690 693 696 699 702 705 708 711 714 717 720 723 726 729 732 735 738 741 744 747 750 753 756 759 762 765 768 771 774 777 780 783 786 789 792 795 798 801 804 807 810 813 816 819 822 825 828 831 834 837 840 843 846 849 852 855 858 861 </DataArray>
<DataArray  type="UInt8"  Name="types"  format="ascii">5 5 5 5 5 5 5 5 5 5 5 5 5 5 5 5 5 5 5 5 5 5 5 5 5 5 5 5 5 5 5 5 5 5 5 5 5 5 5 5 5 5 5 5 5 5 5 5 5 5 5 5 5 5 5 5 5 5 5 5 5 5 5 5 5 5 5 5 5 5 5 5 5 5 5 5 5 5 5 5 5 5 5 5 5 5 5 5 5 5 5 5 5 5 5 5 5 5 5 5 5 5 5 5 5 5 5 5 5 5 5 5 5 5 5 5 5 5 5 5 5 5 5 5 5 5 5 5 5 5 5 5 5 5 5 5 5 5 5 5 5 5 5 5 5 5 5 5 5 5 5 5 5 5 5 5 5 5 5 5 5 5 5 5 5 5 5 5 5 5 5 5 5 5 5 5 5 5 5 5 5 5 5 5 5 5 5 5 5 5 5 5 5 5 5 5 5 5 5 5 5 5 5 5 5 5 5 5 5 5 5 5 5 5 5 5 5 5 5 5 5 5 5 5 5 5 5 5 5 5 5 5 5 5 5 5 5 5 5 5 5 5 5 5 5 5 5 5 5 5 5 5 5 5 5 5 5 5 5 5 5 5 5 5 5 5 5 5 5 5 5 5 5 5 5 5 5 5 5 5 5 5 5 5 5 5 5 </DataArray>
</Cells>
<CellData  Scalars="rho"> 
<DataArray  type="Float64"  Name="rho"  format="ascii">8.6161423607735454e-01   9.3554975236727200e-01   6.9052305326733732e-01   8.5871731811237306e-01   4.7346516037529979e-01   5.3335618213391967e-01   5.2657567142808515e-01   3.6751032452468463e-01   8.3467838111950499e-01   7.5978238912216500e-01   1.0000000000000000e+00   9.4478739438626658e-01   1.0000000000000000e+00   1.0000000000000000e+00   1.0000000000000000e+00   1.0000000000000000e+00   7.3685028504241967e-01   5.9763689281702082e-01   4.3993456643645790e-01   4.8077203507303967e-01   4.6518745786174504e-01   2.5807224870988565e-01   3.2847245982668327e-01   2.8845990351862216e-01   1.0861612968704320e-02   3.4087359933243921e-01   0.0000000000000000e+00   3.7906134320635659e-01   0.0000000000000000e+00   3.7562385013343258e-01   0.0000000000000000e+00   0.0000000000000000e+00   3.4015065980784920e-01   8.3423869546951701e-01   2.2960821269655840e-01   4.7309541908831160e-01   1.4877395921848943e-01   2.6244673392383977e-01   6.4084255375082165e-03   7.6279741605592866e-02   0.0000000000000000e+00   0.0000000000000000e+00   0.0000000000000000e+00   0.0000000000000000e+00   0.0000000000000000e+00   0.0000000000000000e+00   0.0000000000000000e+00   0.0000000000000000e+00   1.0000000000000000e+00   3.9210904959098164e-01   1.0000000000000000e+00   1.0000000000000000e+00   5.5909528949069776e-01   9.7964013315443721e-01   1.9077091211202638e-01   4.9339599635507231e-01   0.0000000000000000e+00   1.9537800156385438e-01   0.0000000000000000e+00   0.0000000000000000e+00   0.0000000000000000e+00   0.0000000000000000e+00   0.0000000000000000e+00   0.0000000000000000e+00   5.2878392794076234e-01   1.5679192556872057e-01   1.0000000000000000e+00   8.6830273594863971e-01   9.9999532904066679e-01   1.0000000000000000e+00   6.5493731340652783e-01   9.9993657054234519e-01   3.9527926412021896e-01   6.4966797998046522e-01   6.5786513269300517e-02   3.0941946303479623e-01   0.0000000000000000e+00   1.0616733468594253e-01   0.0000000000000000e+00   0.0000000000000000e+00   1.0201998583426143e-02   0.0000000000000000e+00   9.8664575134754107e-01   1.0291282573008681e-02   9.9985074208703328e-01   6.8007183401390592e-01   1.0000000000000000e+00   7.6282559161128849e-01   8.2225513187115307e-01   8.5922252242487074e-01   4.8379406537853337e-01   7.6101635644283316e-01   3.8647389155623879e-01   4.6057838582863520e-01   3.1347299088287817e-01   3.4834004029815069e-01   2.6397528689728145e-01   0.0000000000000000e+00   0.0000000000000000e+00   0.0000000000000000e+00   7.1896223520609391e-03   0.0000000000000000e+00   5.2473526121801473e-01   4.1522458633427084e-01   6.6520751626999375e-01   6.1261490155859011e-01   8.9904047291722966e-01   8.6089726150745083e-01   7.8261316790184554e-01   1.0000000000000000e+00   5.2143679001889987e-01   8.8114382469427222e-01   3.9861930565011189e-01   5.7684813695137482e-01   3.3438988456759927e-01   0.0000000000000000e+00   0.0000000000000000e+00   0.0000000000000000e+00   0.0000000000000000e+00   2.3805843751960051e-01   0.0000000000000000e+00   5.6451801613361152e-01   2.9759121647322390e-01   7.4345011111502202e-01   5.9645913451691013e-01   9.2940760341861772e-01   7.5237310538793312e-01   9.9775543201249206e-01   9.9050456711455215e-01   8.5365564284011985e-01   9.9852339998647521e-01   4.7261137715183416e-01   9.4368057518982262e-01   4.0523779505316798e-01   0.0000000000000000e+00   0.0000000000000000e+00   0.0000000000000000e+00   0.0000000000000000e+00   0.0000000000000000e+00   0.0000000000000000e+00   0.0000000000000000e+00   0.0000000000000000e+00   3.3948593576046754e-01   0.0000000000000000e+00   6.2910339886753941e-01   2.3023980389011292e-01   6.3400142663570724e-01   4.7636706111531546e-01   9.9897912552497403e-01   5.3281467254956416e-01   9.3116071903896169e-01   7.4341606227243084e-01   6.7249150136129521e-01   7.3116962568722743e-01   5.2310667759847407e-01   0.0000000000000000e+00   0.0000000000000000e+00   0.0000000000000000e+00   0.0000000000000000e+00   0.0000000000000000e+00   0.0000000000000000e+00   0.0000000000000000e+00   0.0000000000000000e+00   0.0000000000000000e+00   0.0000000000000000e+00   0.0000000000000000e+00   0.0000000000000000e+00   2.2219181739016897e-01   0.0000000000000000e+00   4.7743016068134464e-01   2.1941401448271008e-01   8.1243005849484162e-01   6.7510010645752783e-01   9.2445571522081782e-01   8.3934422326136870e-01   8.4045426781277144e-01   9.4315496038421665e-01   0.0000000000000000e+00   0.0000000000000000e+00   0.0000000000000000e+00   0.0000000000000000e+00   0.0000000000000000e+00   0.0000000000000000e+00   0.0000000000000000e+00   0.0000000000000000e+00   0.0000000000000000e+00   0.0000000000000000e+00   0.0000000000000000e+00   0.0000000000000000e+00   0.0000000000000000e+00   0.0000000000000000e+00   0.0000000000000000e+00   0.0000000000000000e+00   3.0128575292780890e-01   0.0000000000000000e+00   7.6930340138564246e-01   3.3327437723591302e-01   1.0000000000000000e+00   9.9992718812094583e-01   0.0000000000000000e+00   0.0000000000000000e+00   0.0000000000000000e+00   0.0000000000000000e+00   0.0000000000000000e+00   0.0000000000000000e+00   0.0000000000000000e+00   0.0000000000000000e+00   0.0000000000000000e+00   0.0000000000000000e+00   0.0000000000000000e+00   0.0000000000000000e+00   0.0000000000000000e+00   0.0000000000000000e+00   0.0000000000000000e+00   0.0000000000000000e+00   0.0000000000000000e+00   0.0000000000000000e+00   1.2755701189143234e-01   0.0000000000000000e+00   4.9112514453034828e-01   2.5165207741614276e-01   0.0000000000000000e+00   0.0000000000000000e+00   0.0000000000000000e+00   0.0000000000000000e+00   0.0000000000000000e+00   0.0000000000000000e+00   0.0000000000000000e+00   0.0000000000000000e+00   0.0000000000000000e+00   0.0000000000000000e+00   0.0000000000000000e+00   0.0000000000000000e+00   0.0000000000000000e+00   0.0000000000000000e+00   0.0000000000000000e+00   0.0000000000000000e+00   0.0000000000000000e+00   0.0000000000000000e+00   0.0000000000000000e+00   0.0000000000000000e+00   1.1544289725553536e-01   0.0000000000000000e+00   0.0000000000000000e+00   8.9641300083845599e-01   9.7767661101958794e-02   6.9389671926594654e-01   1.1619792075969972e-01   7.4216685372147806e-01   0.0000000000000000e+00   7.8720845032693842e-01   5.0893095535000259e-02   8.7851937378584088e-01   6.5620181076673813e-03   6.8433104987247151e-01   3.4629234426239913e-04   9.2850341843385098e-01   0.0000000000000000e+00   5.6141690857798432e-01   0.0000000000000000e+00   4.2914581915561772e-01   0.0000000000000000e+00   2.3943962207729005e-01   0.0000000000000000e+00   2.6791956480063400e-01   1.0000000000000000e+00   1.0000000000000000e+00   1.0000000000000000e+00   1.0000000000000000e+00   1.0000000000000000e+00   1.0000000000000000e+00   1.0000000000000000e+00   1.0000000000000000e+00   1.0000000000000000e+00   1.0000000000000000e+00   1.0000000000000000e+00   1.0000000000000000e+00   1.0000000000000000e+00   1.0000000000000000e+00   1.0000000000000000e+00   9.4066201043066910e-01   1.0000000000000000e+00   8.9185870226638742e-01   9.7729646322240216e-01   9.1137694581951645e-01   9.4863447180911442e-01   9.6922782753182224e-01   </DataArray> 
</CellData> 
</Piece>
</UnstructuredGrid>
</VTKFile>