<?xml version="1.0"?>
<VTKFile type="UnstructuredGrid"  version="0.1"  >
<UnstructuredGrid>
<Piece  NumberOfPoints="169" NumberOfCells="285">
<Points>
<DataArray  type="Float64"  NumberOfComponents="3"  format="ascii">0.4295652173913043 0 0  0.4626086956521739 0 0  0.4626086956521739 0.03333333333333333 0  0.4956521739130435 0 0  0.4956521739130435 0.03333333333333333 0  0.528695652173913 0 0  0.528695652173913 0.03333333333333333 0  0.5617391304347825 0 0  0.5617391304347825 0.03333333333333333 0  0.5947826086956521 0 0  0.5947826086956521 0.03333333333333333 0  0.6278260869565218 0 0  0.6278260869565218 0.03333333333333333 0  0.6608695652173913 0 0  0.6608695652173913 0.03333333333333333 0  0.6939130434782609 0 0  0.6939130434782609 0.03333333333333333 0  0.7269565217391304 0 0  0.7269565217391304 0.03333333333333333 0  0.7599999999999999 0 0  0.7599999999999999 0.03333333333333333 0  0.4956521739130435 0.06666666666666667 0  0.528695652173913 0.06666666666666667 0  0.5617391304347825 0.06666666666666667 0  0.5947826086956521 0.06666666666666667 0  0.6278260869565218 0.06666666666666667 0  0.6608695652173913 0.06666666666666667 0  0.6939130434782609 0.06666666666666667 0  0.7269565217391304 0.06666666666666667 0  0.7599999999999999 0.06666666666666667 0  0.7930434782608695 0.06666666666666667 0  0.528695652173913 0.1 0  0.5617391304347825 0.1 0  0.5947826086956521 0.1 0  0.6278260869565218 0.1 0  0.6608695652173913 0.1 0  0.6939130434782609 0.1 0  0.7269565217391304 0.1 0  0.7599999999999999 0.1 0  0.7930434782608695 0.1 0  0.8260869565217391 0.1 0  0.5617391304347825 0.1333333333333333 0  0.5947826086956521 0.1333333333333333 0  0.6278260869565218 0.1333333333333333 0  0.6608695652173913 0.1333333333333333 0  0.6939130434782609 0.1333333333333333 0  0.7269565217391304 0.1333333333333333 0  0.7599999999999999 0.1333333333333333 0  0.7930434782608695 0.1333333333333333 0  0.8260869565217391 0.1333333333333333 0  0.5947826086956521 0.1666666666666667 0  0.6278260869565218 0.1666666666666667 0  0.6608695652173913 0.1666666666666667 0  0.6939130434782609 0.1666666666666667 0  0.7269565217391304 0.1666666666666667 0  0.7599999999999999 0.1666666666666667 0  0.7930434782608695 0.1666666666666667 0  0.8260869565217391 0.1666666666666667 0  0.8591304347826086 0.1666666666666667 0  0.6278260869565218 0.2 0  0.5947826086956521 0.2 0  0.6608695652173913 0.2 0  0.6939130434782609 0.2 0  0.7269565217391304 0.2 0  0.7599999999999999 0.2 0  0.7930434782608695 0.2 0  0.8260869565217391 0.2 0  0.8591304347826086 0.2 0  0.8921739130434783 0.2 0  0.6278260869565218 0.2333333333333333 0  0.5947826086956521 0.2333333333333333 0  0.6608695652173913 0.2333333333333333 0  0.6939130434782609 0.2333333333333333 0  0.7269565217391304 0.2333333333333333 0  0.7599999999999999 0.2333333333333333 0  0.7930434782608695 0.2333333333333333 0  0.8260869565217391 0.2333333333333333 0  0.8591304347826086 0.2333333333333333 0  0.8921739130434783 0.2333333333333333 0  0.9252173913043478 0.2333333333333333 0  0.6278260869565218 0.2666666666666667 0  0.6608695652173913 0.2666666666666667 0  0.6939130434782609 0.2666666666666667 0  0.7269565217391304 0.2666666666666667 0  0.7599999999999999 0.2666666666666667 0  0.7930434782608695 0.2666666666666667 0  0.8260869565217391 0.2666666666666667 0  0.8591304347826086 0.2666666666666667 0  0.8921739130434783 0.2666666666666667 0  0.9252173913043478 0.2666666666666667 0  0.9582608695652173 0.2666666666666667 0  0.6608695652173913 0.3 0  0.6939130434782609 0.3 0  0.7269565217391304 0.3 0  0.7599999999999999 0.3 0  0.7930434782608695 0.3 0  0.8260869565217391 0.3 0  0.8591304347826086 0.3 0  0.8921739130434783 0.3 0  0.9252173913043478 0.3 0  0.9582608695652173 0.3 0  0.991304347826087 0.3 0  0.6939130434782609 0.3333333333333333 0  0.7269565217391304 0.3333333333333333 0  0.7599999999999999 0.3333333333333333 0  0.7930434782608695 0.3333333333333333 0  0.8260869565217391 0.3333333333333333 0  0.8591304347826086 0.3333333333333333 0  0.8921739130434783 0.3333333333333333 0  0.9252173913043478 0.3333333333333333 0  0.9582608695652173 0.3333333333333333 0  0.991304347826087 0.3333333333333333 0  1.024347826086957 0.3333333333333333 0  0.7269565217391304 0.3666666666666666 0  0.7599999999999999 0.3666666666666666 0  0.7930434782608695 0.3666666666666666 0  0.8260869565217391 0.3666666666666666 0  0.8591304347826086 0.3666666666666666 0  0.8921739130434783 0.3666666666666666 0  0.9252173913043478 0.3666666666666666 0  0.9582608695652173 0.3666666666666666 0  0.991304347826087 0.3666666666666666 0  1.024347826086957 0.3666666666666666 0  1.057391304347826 0.3666666666666666 0  0.7599999999999999 0.4 0  0.7930434782608695 0.4 0  0.8260869565217391 0.4 0  0.8591304347826086 0.4 0  0.8921739130434783 0.4 0  0.9252173913043478 0.4 0  0.9582608695652173 0.4 0  0.991304347826087 0.4 0  1.024347826086957 0.4 0  1.057391304347826 0.4 0  1.090434782608696 0.4 0  0.7930434782608695 0.4333333333333333 0  0.8260869565217391 0.4333333333333333 0  0.8591304347826086 0.4333333333333333 0  0.8921739130434783 0.4333333333333333 0  0.9252173913043478 0.4333333333333333 0  0.9582608695652173 0.4333333333333333 0  0.991304347826087 0.4333333333333333 0  1.024347826086957 0.4333333333333333 0  1.057391304347826 0.4333333333333333 0  1.090434782608696 0.4333333333333333 0  1.123478260869565 0.4333333333333333 0  0.8260869565217391 0.4666666666666667 0  0.7930434782608695 0.4666666666666667 0  0.8591304347826086 0.4666666666666667 0  0.8921739130434783 0.4666666666666667 0  0.9252173913043478 0.4666666666666667 0  0.9582608695652173 0.4666666666666667 0  0.991304347826087 0.4666666666666667 0  1.024347826086957 0.4666666666666667 0  1.057391304347826 0.4666666666666667 0  1.090434782608696 0.4666666666666667 0  1.123478260869565 0.4666666666666667 0  0.8260869565217391 0.5 0  0.7930434782608695 0.5 0  0.8591304347826086 0.5 0  0.8921739130434783 0.5 0  0.9252173913043478 0.5 0  0.9582608695652173 0.5 0  0.991304347826087 0.5 0  1.024347826086957 0.5 0  1.057391304347826 0.5 0  1.090434782608696 0.5 0  1.123478260869565 0.5 0  1.156521739130435 0.5 0  </DataArray>
</Points>
<Cells>
<DataArray  type="UInt32"  Name="connectivity"  format="ascii">0 1 2  1 3 4  1 2 4  3 5 6  3 4 6  5 7 8  5 6 8  7 9 10  7 8 10  9 11 12  9 10 12  11 13 14  11 12 14  13 15 16  13 14 16  15 17 18  15 16 18  17 19 20  17 18 20  2 4 21  4 6 22  4 21 22  6 8 23  6 22 23  8 10 24  8 23 24  10 12 25  10 24 25  12 14 26  12 25 26  14 16 27  14 26 27  16 18 28  16 27 28  18 20 29  18 28 29  20 29 30  21 22 31  22 23 32  22 31 32  23 24 33  23 32 33  24 25 34  24 33 34  25 26 35  25 34 35  26 27 36  26 35 36  27 28 37  27 36 37  28 29 38  28 37 38  29 30 39  29 38 39  30 39 40  31 32 41  32 33 42  32 41 42  33 34 43  33 42 43  34 35 44  34 43 44  35 36 45  35 44 45  36 37 46  36 45 46  37 38 47  37 46 47  38 39 48  38 47 48  39 40 49  39 48 49  41 42 50  42 43 51  42 50 51  43 44 52  43 51 52  44 45 53  44 52 53  45 46 54  45 53 54  46 47 55  46 54 55  47 48 56  47 55 56  48 49 57  48 56 57  49 57 58  50 51 59  50 60 59  51 52 61  51 59 61  52 53 62  52 61 62  53 54 63  53 62 63  54 55 64  54 63 64  55 56 65  55 64 65  56 57 66  56 65 66  57 58 67  57 66 67  58 67 68  60 59 69  60 70 69  59 61 71  59 69 71  61 62 72  61 71 72  62 63 73  62 72 73  63 64 74  63 73 74  64 65 75  64 74 75  65 66 76  65 75 76  66 67 77  66 76 77  67 68 78  67 77 78  68 78 79  70 69 80  69 71 81  69 80 81  71 72 82  71 81 82  72 73 83  72 82 83  73 74 84  73 83 84  74 75 85  74 84 85  75 76 86  75 85 86  76 77 87  76 86 87  77 78 88  77 87 88  78 79 89  78 88 89  79 89 90  80 81 91  81 82 92  81 91 92  82 83 93  82 92 93  83 84 94  83 93 94  84 85 95  84 94 95  85 86 96  85 95 96  86 87 97  86 96 97  87 88 98  87 97 98  88 89 99  88 98 99  89 90 100  89 99 100  90 100 101  91 92 102  92 93 103  92 102 103  93 94 104  93 103 104  94 95 105  94 104 105  95 96 106  95 105 106  96 97 107  96 106 107  97 98 108  97 107 108  98 99 109  98 108 109  99 100 110  99 109 110  100 101 111  100 110 111  101 111 112  102 103 113  103 104 114  103 113 114  104 105 115  104 114 115  105 106 116  105 115 116  106 107 117  106 116 117  107 108 118  107 117 118  108 109 119  108 118 119  109 110 120  109 119 120  110 111 121  110 120 121  111 112 122  111 121 122  112 122 123  113 114 124  114 115 125  114 124 125  115 116 126  115 125 126  116 117 127  116 126 127  117 118 128  117 127 128  118 119 129  118 128 129  119 120 130  119 129 130  120 121 131  120 130 131  121 122 132  121 131 132  122 123 133  122 132 133  123 133 134  124 125 135  125 126 136  125 135 136  126 127 137  126 136 137  127 128 138  127 137 138  128 129 139  128 138 139  129 130 140  129 139 140  130 131 141  130 140 141  131 132 142  131 141 142  132 133 143  132 142 143  133 134 144  133 143 144  134 144 145  135 136 146  135 147 146  136 137 148  136 146 148  137 138 149  137 148 149  138 139 150  138 149 150  139 140 151  139 150 151  140 141 152  140 151 152  141 142 153  141 152 153  142 143 154  142 153 154  143 144 155  143 154 155  144 145 156  144 155 156  147 146 157  147 158 157  146 148 159  146 157 159  148 149 160  148 159 160  149 150 161  149 160 161  150 151 162  150 161 162  151 152 163  151 162 163  152 153 164  152 163 164  153 154 165  153 164 165  154 155 166  154 165 166  155 156 167  155 166 167  156 167 168  </DataArray>
<DataArray  type="UInt32"  Name="offsets"  format="ascii">3 6 9 12 15 18 21 24 27 30 33 36 39 42 45 48 51 54 57 60 63 66 69 72 75 78 81 84 87 90 93 96 99 102 105 108 111 114 117 120 123 126 129 132 135 138 141 144 147 150 153 156 159 162 165 168 171 174 177 180 183 186 189 192 195 198 201 204 207 210 213 216 219 222 225 228 231 234 237 240 243 246 249 252 255 258 261 264 267 270 273 276 279 282 285 288 291 294 297 300 303 306 309 312 315 318 321 324 327 330 333 336 339 342 345 348 351 354 357 360 363 366 369 372 375 378 381 384 387 390 393 396 399 402 405 408 411 414 417 420 423 426 429 432 435 438 441 444 447 450 453 456 459 462 465 468 471 474 477 480 483 486 489 492 495 498 501 504 507 510 513 516 519 522 525 528 531 534 537 540 543 546 549 552 555 558 561 564 567 570 573 576 579 582 585 588 591 594 597 600 603 606 609 612 615 618 621 624 627 630 633 636 639 642 645 648 651 654 657 660 663 666 669 672 675 678 681 684 687 690 693 696 699 702 705 708 711 714 717 720 723 726 729 732 735 738 741 744 747 750 753 756 759 762 765 768 771 774 777 780 783 786 789 792 795 798 801 804 807 810 813 816 819 822 825 828 831 834 837 840 843 846 849 852 855 </DataArray>
<DataArray  type="UInt8"  Name="types"  format="ascii">5 5 5 5 5 5 5 5 5 5 5 5 5 5 5 5 5 5 5 5 5 5 5 5 5 5 5 5 5 5 5 5 5 5 5 5 5 5 5 5 5 5 5 5 5 5 5 5 5 5 5 5 5 5 5 5 5 5 5 5 5 5 5 5 5 5 5 5 5 5 5 5 5 5 5 5 5 5 5 5 5 5 5 5 5 5 5 5 5 5 5 5 5 5 5 5 5 5 5 5 5 5 5 5 5 5 5 5 5 5 5 5 5 5 5 5 5 5 5 5 5 5 5 5 5 5 5 5 5 5 5 5 5 5 5 5 5 5 5 5 5 5 5 5 5 5 5 5 5 5 5 5 5 5 5 5 5 5 5 5 5 5 5 5 5 5 5 5 5 5 5 5 5 5 5 5 5 5 5 5 5 5 5 5 5 5 5 5 5 5 5 5 5 5 5 5 5 5 5 5 5 5 5 5 5 5 5 5 5 5 5 5 5 5 5 5 5 5 5 5 5 5 5 5 5 5 5 5 5 5 5 5 5 5 5 5 5 5 5 5 5 5 5 5 5 5 5 5 5 5 5 5 5 5 5 5 5 5 5 5 5 5 5 5 5 5 5 5 5 5 5 5 5 5 5 5 5 5 5 5 5 5 5 5 5 </DataArray>
</Cells>
<CellData  Scalars="sigma_m"> 
<DataArray  type="Float64"  Name="sigma_m"  format="ascii">1.2792745433491680e+06   1.1471064953890529e+06   5.5876118110381402e+06   3.6865842571743228e+06   4.5647484995285850e+06   6.2489200170002310e+06   4.5404425851798356e+06   7.0717258135452978e+06   5.5482213676362196e+06   7.2799202185039455e+06   6.1452267690583123e+06   7.3175160188987227e+06   7.0366760583183821e+06   7.2969001846465394e+06   7.0395394020658098e+06   7.2743840095453328e+06   7.0601842492113719e+06   7.2518138842765288e+06   7.0815295874895072e+06   4.8730524332990926e+06   3.7076252600400108e+06   2.2385496361785373e+06   5.3771591406209078e+06   3.0988971456894223e+06   5.8000963302127095e+06   3.5117754779996984e+06   5.4193915621615499e+06   3.7249403849931266e+06   5.0127117094474705e+06   2.0069277829858714e-06   5.0199208344577141e+06   0.0000000000000000e+00   5.0362973020980209e+06   0.0000000000000000e+00   5.0527900688200993e+06   0.0000000000000000e+00   0.0000000000000000e+00   3.6781228058196339e+06   3.8649256129034511e+06   1.4428860461342984e+06   1.3515564841355123e+07   5.0135336063803071e+06   0.0000000000000000e+00   0.0000000000000000e+00   0.0000000000000000e+00   0.0000000000000000e+00   0.0000000000000000e+00   0.0000000000000000e+00   0.0000000000000000e+00   0.0000000000000000e+00   0.0000000000000000e+00   0.0000000000000000e+00   0.0000000000000000e+00   0.0000000000000000e+00   0.0000000000000000e+00   4.6057246556135900e+06   8.2401065140266307e+06   3.6212964890154032e+06   0.0000000000000000e+00   2.4113182310229801e-08   0.0000000000000000e+00   0.0000000000000000e+00   0.0000000000000000e+00   0.0000000000000000e+00   0.0000000000000000e+00   0.0000000000000000e+00   0.0000000000000000e+00   0.0000000000000000e+00   0.0000000000000000e+00   0.0000000000000000e+00   0.0000000000000000e+00   0.0000000000000000e+00   3.0908547542901663e+06   1.5092318493600316e+00   3.1015240191308390e+06   0.0000000000000000e+00   0.0000000000000000e+00   0.0000000000000000e+00   0.0000000000000000e+00   0.0000000000000000e+00   0.0000000000000000e+00   0.0000000000000000e+00   0.0000000000000000e+00   0.0000000000000000e+00   0.0000000000000000e+00   0.0000000000000000e+00   0.0000000000000000e+00   0.0000000000000000e+00   2.4572254935274250e+06   2.2064840784123638e+06   1.5338403136409637e+00   1.4822978486027520e+06   0.0000000000000000e+00   0.0000000000000000e+00   0.0000000000000000e+00   0.0000000000000000e+00   0.0000000000000000e+00   0.0000000000000000e+00   0.0000000000000000e+00   0.0000000000000000e+00   0.0000000000000000e+00   0.0000000000000000e+00   0.0000000000000000e+00   0.0000000000000000e+00   0.0000000000000000e+00   5.0840098966493830e+06   4.1655172603941602e+06   2.4715531347238929e+06   2.3511883838462089e+06   7.9593776430251647e+05   1.5497303224258123e+06   0.0000000000000000e+00   3.2050144009985002e+03   0.0000000000000000e+00   0.0000000000000000e+00   0.0000000000000000e+00   0.0000000000000000e+00   0.0000000000000000e+00   0.0000000000000000e+00   0.0000000000000000e+00   0.0000000000000000e+00   0.0000000000000000e+00   0.0000000000000000e+00   0.0000000000000000e+00   3.4401823352203230e-04   3.4916037169526871e+06   6.5253206102784688e+05   2.8582799507949497e+06   3.0564896748810657e+06   2.3822955442975210e+06   2.8579790550333718e+06   0.0000000000000000e+00   2.5056395352894715e+06   0.0000000000000000e+00   0.0000000000000000e+00   0.0000000000000000e+00   0.0000000000000000e+00   0.0000000000000000e+00   0.0000000000000000e+00   0.0000000000000000e+00   0.0000000000000000e+00   0.0000000000000000e+00   0.0000000000000000e+00   0.0000000000000000e+00   0.0000000000000000e+00   3.4199929376423764e+06   0.0000000000000000e+00   3.1608603459517248e+06   2.7390562598623610e+06   2.9324912742056334e+06   2.8764836495293709e+06   6.2890409137164524e-03   3.9485530600192556e+06   0.0000000000000000e+00   0.0000000000000000e+00   0.0000000000000000e+00   0.0000000000000000e+00   0.0000000000000000e+00   0.0000000000000000e+00   0.0000000000000000e+00   0.0000000000000000e+00   0.0000000000000000e+00   0.0000000000000000e+00   0.0000000000000000e+00   0.0000000000000000e+00   1.3307693837423583e+06   0.0000000000000000e+00   1.7024350061712072e+06   1.4632861740099080e+06   3.3745740370179866e+06   4.1072961573001333e+06   5.7310094024015080e-05   6.9506580301670330e+06   0.0000000000000000e+00   0.0000000000000000e+00   0.0000000000000000e+00   0.0000000000000000e+00   0.0000000000000000e+00   0.0000000000000000e+00   0.0000000000000000e+00   0.0000000000000000e+00   0.0000000000000000e+00   0.0000000000000000e+00   0.0000000000000000e+00   0.0000000000000000e+00   2.7969473043093821e+06   0.0000000000000000e+00   1.3837781844891277e+06   2.7358021019550166e+06   6.3968078234676272e+06   6.8284403440294620e+06   0.0000000000000000e+00   6.4395917783952728e+06   0.0000000000000000e+00   0.0000000000000000e+00   0.0000000000000000e+00   0.0000000000000000e+00   0.0000000000000000e+00   0.0000000000000000e+00   0.0000000000000000e+00   0.0000000000000000e+00   0.0000000000000000e+00   0.0000000000000000e+00   0.0000000000000000e+00   0.0000000000000000e+00   3.1895150294423993e+06   8.7080753299574498e+06   3.1247452793569020e+06   4.1668972666757437e+06   5.0214218544272771e+06   8.3186314225866618e+06   0.0000000000000000e+00   0.0000000000000000e+00   0.0000000000000000e+00   0.0000000000000000e+00   0.0000000000000000e+00   0.0000000000000000e+00   0.0000000000000000e+00   0.0000000000000000e+00   0.0000000000000000e+00   0.0000000000000000e+00   0.0000000000000000e+00   0.0000000000000000e+00   0.0000000000000000e+00   2.8930550241088010e+06   2.1216357592159053e+06   2.6655603708066251e+06   3.4766164271222986e+06   3.8177405656795949e+06   6.8415008651909485e-04   1.0194893793819813e+07   0.0000000000000000e+00   0.0000000000000000e+00   0.0000000000000000e+00   0.0000000000000000e+00   0.0000000000000000e+00   0.0000000000000000e+00   0.0000000000000000e+00   0.0000000000000000e+00   0.0000000000000000e+00   0.0000000000000000e+00   0.0000000000000000e+00   0.0000000000000000e+00   0.0000000000000000e+00   3.9508935088272705e+06   5.2025519917073976e+06   4.0010493356651999e+06   5.0647262964649899e+06   2.9115216257418250e+06   5.4628953886254057e+06   1.0668118712897439e+07   7.1227486178801004e+06   1.1224406785338683e+07   7.1429905068091564e+06   8.7873865760157965e+00   4.4069025560474973e+06   6.9162600908283117e-08   3.2620645346760447e+06   0.0000000000000000e+00   4.1775560336211240e+06   0.0000000000000000e+00   5.3385591520934366e+06   6.2301755903557335e-10   6.5029765389620550e+06   7.1269098960549729e+06   9.0597305601600315e+06   7.6533741454350417e+06   1.1360659467255114e+07   7.1281365175811034e+06   1.3486537257061945e+07   6.2042827367190197e+06   1.4725870150774494e+07   3.9186310661322391e+06   1.5186983727373421e+07   3.4780892639647196e+06   1.3818291198351871e+07   4.1304448752929722e+06   1.2322883582691628e+07   5.9351431408137921e+06   1.0337336472112093e+07   7.6560911332146041e+06   8.4738506258360762e+06   9.4634293695393875e+06   6.6491407244892698e+06   4.9447169944768241e+06   </DataArray> 
</CellData> 
</Piece>
</UnstructuredGrid>
</VTKFile>