<?xml version="1.0"?>
<VTKFile type="UnstructuredGrid"  version="0.1"  >
<UnstructuredGrid>
<Piece  NumberOfPoints="172" NumberOfCells="289">
<Points>
<DataArray  type="Float64"  NumberOfComponents="3"  format="ascii">1.486956521739131 0.1666666666666667 0  1.52 0.1666666666666667 0  1.52 0.2 0  1.486956521739131 0.2 0  1.55304347826087 0.2 0  1.255652173913044 0.2 0  1.288695652173913 0.2 0  1.288695652173913 0.2333333333333333 0  1.255652173913044 0.2333333333333333 0  1.321739130434783 0.2 0  1.321739130434783 0.2333333333333333 0  1.354782608695652 0.2 0  1.354782608695652 0.2333333333333333 0  1.387826086956522 0.2 0  1.387826086956522 0.2333333333333333 0  1.420869565217391 0.2 0  1.420869565217391 0.2333333333333333 0  1.453913043478261 0.2 0  1.453913043478261 0.2333333333333333 0  1.486956521739131 0.2333333333333333 0  1.52 0.2333333333333333 0  1.55304347826087 0.2333333333333333 0  1.586086956521739 0.2333333333333333 0  1.189565217391304 0.2333333333333333 0  1.222608695652174 0.2333333333333333 0  1.222608695652174 0.2666666666666667 0  1.189565217391304 0.2666666666666667 0  1.255652173913044 0.2666666666666667 0  1.288695652173913 0.2666666666666667 0  1.321739130434783 0.2666666666666667 0  1.354782608695652 0.2666666666666667 0  1.387826086956522 0.2666666666666667 0  1.420869565217391 0.2666666666666667 0  1.453913043478261 0.2666666666666667 0  1.486956521739131 0.2666666666666667 0  1.52 0.2666666666666667 0  1.55304347826087 0.2666666666666667 0  1.586086956521739 0.2666666666666667 0  1.619130434782609 0.2666666666666667 0  1.156521739130435 0.2666666666666667 0  1.189565217391304 0.3 0  1.156521739130435 0.3 0  1.222608695652174 0.3 0  1.255652173913044 0.3 0  1.288695652173913 0.3 0  1.321739130434783 0.3 0  1.354782608695652 0.3 0  1.387826086956522 0.3 0  1.420869565217391 0.3 0  1.453913043478261 0.3 0  1.486956521739131 0.3 0  1.52 0.3 0  1.55304347826087 0.3 0  1.586086956521739 0.3 0  1.619130434782609 0.3 0  1.024347826086957 0.3 0  1.057391304347826 0.3 0  1.057391304347826 0.3333333333333333 0  1.024347826086957 0.3333333333333333 0  1.090434782608696 0.3 0  1.090434782608696 0.3333333333333333 0  1.123478260869565 0.3 0  1.123478260869565 0.3333333333333333 0  1.156521739130435 0.3333333333333333 0  1.189565217391304 0.3333333333333333 0  1.222608695652174 0.3333333333333333 0  1.255652173913044 0.3333333333333333 0  1.288695652173913 0.3333333333333333 0  1.321739130434783 0.3333333333333333 0  1.354782608695652 0.3333333333333333 0  1.387826086956522 0.3333333333333333 0  1.420869565217391 0.3333333333333333 0  1.453913043478261 0.3333333333333333 0  1.486956521739131 0.3333333333333333 0  1.52 0.3333333333333333 0  1.55304347826087 0.3333333333333333 0  1.586086956521739 0.3333333333333333 0  1.619130434782609 0.3333333333333333 0  1.652173913043478 0.3333333333333333 0  1.057391304347826 0.3666666666666666 0  1.090434782608696 0.3666666666666666 0  1.123478260869565 0.3666666666666666 0  1.156521739130435 0.3666666666666666 0  1.189565217391304 0.3666666666666666 0  1.222608695652174 0.3666666666666666 0  1.255652173913044 0.3666666666666666 0  1.288695652173913 0.3666666666666666 0  1.321739130434783 0.3666666666666666 0  1.354782608695652 0.3666666666666666 0  1.387826086956522 0.3666666666666666 0  1.420869565217391 0.3666666666666666 0  1.453913043478261 0.3666666666666666 0  1.486956521739131 0.3666666666666666 0  1.52 0.3666666666666666 0  1.55304347826087 0.3666666666666666 0  1.586086956521739 0.3666666666666666 0  1.619130434782609 0.3666666666666666 0  1.652173913043478 0.3666666666666666 0  1.090434782608696 0.4 0  1.123478260869565 0.4 0  1.156521739130435 0.4 0  1.189565217391304 0.4 0  1.222608695652174 0.4 0  1.255652173913044 0.4 0  1.288695652173913 0.4 0  1.321739130434783 0.4 0  1.354782608695652 0.4 0  1.387826086956522 0.4 0  1.420869565217391 0.4 0  1.453913043478261 0.4 0  1.486956521739131 0.4 0  1.52 0.4 0  1.55304347826087 0.4 0  1.586086956521739 0.4 0  1.619130434782609 0.4 0  1.652173913043478 0.4 0  1.123478260869565 0.4333333333333333 0  1.156521739130435 0.4333333333333333 0  1.189565217391304 0.4333333333333333 0  1.222608695652174 0.4333333333333333 0  1.255652173913044 0.4333333333333333 0  1.288695652173913 0.4333333333333333 0  1.321739130434783 0.4333333333333333 0  1.354782608695652 0.4333333333333333 0  1.387826086956522 0.4333333333333333 0  1.420869565217391 0.4333333333333333 0  1.453913043478261 0.4333333333333333 0  1.486956521739131 0.4333333333333333 0  1.52 0.4333333333333333 0  1.55304347826087 0.4333333333333333 0  1.586086956521739 0.4333333333333333 0  1.619130434782609 0.4333333333333333 0  1.652173913043478 0.4333333333333333 0  1.685217391304348 0.4333333333333333 0  1.156521739130435 0.4666666666666667 0  1.123478260869565 0.4666666666666667 0  1.189565217391304 0.4666666666666667 0  1.222608695652174 0.4666666666666667 0  1.255652173913044 0.4666666666666667 0  1.288695652173913 0.4666666666666667 0  1.321739130434783 0.4666666666666667 0  1.354782608695652 0.4666666666666667 0  1.387826086956522 0.4666666666666667 0  1.420869565217391 0.4666666666666667 0  1.453913043478261 0.4666666666666667 0  1.486956521739131 0.4666666666666667 0  1.52 0.4666666666666667 0  1.55304347826087 0.4666666666666667 0  1.586086956521739 0.4666666666666667 0  1.619130434782609 0.4666666666666667 0  1.652173913043478 0.4666666666666667 0  1.685217391304348 0.4666666666666667 0  1.718260869565217 0.4666666666666667 0  1.156521739130435 0.5 0  1.189565217391304 0.5 0  1.222608695652174 0.5 0  1.255652173913044 0.5 0  1.288695652173913 0.5 0  1.321739130434783 0.5 0  1.354782608695652 0.5 0  1.387826086956522 0.5 0  1.420869565217391 0.5 0  1.453913043478261 0.5 0  1.486956521739131 0.5 0  1.52 0.5 0  1.55304347826087 0.5 0  1.586086956521739 0.5 0  1.619130434782609 0.5 0  1.652173913043478 0.5 0  1.685217391304348 0.5 0  1.718260869565217 0.5 0  1.751304347826087 0.5 0  </DataArray>
</Points>
<Cells>
<DataArray  type="UInt32"  Name="connectivity"  format="ascii">0 1 2  0 3 2  1 2 4  5 6 7  5 8 7  6 9 10  6 7 10  9 11 12  9 10 12  11 13 14  11 12 14  13 15 16  13 14 16  15 17 18  15 16 18  17 3 19  17 18 19  3 2 20  3 19 20  2 4 21  2 20 21  4 21 22  23 24 25  23 26 25  24 8 27  24 25 27  8 7 28  8 27 28  7 10 29  7 28 29  10 12 30  10 29 30  12 14 31  12 30 31  14 16 32  14 31 32  16 18 33  16 32 33  18 19 34  18 33 34  19 20 35  19 34 35  20 21 36  20 35 36  21 22 37  21 36 37  22 37 38  39 26 40  39 41 40  26 25 42  26 40 42  25 27 43  25 42 43  27 28 44  27 43 44  28 29 45  28 44 45  29 30 46  29 45 46  30 31 47  30 46 47  31 32 48  31 47 48  32 33 49  32 48 49  33 34 50  33 49 50  34 35 51  34 50 51  35 36 52  35 51 52  36 37 53  36 52 53  37 38 54  37 53 54  55 56 57  55 58 57  56 59 60  56 57 60  59 61 62  59 60 62  61 41 63  61 62 63  41 40 64  41 63 64  40 42 65  40 64 65  42 43 66  42 65 66  43 44 67  43 66 67  44 45 68  44 67 68  45 46 69  45 68 69  46 47 70  46 69 70  47 48 71  47 70 71  48 49 72  48 71 72  49 50 73  49 72 73  50 51 74  50 73 74  51 52 75  51 74 75  52 53 76  52 75 76  53 54 77  53 76 77  54 77 78  58 57 79  57 60 80  57 79 80  60 62 81  60 80 81  62 63 82  62 81 82  63 64 83  63 82 83  64 65 84  64 83 84  65 66 85  65 84 85  66 67 86  66 85 86  67 68 87  67 86 87  68 69 88  68 87 88  69 70 89  69 88 89  70 71 90  70 89 90  71 72 91  71 90 91  72 73 92  72 91 92  73 74 93  73 92 93  74 75 94  74 93 94  75 76 95  75 94 95  76 77 96  76 95 96  77 78 97  77 96 97  79 80 98  80 81 99  80 98 99  81 82 100  81 99 100  82 83 101  82 100 101  83 84 102  83 101 102  84 85 103  84 102 103  85 86 104  85 103 104  86 87 105  86 104 105  87 88 106  87 105 106  88 89 107  88 106 107  89 90 108  89 107 108  90 91 109  90 108 109  91 92 110  91 109 110  92 93 111  92 110 111  93 94 112  93 111 112  94 95 113  94 112 113  95 96 114  95 113 114  96 97 115  96 114 115  98 99 116  99 100 117  99 116 117  100 101 118  100 117 118  101 102 119  101 118 119  102 103 120  102 119 120  103 104 121  103 120 121  104 105 122  104 121 122  105 106 123  105 122 123  106 107 124  106 123 124  107 108 125  107 124 125  108 109 126  108 125 126  109 110 127  109 126 127  110 111 128  110 127 128  111 112 129  111 128 129  112 113 130  112 129 130  113 114 131  113 130 131  114 115 132  114 131 132  115 132 133  116 117 134  116 135 134  117 118 136  117 134 136  118 119 137  118 136 137  119 120 138  119 137 138  120 121 139  120 138 139  121 122 140  121 139 140  122 123 141  122 140 141  123 124 142  123 141 142  124 125 143  124 142 143  125 126 144  125 143 144  126 127 145  126 144 145  127 128 146  127 145 146  128 129 147  128 146 147  129 130 148  129 147 148  130 131 149  130 148 149  131 132 150  131 149 150  132 133 151  132 150 151  133 151 152  135 134 153  134 136 154  134 153 154  136 137 155  136 154 155  137 138 156  137 155 156  138 139 157  138 156 157  139 140 158  139 157 158  140 141 159  140 158 159  141 142 160  141 159 160  142 143 161  142 160 161  143 144 162  143 161 162  144 145 163  144 162 163  145 146 164  145 163 164  146 147 165  146 164 165  147 148 166  147 165 166  148 149 167  148 166 167  149 150 168  149 167 168  150 151 169  150 168 169  151 152 170  151 169 170  152 170 171  </DataArray>
<DataArray  type="UInt32"  Name="offsets"  format="ascii">3 6 9 12 15 18 21 24 27 30 33 36 39 42 45 48 51 54 57 60 63 66 69 72 75 78 81 84 87 90 93 96 99 102 105 108 111 114 117 120 123 126 129 132 135 138 141 144 147 150 153 156 159 162 165 168 171 174 177 180 183 186 189 192 195 198 201 204 207 210 213 216 219 222 225 228 231 234 237 240 243 246 249 252 255 258 261 264 267 270 273 276 279 282 285 288 291 294 297 300 303 306 309 312 315 318 321 324 327 330 333 336 339 342 345 348 351 354 357 360 363 366 369 372 375 378 381 384 387 390 393 396 399 402 405 408 411 414 417 420 423 426 429 432 435 438 441 444 447 450 453 456 459 462 465 468 471 474 477 480 483 486 489 492 495 498 501 504 507 510 513 516 519 522 525 528 531 534 537 540 543 546 549 552 555 558 561 564 567 570 573 576 579 582 585 588 591 594 597 600 603 606 609 612 615 618 621 624 627 630 633 636 639 642 645 648 651 654 657 660 663 666 669 672 675 678 681 684 687 690 693 696 699 702 705 708 711 714 717 720 723 726 729 732 735 738 741 744 747 750 753 756 759 762 765 768 771 774 777 780 783 786 789 792 795 798 801 804 807 810 813 816 819 822 825 828 831 834 837 840 843 846 849 852 855 858 861 864 867 </DataArray>
<DataArray  type="UInt8"  Name="types"  format="ascii">5 5 5 5 5 5 5 5 5 5 5 5 5 5 5 5 5 5 5 5 5 5 5 5 5 5 5 5 5 5 5 5 5 5 5 5 5 5 5 5 5 5 5 5 5 5 5 5 5 5 5 5 5 5 5 5 5 5 5 5 5 5 5 5 5 5 5 5 5 5 5 5 5 5 5 5 5 5 5 5 5 5 5 5 5 5 5 5 5 5 5 5 5 5 5 5 5 5 5 5 5 5 5 5 5 5 5 5 5 5 5 5 5 5 5 5 5 5 5 5 5 5 5 5 5 5 5 5 5 5 5 5 5 5 5 5 5 5 5 5 5 5 5 5 5 5 5 5 5 5 5 5 5 5 5 5 5 5 5 5 5 5 5 5 5 5 5 5 5 5 5 5 5 5 5 5 5 5 5 5 5 5 5 5 5 5 5 5 5 5 5 5 5 5 5 5 5 5 5 5 5 5 5 5 5 5 5 5 5 5 5 5 5 5 5 5 5 5 5 5 5 5 5 5 5 5 5 5 5 5 5 5 5 5 5 5 5 5 5 5 5 5 5 5 5 5 5 5 5 5 5 5 5 5 5 5 5 5 5 5 5 5 5 5 5 5 5 5 5 5 5 5 5 5 5 5 5 5 5 5 5 5 5 5 5 5 5 5 5 </DataArray>
</Cells>
<CellData  Scalars="rho"> 
<DataArray  type="Float64"  Name="rho"  format="ascii">8.3441948858231296e-01   7.9620616969396685e-01   8.9591314181754622e-01   0.0000000000000000e+00   0.0000000000000000e+00   9.0980276745814025e-04   2.2704406029066781e-04   3.0698504093062645e-03   3.0050392547036858e-03   1.5568082295600671e-01   1.9591798408978325e-01   5.0810479358197003e-01   4.9890535879633996e-01   6.6319840461882174e-01   7.6861228323022723e-01   8.5005282243032376e-01   9.2189910921839957e-01   7.1756530327748347e-01   7.6146897267036895e-01   5.9299529878645330e-01   6.1868561238768360e-01   3.1856125658633289e-01   2.6981391961930050e-05   5.4097214547794975e-06   0.0000000000000000e+00   0.0000000000000000e+00   0.0000000000000000e+00   0.0000000000000000e+00   0.0000000000000000e+00   0.0000000000000000e+00   1.3847783219900133e-02   1.1174088113516089e-02   5.8367301211874134e-01   6.0205783591866668e-01   7.9500605024384852e-01   8.8142937677797395e-01   9.8896367939817387e-01   9.9514874541877885e-01   8.7522524192629303e-01   8.5918949485396334e-01   5.9327396730901027e-01   5.9205160465347628e-01   3.0162644947536960e-01   3.5468075008422062e-01   0.0000000000000000e+00   0.0000000000000000e+00   0.0000000000000000e+00   4.1826756656886523e-05   3.7488447342407702e-05   2.8221401435611973e-04   3.6812110998241831e-04   0.0000000000000000e+00   8.8108470144777787e-04   0.0000000000000000e+00   0.0000000000000000e+00   4.3930205704943638e-02   2.1389127569950725e-01   5.7410974455113106e-01   6.2331762153941839e-01   7.3400780131986376e-01   7.6450921415171003e-01   9.9999718575585339e-01   8.3703598596296436e-01   8.3658092562729092e-01   7.2320868260376447e-01   5.8061098658638721e-01   5.9548034834762242e-01   3.7840102230564027e-01   3.0198204461510730e-01   1.1186047169136112e-03   1.8785876478595097e-03   0.0000000000000000e+00   2.0587948960736866e-04   0.0000000000000000e+00   0.0000000000000000e+00   6.0732275562579524e-05   8.9581846669011276e-05   2.5242979055982059e-05   4.6735610400987370e-05   3.7382858764387693e-07   6.0517898411488967e-06   3.8966983812118339e-05   5.9748972955194986e-05   1.7539362206347062e-04   1.6274977443296463e-04   2.5735334873035992e-03   2.3944486291386509e-03   8.5048773780778061e-03   1.2286414058808095e-02   3.1549157083283763e-01   2.0381584360624841e-01   7.6494538960976644e-01   8.8657082971815637e-01   9.9273755000293651e-01   9.9718522798574805e-01   8.2726344800477836e-01   9.9976698565745858e-01   6.2990503593713809e-01   6.4081260798197981e-01   4.8897320623819557e-01   3.5256018790902166e-01   1.1849638129673131e-02   1.2067890292727023e-02   1.7125227799254187e-03   2.1395431330557117e-03   8.4691814053393128e-04   9.9373517333611319e-04   6.8599014666529667e-05   2.4075632655207126e-04   0.0000000000000000e+00   0.0000000000000000e+00   0.0000000000000000e+00   1.2902042519629620e-04   4.7019541158337182e-05   9.8448644654197052e-05   0.0000000000000000e+00   0.0000000000000000e+00   0.0000000000000000e+00   4.2267430755157110e-05   3.7692047450711366e-04   3.0105453073278837e-04   5.5680631412806728e-03   2.7695806798529554e-03   1.1396313155491659e-01   4.1819862264147398e-02   5.3909994130297711e-01   3.9558624968824552e-01   9.9985836185310040e-01   9.9993190774691232e-01   9.9962113693056553e-01   9.9989585321831786e-01   6.8638953633193966e-01   6.9730032562526245e-01   2.7065465364723756e-01   1.2465523668795768e-01   9.2048190842842145e-03   6.5368442826804598e-03   3.3341203062798126e-03   3.4504237256736672e-03   3.3380613256970345e-04   3.2633935168879856e-04   1.6725974673506168e-04   1.7300421220969029e-04   0.0000000000000000e+00   0.0000000000000000e+00   0.0000000000000000e+00   0.0000000000000000e+00   0.0000000000000000e+00   0.0000000000000000e+00   9.8094242413155060e-05   0.0000000000000000e+00   0.0000000000000000e+00   0.0000000000000000e+00   3.0318809563501739e-05   2.5459810533800132e-04   3.3116763729208353e-05   2.6426099404987936e-03   7.5773236202630119e-04   1.2803349780031692e-01   2.9341701956851565e-02   8.6366861470317680e-01   3.5599910867324763e-01   9.9994391521470760e-01   9.9998081122583971e-01   6.0566114002167970e-01   5.9027832043809414e-01   2.5200639651059731e-01   3.0970854424195449e-01   6.2286795352697421e-04   2.0772100063591410e-03   7.0141270927148952e-04   5.3908266371722070e-04   3.2836148755538614e-04   3.1873269872595119e-04   3.5716972123683291e-05   0.0000000000000000e+00   0.0000000000000000e+00   0.0000000000000000e+00   0.0000000000000000e+00   0.0000000000000000e+00   0.0000000000000000e+00   0.0000000000000000e+00   0.0000000000000000e+00   0.0000000000000000e+00   0.0000000000000000e+00   0.0000000000000000e+00   0.0000000000000000e+00   0.0000000000000000e+00   0.0000000000000000e+00   0.0000000000000000e+00   0.0000000000000000e+00   3.4480402732758916e-02   1.0878950457455948e-03   3.1571548137308308e-01   9.8860318119787002e-02   4.6281647259700398e-01   4.1359080752273086e-01   3.1566415330741909e-01   3.0342380435241212e-01   5.0708595283594234e-02   6.5675355280463713e-02   7.7841345797447989e-04   9.7546682417615172e-04   3.7404300710408382e-04   1.3524446017596108e-04   0.0000000000000000e+00   0.0000000000000000e+00   0.0000000000000000e+00   0.0000000000000000e+00   0.0000000000000000e+00   0.0000000000000000e+00   0.0000000000000000e+00   0.0000000000000000e+00   0.0000000000000000e+00   0.0000000000000000e+00   0.0000000000000000e+00   0.0000000000000000e+00   0.0000000000000000e+00   0.0000000000000000e+00   7.9065348748332642e-01   0.0000000000000000e+00   7.7624267430638760e-01   1.2989496366464223e-01   7.2887174171337710e-01   2.2031342574853904e-01   7.2790772012732674e-01   7.2060902734631638e-01   9.3402248380569930e-01   6.3758876817478582e-01   9.7283102563018420e-01   3.2849915957049969e-01   7.0240190103597189e-01   5.2270062697303927e-03   4.8970573495554143e-01   8.0378708641980405e-05   3.6721760138656678e-01   0.0000000000000000e+00   5.5887309475534630e-01   0.0000000000000000e+00   6.9065398123429256e-01   0.0000000000000000e+00   8.2048108706645262e-01   0.0000000000000000e+00   8.0365270733183392e-01   0.0000000000000000e+00   7.5589030738747964e-01   0.0000000000000000e+00   7.5675163686133895e-01   0.0000000000000000e+00   7.9953188148274679e-01   0.0000000000000000e+00   7.7449191675776485e-01   7.6830172129586671e-01   8.6882162296598286e-01   8.4802031950109336e-01   8.6847479034644159e-01   8.8652831948089961e-01   8.9989775219593593e-01   7.6913819261234229e-01   9.1112169122423736e-01   8.9027771671280020e-01   8.2822657786536336e-01   7.4360685191437537e-01   7.6165256002115345e-01   5.1651587772340612e-01   4.7643038534129162e-01   6.4948349733770905e-01   6.5899679464157102e-01   8.4597452551862184e-01   8.4947738506700510e-01   9.2058328180349247e-01   9.3202878083231289e-01   9.1551097873084342e-01   9.3027709487776622e-01   9.1772774192694651e-01   9.3780000454996337e-01   9.1058047758873306e-01   9.3434812444589310e-01   9.0230027202441276e-01   9.2405311320369665e-01   8.9627129290117658e-01   9.1686960839532528e-01   8.9308957979017944e-01   9.1805891566825815e-01   8.9302120455374900e-01   9.1703485613947056e-01   8.9681729618959438e-01   9.1828766369249815e-01   9.2005732382461480e-01   </DataArray> 
</CellData> 
</Piece>
</UnstructuredGrid>
</VTKFile>