<?xml version="1.0"?>
<VTKFile type="UnstructuredGrid"  version="0.1"  >
<UnstructuredGrid>
<Piece  NumberOfPoints="169" NumberOfCells="286">
<Points>
<DataArray  type="Float64"  NumberOfComponents="3"  format="ascii">2.775652173913044 0 0  2.808695652173913 0 0  2.808695652173913 0.03333333333333333 0  2.841739130434783 0 0  2.841739130434783 0.03333333333333333 0  2.874782608695652 0 0  2.874782608695652 0.03333333333333333 0  2.907826086956522 0 0  2.907826086956522 0.03333333333333333 0  2.940869565217391 0 0  2.940869565217391 0.03333333333333333 0  2.973913043478261 0 0  2.973913043478261 0.03333333333333333 0  2.841739130434783 0.06666666666666667 0  2.874782608695652 0.06666666666666667 0  2.907826086956522 0.06666666666666667 0  2.940869565217391 0.06666666666666667 0  2.973913043478261 0.06666666666666667 0  3.006956521739131 0.06666666666666667 0  2.874782608695652 0.1 0  2.841739130434783 0.1 0  2.907826086956522 0.1 0  2.940869565217391 0.1 0  2.973913043478261 0.1 0  3.006956521739131 0.1 0  3.04 0.1 0  2.874782608695652 0.1333333333333333 0  2.841739130434783 0.1333333333333333 0  2.907826086956522 0.1333333333333333 0  2.940869565217391 0.1333333333333333 0  2.973913043478261 0.1333333333333333 0  3.006956521739131 0.1333333333333333 0  3.04 0.1333333333333333 0  3.073043478260869 0.1333333333333333 0  2.874782608695652 0.1666666666666667 0  2.841739130434783 0.1666666666666667 0  2.907826086956522 0.1666666666666667 0  2.940869565217391 0.1666666666666667 0  2.973913043478261 0.1666666666666667 0  3.006956521739131 0.1666666666666667 0  3.04 0.1666666666666667 0  3.073043478260869 0.1666666666666667 0  3.106086956521739 0.1666666666666667 0  2.874782608695652 0.2 0  2.841739130434783 0.2 0  2.907826086956522 0.2 0  2.940869565217391 0.2 0  2.973913043478261 0.2 0  3.006956521739131 0.2 0  3.04 0.2 0  3.073043478260869 0.2 0  3.106086956521739 0.2 0  3.139130434782609 0.2 0  2.874782608695652 0.2333333333333333 0  2.907826086956522 0.2333333333333333 0  2.940869565217391 0.2333333333333333 0  2.973913043478261 0.2333333333333333 0  3.006956521739131 0.2333333333333333 0  3.04 0.2333333333333333 0  3.073043478260869 0.2333333333333333 0  3.106086956521739 0.2333333333333333 0  3.139130434782609 0.2333333333333333 0  3.172173913043478 0.2333333333333333 0  2.907826086956522 0.2666666666666667 0  2.874782608695652 0.2666666666666667 0  2.940869565217391 0.2666666666666667 0  2.973913043478261 0.2666666666666667 0  3.006956521739131 0.2666666666666667 0  3.04 0.2666666666666667 0  3.073043478260869 0.2666666666666667 0  3.106086956521739 0.2666666666666667 0  3.139130434782609 0.2666666666666667 0  3.172173913043478 0.2666666666666667 0  3.205217391304347 0.2666666666666667 0  2.907826086956522 0.3 0  2.874782608695652 0.3 0  2.940869565217391 0.3 0  2.973913043478261 0.3 0  3.006956521739131 0.3 0  3.04 0.3 0  3.073043478260869 0.3 0  3.106086956521739 0.3 0  3.139130434782609 0.3 0  3.172173913043478 0.3 0  3.205217391304347 0.3 0  3.238260869565217 0.3 0  2.907826086956522 0.3333333333333333 0  2.874782608695652 0.3333333333333333 0  2.940869565217391 0.3333333333333333 0  2.973913043478261 0.3333333333333333 0  3.006956521739131 0.3333333333333333 0  3.04 0.3333333333333333 0  3.073043478260869 0.3333333333333333 0  3.106086956521739 0.3333333333333333 0  3.139130434782609 0.3333333333333333 0  3.172173913043478 0.3333333333333333 0  3.205217391304347 0.3333333333333333 0  3.238260869565217 0.3333333333333333 0  3.271304347826087 0.3333333333333333 0  2.907826086956522 0.3666666666666666 0  2.874782608695652 0.3666666666666666 0  2.940869565217391 0.3666666666666666 0  2.973913043478261 0.3666666666666666 0  3.006956521739131 0.3666666666666666 0  3.04 0.3666666666666666 0  3.073043478260869 0.3666666666666666 0  3.106086956521739 0.3666666666666666 0  3.139130434782609 0.3666666666666666 0  3.172173913043478 0.3666666666666666 0  3.205217391304347 0.3666666666666666 0  3.238260869565217 0.3666666666666666 0  3.271304347826087 0.3666666666666666 0  2.907826086956522 0.4 0  2.874782608695652 0.4 0  2.940869565217391 0.4 0  2.973913043478261 0.4 0  3.006956521739131 0.4 0  3.04 0.4 0  3.073043478260869 0.4 0  3.106086956521739 0.4 0  3.139130434782609 0.4 0  3.172173913043478 0.4 0  3.205217391304347 0.4 0  3.238260869565217 0.4 0  3.271304347826087 0.4 0  3.304347826086957 0.4 0  2.907826086956522 0.4333333333333333 0  2.874782608695652 0.4333333333333333 0  2.940869565217391 0.4333333333333333 0  2.973913043478261 0.4333333333333333 0  3.006956521739131 0.4333333333333333 0  3.04 0.4333333333333333 0  3.073043478260869 0.4333333333333333 0  3.106086956521739 0.4333333333333333 0  3.139130434782609 0.4333333333333333 0  3.172173913043478 0.4333333333333333 0  3.205217391304347 0.4333333333333333 0  3.238260869565217 0.4333333333333333 0  3.271304347826087 0.4333333333333333 0  3.304347826086957 0.4333333333333333 0  2.907826086956522 0.4666666666666667 0  2.874782608695652 0.4666666666666667 0  2.940869565217391 0.4666666666666667 0  2.973913043478261 0.4666666666666667 0  3.006956521739131 0.4666666666666667 0  3.04 0.4666666666666667 0  3.073043478260869 0.4666666666666667 0  3.106086956521739 0.4666666666666667 0  3.139130434782609 0.4666666666666667 0  3.172173913043478 0.4666666666666667 0  3.205217391304347 0.4666666666666667 0  3.238260869565217 0.4666666666666667 0  3.271304347826087 0.4666666666666667 0  3.304347826086957 0.4666666666666667 0  2.907826086956522 0.5 0  2.874782608695652 0.5 0  2.940869565217391 0.5 0  2.973913043478261 0.5 0  3.006956521739131 0.5 0  3.04 0.5 0  3.073043478260869 0.5 0  3.106086956521739 0.5 0  3.139130434782609 0.5 0  3.172173913043478 0.5 0  3.205217391304347 0.5 0  3.238260869565217 0.5 0  3.271304347826087 0.5 0  3.304347826086957 0.5 0  3.337391304347826 0.5 0  </DataArray>
</Points>
<Cells>
<DataArray  type="UInt32"  Name="connectivity"  format="ascii">0 1 2  1 3 4  1 2 4  3 5 6  3 4 6  5 7 8  5 6 8  7 9 10  7 8 10  9 11 12  9 10 12  2 4 13  4 6 14  4 13 14  6 8 15  6 14 15  8 10 16  8 15 16  10 12 17  10 16 17  12 17 18  13 14 19  13 20 19  14 15 21  14 19 21  15 16 22  15 21 22  16 17 23  16 22 23  17 18 24  17 23 24  18 24 25  20 19 26  20 27 26  19 21 28  19 26 28  21 22 29  21 28 29  22 23 30  22 29 30  23 24 31  23 30 31  24 25 32  24 31 32  25 32 33  27 26 34  27 35 34  26 28 36  26 34 36  28 29 37  28 36 37  29 30 38  29 37 38  30 31 39  30 38 39  31 32 40  31 39 40  32 33 41  32 40 41  33 41 42  35 34 43  35 44 43  34 36 45  34 43 45  36 37 46  36 45 46  37 38 47  37 46 47  38 39 48  38 47 48  39 40 49  39 48 49  40 41 50  40 49 50  41 42 51  41 50 51  42 51 52  44 43 53  43 45 54  43 53 54  45 46 55  45 54 55  46 47 56  46 55 56  47 48 57  47 56 57  48 49 58  48 57 58  49 50 59  49 58 59  50 51 60  50 59 60  51 52 61  51 60 61  52 61 62  53 54 63  53 64 63  54 55 65  54 63 65  55 56 66  55 65 66  56 57 67  56 66 67  57 58 68  57 67 68  58 59 69  58 68 69  59 60 70  59 69 70  60 61 71  60 70 71  61 62 72  61 71 72  62 72 73  64 63 74  64 75 74  63 65 76  63 74 76  65 66 77  65 76 77  66 67 78  66 77 78  67 68 79  67 78 79  68 69 80  68 79 80  69 70 81  69 80 81  70 71 82  70 81 82  71 72 83  71 82 83  72 73 84  72 83 84  73 84 85  75 74 86  75 87 86  74 76 88  74 86 88  76 77 89  76 88 89  77 78 90  77 89 90  78 79 91  78 90 91  79 80 92  79 91 92  80 81 93  80 92 93  81 82 94  81 93 94  82 83 95  82 94 95  83 84 96  83 95 96  84 85 97  84 96 97  85 97 98  87 86 99  87 100 99  86 88 101  86 99 101  88 89 102  88 101 102  89 90 103  89 102 103  90 91 104  90 103 104  91 92 105  91 104 105  92 93 106  92 105 106  93 94 107  93 106 107  94 95 108  94 107 108  95 96 109  95 108 109  96 97 110  96 109 110  97 98 111  97 110 111  100 99 112  100 113 112  99 101 114  99 112 114  101 102 115  101 114 115  102 103 116  102 115 116  103 104 117  103 116 117  104 105 118  104 117 118  105 106 119  105 118 119  106 107 120  106 119 120  107 108 121  107 120 121  108 109 122  108 121 122  109 110 123  109 122 123  110 111 124  110 123 124  111 124 125  113 112 126  113 127 126  112 114 128  112 126 128  114 115 129  114 128 129  115 116 130  115 129 130  116 117 131  116 130 131  117 118 132  117 131 132  118 119 133  118 132 133  119 120 134  119 133 134  120 121 135  120 134 135  121 122 136  121 135 136  122 123 137  122 136 137  123 124 138  123 137 138  124 125 139  124 138 139  127 126 140  127 141 140  126 128 142  126 140 142  128 129 143  128 142 143  129 130 144  129 143 144  130 131 145  130 144 145  131 132 146  131 145 146  132 133 147  132 146 147  133 134 148  133 147 148  134 135 149  134 148 149  135 136 150  135 149 150  136 137 151  136 150 151  137 138 152  137 151 152  138 139 153  138 152 153  141 140 154  141 155 154  140 142 156  140 154 156  142 143 157  142 156 157  143 144 158  143 157 158  144 145 159  144 158 159  145 146 160  145 159 160  146 147 161  146 160 161  147 148 162  147 161 162  148 149 163  148 162 163  149 150 164  149 163 164  150 151 165  150 164 165  151 152 166  151 165 166  152 153 167  152 166 167  153 167 168  </DataArray>
<DataArray  type="UInt32"  Name="offsets"  format="ascii">3 6 9 12 15 18 21 24 27 30 33 36 39 42 45 48 51 54 57 60 63 66 69 72 75 78 81 84 87 90 93 96 99 102 105 108 111 114 117 120 123 126 129 132 135 138 141 144 147 150 153 156 159 162 165 168 171 174 177 180 183 186 189 192 195 198 201 204 207 210 213 216 219 222 225 228 231 234 237 240 243 246 249 252 255 258 261 264 267 270 273 276 279 282 285 288 291 294 297 300 303 306 309 312 315 318 321 324 327 330 333 336 339 342 345 348 351 354 357 360 363 366 369 372 375 378 381 384 387 390 393 396 399 402 405 408 411 414 417 420 423 426 429 432 435 438 441 444 447 450 453 456 459 462 465 468 471 474 477 480 483 486 489 492 495 498 501 504 507 510 513 516 519 522 525 528 531 534 537 540 543 546 549 552 555 558 561 564 567 570 573 576 579 582 585 588 591 594 597 600 603 606 609 612 615 618 621 624 627 630 633 636 639 642 645 648 651 654 657 660 663 666 669 672 675 678 681 684 687 690 693 696 699 702 705 708 711 714 717 720 723 726 729 732 735 738 741 744 747 750 753 756 759 762 765 768 771 774 777 780 783 786 789 792 795 798 801 804 807 810 813 816 819 822 825 828 831 834 837 840 843 846 849 852 855 858 </DataArray>
<DataArray  type="UInt8"  Name="types"  format="ascii">5 5 5 5 5 5 5 5 5 5 5 5 5 5 5 5 5 5 5 5 5 5 5 5 5 5 5 5 5 5 5 5 5 5 5 5 5 5 5 5 5 5 5 5 5 5 5 5 5 5 5 5 5 5 5 5 5 5 5 5 5 5 5 5 5 5 5 5 5 5 5 5 5 5 5 5 5 5 5 5 5 5 5 5 5 5 5 5 5 5 5 5 5 5 5 5 5 5 5 5 5 5 5 5 5 5 5 5 5 5 5 5 5 5 5 5 5 5 5 5 5 5 5 5 5 5 5 5 5 5 5 5 5 5 5 5 5 5 5 5 5 5 5 5 5 5 5 5 5 5 5 5 5 5 5 5 5 5 5 5 5 5 5 5 5 5 5 5 5 5 5 5 5 5 5 5 5 5 5 5 5 5 5 5 5 5 5 5 5 5 5 5 5 5 5 5 5 5 5 5 5 5 5 5 5 5 5 5 5 5 5 5 5 5 5 5 5 5 5 5 5 5 5 5 5 5 5 5 5 5 5 5 5 5 5 5 5 5 5 5 5 5 5 5 5 5 5 5 5 5 5 5 5 5 5 5 5 5 5 5 5 5 5 5 5 5 5 5 5 5 5 5 5 5 5 5 5 5 5 5 5 5 5 5 5 5 </DataArray>
</Cells>
<CellData  Scalars="rho_bar"> 
<DataArray  type="Float64"  Name="rho_bar"  format="ascii">1.0000000000000000e+00   9.9999999999999989e-01   9.9999999999999989e-01   9.9999999999999989e-01   9.9999999999999989e-01   1.0000000000000000e+00   1.0000000000000000e+00   1.0000000000000000e+00   1.0000000000000000e+00   1.0000000000000000e+00   1.0000000000000000e+00   3.2633130719849857e-01   3.3327948732656598e-01   0.0000000000000000e+00   3.3921789924723689e-01   6.8463753185217990e-16   6.6647113154128190e-01   3.4593336621184067e-09   6.6666672059635268e-01   3.3029653119382851e-01   6.6666668316242361e-01   0.0000000000000000e+00   0.0000000000000000e+00   0.0000000000000000e+00   0.0000000000000000e+00   0.0000000000000000e+00   0.0000000000000000e+00   0.0000000000000000e+00   0.0000000000000000e+00   6.6666665735451969e-01   1.2771603075242399e-01   1.0000000000000000e+00   0.0000000000000000e+00   0.0000000000000000e+00   0.0000000000000000e+00   0.0000000000000000e+00   0.0000000000000000e+00   0.0000000000000000e+00   0.0000000000000000e+00   0.0000000000000000e+00   6.6666666613858938e-01   5.0256486088275454e-01   1.0000000000000000e+00   1.0000000000000000e+00   9.9999999999999989e-01   0.0000000000000000e+00   0.0000000000000000e+00   0.0000000000000000e+00   0.0000000000000000e+00   0.0000000000000000e+00   3.3306690738754696e-16   5.0000204712679308e-01   5.1417258467297000e-01   9.9999999999999989e-01   9.9999999999999989e-01   1.0000000000000000e+00   1.0000000000000000e+00   9.9999999999999989e-01   9.9999999999999989e-01   4.9686001988910727e-01   0.0000000000000000e+00   0.0000000000000000e+00   3.1559371040069304e-03   1.6653698805183495e-01   6.6461034243139727e-01   6.6666666666687435e-01   9.9999999999999978e-01   9.9999999999999978e-01   9.9999999999999978e-01   9.9999999999999978e-01   9.9999999999999989e-01   9.9999999999999789e-01   4.9999988744575941e-01   4.9990670843525897e-01   0.0000000000000000e+00   0.0000000000000000e+00   0.0000000000000000e+00   3.3333332037604146e-01   8.5294692339120970e-01   9.9961754696404825e-01   9.9999999999999989e-01   9.9999999999999989e-01   9.9999999999999989e-01   9.9999999999999989e-01   6.6666666750718961e-01   6.5490465510507245e-01   3.3341955488460184e-01   3.3222617168490187e-01   0.0000000000000000e+00   0.0000000000000000e+00   0.0000000000000000e+00   0.0000000000000000e+00   0.0000000000000000e+00   0.0000000000000000e+00   0.0000000000000000e+00   9.9999999999999989e-01   9.9999999999999989e-01   9.9999999999991984e-01   9.9999999999956579e-01   5.0000013204023963e-01   3.3419428329280781e-01   0.0000000000000000e+00   0.0000000000000000e+00   0.0000000000000000e+00   0.0000000000000000e+00   0.0000000000000000e+00   0.0000000000000000e+00   0.0000000000000000e+00   0.0000000000000000e+00   0.0000000000000000e+00   0.0000000000000000e+00   0.0000000000000000e+00   0.0000000000000000e+00   0.0000000000000000e+00   9.9999999994549182e-01   9.9999999972036224e-01   3.3335523123057026e-01   3.3333343184204450e-01   0.0000000000000000e+00   0.0000000000000000e+00   0.0000000000000000e+00   0.0000000000000000e+00   0.0000000000000000e+00   0.0000000000000000e+00   0.0000000000000000e+00   0.0000000000000000e+00   0.0000000000000000e+00   0.0000000000000000e+00   0.0000000000000000e+00   0.0000000000000000e+00   0.0000000000000000e+00   0.0000000000000000e+00   0.0000000000000000e+00   0.0000000000000000e+00   0.0000000000000000e+00   3.3333334446331070e-01   3.3333333113219277e-01   0.0000000000000000e+00   0.0000000000000000e+00   0.0000000000000000e+00   0.0000000000000000e+00   0.0000000000000000e+00   0.0000000000000000e+00   0.0000000000000000e+00   0.0000000000000000e+00   0.0000000000000000e+00   0.0000000000000000e+00   0.0000000000000000e+00   0.0000000000000000e+00   0.0000000000000000e+00   0.0000000000000000e+00   0.0000000000000000e+00   0.0000000000000000e+00   0.0000000000000000e+00   0.0000000000000000e+00   0.0000000000000000e+00   0.0000000000000000e+00   0.0000000000000000e+00   0.0000000000000000e+00   0.0000000000000000e+00   0.0000000000000000e+00   0.0000000000000000e+00   0.0000000000000000e+00   0.0000000000000000e+00   0.0000000000000000e+00   0.0000000000000000e+00   0.0000000000000000e+00   0.0000000000000000e+00   0.0000000000000000e+00   0.0000000000000000e+00   0.0000000000000000e+00   0.0000000000000000e+00   0.0000000000000000e+00   0.0000000000000000e+00   0.0000000000000000e+00   0.0000000000000000e+00   0.0000000000000000e+00   0.0000000000000000e+00   0.0000000000000000e+00   0.0000000000000000e+00   0.0000000000000000e+00   0.0000000000000000e+00   0.0000000000000000e+00   0.0000000000000000e+00   0.0000000000000000e+00   0.0000000000000000e+00   0.0000000000000000e+00   0.0000000000000000e+00   0.0000000000000000e+00   0.0000000000000000e+00   0.0000000000000000e+00   0.0000000000000000e+00   0.0000000000000000e+00   0.0000000000000000e+00   0.0000000000000000e+00   0.0000000000000000e+00   0.0000000000000000e+00   0.0000000000000000e+00   0.0000000000000000e+00   0.0000000000000000e+00   0.0000000000000000e+00   0.0000000000000000e+00   0.0000000000000000e+00   0.0000000000000000e+00   0.0000000000000000e+00   0.0000000000000000e+00   0.0000000000000000e+00   0.0000000000000000e+00   0.0000000000000000e+00   0.0000000000000000e+00   0.0000000000000000e+00   0.0000000000000000e+00   0.0000000000000000e+00   0.0000000000000000e+00   0.0000000000000000e+00   0.0000000000000000e+00   0.0000000000000000e+00   0.0000000000000000e+00   0.0000000000000000e+00   0.0000000000000000e+00   0.0000000000000000e+00   0.0000000000000000e+00   0.0000000000000000e+00   0.0000000000000000e+00   0.0000000000000000e+00   0.0000000000000000e+00   0.0000000000000000e+00   0.0000000000000000e+00   0.0000000000000000e+00   0.0000000000000000e+00   0.0000000000000000e+00   0.0000000000000000e+00   0.0000000000000000e+00   4.6259292692714846e-17   3.3332800449222355e-01   0.0000000000000000e+00   3.3294887487098412e-01   0.0000000000000000e+00   3.2173203133596795e-01   0.0000000000000000e+00   2.4330005245408454e-01   0.0000000000000000e+00   1.2728050863401677e-01   0.0000000000000000e+00   6.7082291575533554e-02   0.0000000000000000e+00   4.3545611874126242e-02   0.0000000000000000e+00   3.4099310698242916e-02   0.0000000000000000e+00   3.0733217538064711e-02   0.0000000000000000e+00   3.1040987676378147e-02   0.0000000000000000e+00   3.5085696970414137e-02   0.0000000000000000e+00   4.5340514873558571e-02   0.0000000000000000e+00   6.9463455258991391e-02   9.9999999999999989e-01   9.9999999999999989e-01   9.9999999999999989e-01   9.9999999999999989e-01   9.9999999999999989e-01   9.9999999999999989e-01   9.9999999999999989e-01   9.9999999999999989e-01   9.9999999999999989e-01   1.0000000000000000e+00   9.9999999999999989e-01   9.9999999999999989e-01   9.9999999999999989e-01   9.9999999999999989e-01   9.9999999999999989e-01   9.9999999999999989e-01   9.9999999999999978e-01   1.0000000000000000e+00   9.9999999999999978e-01   1.0000000000000000e+00   9.9999999999999989e-01   9.9999999999999989e-01   9.9999999999999989e-01   9.9999999999999989e-01   9.9999999999999989e-01   9.9999999999999989e-01   1.0000000000000000e+00   </DataArray> 
</CellData> 
</Piece>
</UnstructuredGrid>
</VTKFile>