<?xml version="1.0"?>
<VTKFile type="UnstructuredGrid"  version="0.1"  >
<UnstructuredGrid>
<Piece  NumberOfPoints="169" NumberOfCells="288">
<Points>
<DataArray  type="Float64"  NumberOfComponents="3"  format="ascii">1.453913043478261 0 0  1.486956521739131 0 0  1.486956521739131 0.03333333333333333 0  1.453913043478261 0.03333333333333333 0  1.52 0 0  1.52 0.03333333333333333 0  1.55304347826087 0 0  1.55304347826087 0.03333333333333333 0  1.586086956521739 0 0  1.586086956521739 0.03333333333333333 0  1.619130434782609 0 0  1.619130434782609 0.03333333333333333 0  1.652173913043478 0 0  1.652173913043478 0.03333333333333333 0  1.685217391304348 0 0  1.685217391304348 0.03333333333333333 0  1.718260869565217 0 0  1.718260869565217 0.03333333333333333 0  1.751304347826087 0 0  1.751304347826087 0.03333333333333333 0  1.784347826086957 0 0  1.784347826086957 0.03333333333333333 0  1.817391304347826 0 0  1.817391304347826 0.03333333333333333 0  1.850434782608696 0 0  1.850434782608696 0.03333333333333333 0  1.486956521739131 0.06666666666666667 0  1.453913043478261 0.06666666666666667 0  1.52 0.06666666666666667 0  1.55304347826087 0.06666666666666667 0  1.586086956521739 0.06666666666666667 0  1.619130434782609 0.06666666666666667 0  1.652173913043478 0.06666666666666667 0  1.685217391304348 0.06666666666666667 0  1.718260869565217 0.06666666666666667 0  1.751304347826087 0.06666666666666667 0  1.784347826086957 0.06666666666666667 0  1.817391304347826 0.06666666666666667 0  1.850434782608696 0.06666666666666667 0  1.883478260869565 0.06666666666666667 0  1.486956521739131 0.1 0  1.52 0.1 0  1.55304347826087 0.1 0  1.586086956521739 0.1 0  1.619130434782609 0.1 0  1.652173913043478 0.1 0  1.685217391304348 0.1 0  1.718260869565217 0.1 0  1.751304347826087 0.1 0  1.784347826086957 0.1 0  1.817391304347826 0.1 0  1.850434782608696 0.1 0  1.883478260869565 0.1 0  1.52 0.1333333333333333 0  1.486956521739131 0.1333333333333333 0  1.55304347826087 0.1333333333333333 0  1.586086956521739 0.1333333333333333 0  1.619130434782609 0.1333333333333333 0  1.652173913043478 0.1333333333333333 0  1.685217391304348 0.1333333333333333 0  1.718260869565217 0.1333333333333333 0  1.751304347826087 0.1333333333333333 0  1.784347826086957 0.1333333333333333 0  1.817391304347826 0.1333333333333333 0  1.850434782608696 0.1333333333333333 0  1.883478260869565 0.1333333333333333 0  1.52 0.1666666666666667 0  1.55304347826087 0.1666666666666667 0  1.586086956521739 0.1666666666666667 0  1.619130434782609 0.1666666666666667 0  1.652173913043478 0.1666666666666667 0  1.685217391304348 0.1666666666666667 0  1.718260869565217 0.1666666666666667 0  1.751304347826087 0.1666666666666667 0  1.784347826086957 0.1666666666666667 0  1.817391304347826 0.1666666666666667 0  1.850434782608696 0.1666666666666667 0  1.883478260869565 0.1666666666666667 0  1.55304347826087 0.2 0  1.586086956521739 0.2 0  1.619130434782609 0.2 0  1.652173913043478 0.2 0  1.685217391304348 0.2 0  1.718260869565217 0.2 0  1.751304347826087 0.2 0  1.784347826086957 0.2 0  1.817391304347826 0.2 0  1.850434782608696 0.2 0  1.883478260869565 0.2 0  1.586086956521739 0.2333333333333333 0  1.619130434782609 0.2333333333333333 0  1.652173913043478 0.2333333333333333 0  1.685217391304348 0.2333333333333333 0  1.718260869565217 0.2333333333333333 0  1.751304347826087 0.2333333333333333 0  1.784347826086957 0.2333333333333333 0  1.817391304347826 0.2333333333333333 0  1.850434782608696 0.2333333333333333 0  1.883478260869565 0.2333333333333333 0  1.916521739130435 0.2333333333333333 0  1.619130434782609 0.2666666666666667 0  1.652173913043478 0.2666666666666667 0  1.685217391304348 0.2666666666666667 0  1.718260869565217 0.2666666666666667 0  1.751304347826087 0.2666666666666667 0  1.784347826086957 0.2666666666666667 0  1.817391304347826 0.2666666666666667 0  1.850434782608696 0.2666666666666667 0  1.883478260869565 0.2666666666666667 0  1.916521739130435 0.2666666666666667 0  1.652173913043478 0.3 0  1.619130434782609 0.3 0  1.685217391304348 0.3 0  1.718260869565217 0.3 0  1.751304347826087 0.3 0  1.784347826086957 0.3 0  1.817391304347826 0.3 0  1.850434782608696 0.3 0  1.883478260869565 0.3 0  1.916521739130435 0.3 0  1.652173913043478 0.3333333333333333 0  1.685217391304348 0.3333333333333333 0  1.718260869565217 0.3333333333333333 0  1.751304347826087 0.3333333333333333 0  1.784347826086957 0.3333333333333333 0  1.817391304347826 0.3333333333333333 0  1.850434782608696 0.3333333333333333 0  1.883478260869565 0.3333333333333333 0  1.916521739130435 0.3333333333333333 0  1.685217391304348 0.3666666666666666 0  1.652173913043478 0.3666666666666666 0  1.718260869565217 0.3666666666666666 0  1.751304347826087 0.3666666666666666 0  1.784347826086957 0.3666666666666666 0  1.817391304347826 0.3666666666666666 0  1.850434782608696 0.3666666666666666 0  1.883478260869565 0.3666666666666666 0  1.916521739130435 0.3666666666666666 0  1.685217391304348 0.4 0  1.652173913043478 0.4 0  1.718260869565217 0.4 0  1.751304347826087 0.4 0  1.784347826086957 0.4 0  1.817391304347826 0.4 0  1.850434782608696 0.4 0  1.883478260869565 0.4 0  1.916521739130435 0.4 0  1.685217391304348 0.4333333333333333 0  1.718260869565217 0.4333333333333333 0  1.751304347826087 0.4333333333333333 0  1.784347826086957 0.4333333333333333 0  1.817391304347826 0.4333333333333333 0  1.850434782608696 0.4333333333333333 0  1.883478260869565 0.4333333333333333 0  1.916521739130435 0.4333333333333333 0  1.718260869565217 0.4666666666666667 0  1.751304347826087 0.4666666666666667 0  1.784347826086957 0.4666666666666667 0  1.817391304347826 0.4666666666666667 0  1.850434782608696 0.4666666666666667 0  1.883478260869565 0.4666666666666667 0  1.916521739130435 0.4666666666666667 0  1.751304347826087 0.5 0  1.784347826086957 0.5 0  1.817391304347826 0.5 0  1.850434782608696 0.5 0  1.883478260869565 0.5 0  1.916521739130435 0.5 0  1.949565217391304 0.5 0  </DataArray>
</Points>
<Cells>
<DataArray  type="UInt32"  Name="connectivity"  format="ascii">0 1 2  0 3 2  1 4 5  1 2 5  4 6 7  4 5 7  6 8 9  6 7 9  8 10 11  8 9 11  10 12 13  10 11 13  12 14 15  12 13 15  14 16 17  14 15 17  16 18 19  16 17 19  18 20 21  18 19 21  20 22 23  20 21 23  22 24 25  22 23 25  3 2 26  3 27 26  2 5 28  2 26 28  5 7 29  5 28 29  7 9 30  7 29 30  9 11 31  9 30 31  11 13 32  11 31 32  13 15 33  13 32 33  15 17 34  15 33 34  17 19 35  17 34 35  19 21 36  19 35 36  21 23 37  21 36 37  23 25 38  23 37 38  25 38 39  27 26 40  26 28 41  26 40 41  28 29 42  28 41 42  29 30 43  29 42 43  30 31 44  30 43 44  31 32 45  31 44 45  32 33 46  32 45 46  33 34 47  33 46 47  34 35 48  34 47 48  35 36 49  35 48 49  36 37 50  36 49 50  37 38 51  37 50 51  38 39 52  38 51 52  40 41 53  40 54 53  41 42 55  41 53 55  42 43 56  42 55 56  43 44 57  43 56 57  44 45 58  44 57 58  45 46 59  45 58 59  46 47 60  46 59 60  47 48 61  47 60 61  48 49 62  48 61 62  49 50 63  49 62 63  50 51 64  50 63 64  51 52 65  51 64 65  54 53 66  53 55 67  53 66 67  55 56 68  55 67 68  56 57 69  56 68 69  57 58 70  57 69 70  58 59 71  58 70 71  59 60 72  59 71 72  60 61 73  60 72 73  61 62 74  61 73 74  62 63 75  62 74 75  63 64 76  63 75 76  64 65 77  64 76 77  66 67 78  67 68 79  67 78 79  68 69 80  68 79 80  69 70 81  69 80 81  70 71 82  70 81 82  71 72 83  71 82 83  72 73 84  72 83 84  73 74 85  73 84 85  74 75 86  74 85 86  75 76 87  75 86 87  76 77 88  76 87 88  78 79 89  79 80 90  79 89 90  80 81 91  80 90 91  81 82 92  81 91 92  82 83 93  82 92 93  83 84 94  83 93 94  84 85 95  84 94 95  85 86 96  85 95 96  86 87 97  86 96 97  87 88 98  87 97 98  88 98 99  89 90 100  90 91 101  90 100 101  91 92 102  91 101 102  92 93 103  92 102 103  93 94 104  93 103 104  94 95 105  94 104 105  95 96 106  95 105 106  96 97 107  96 106 107  97 98 108  97 107 108  98 99 109  98 108 109  100 101 110  100 111 110  101 102 112  101 110 112  102 103 113  102 112 113  103 104 114  103 113 114  104 105 115  104 114 115  105 106 116  105 115 116  106 107 117  106 116 117  107 108 118  107 117 118  108 109 119  108 118 119  111 110 120  110 112 121  110 120 121  112 113 122  112 121 122  113 114 123  113 122 123  114 115 124  114 123 124  115 116 125  115 124 125  116 117 126  116 125 126  117 118 127  117 126 127  118 119 128  118 127 128  120 121 129  120 130 129  121 122 131  121 129 131  122 123 132  122 131 132  123 124 133  123 132 133  124 125 134  124 133 134  125 126 135  125 134 135  126 127 136  126 135 136  127 128 137  127 136 137  130 129 138  130 139 138  129 131 140  129 138 140  131 132 141  131 140 141  132 133 142  132 141 142  133 134 143  133 142 143  134 135 144  134 143 144  135 136 145  135 144 145  136 137 146  136 145 146  139 138 147  138 140 148  138 147 148  140 141 149  140 148 149  141 142 150  141 149 150  142 143 151  142 150 151  143 144 152  143 151 152  144 145 153  144 152 153  145 146 154  145 153 154  147 148 155  148 149 156  148 155 156  149 150 157  149 156 157  150 151 158  150 157 158  151 152 159  151 158 159  152 153 160  152 159 160  153 154 161  153 160 161  155 156 162  156 157 163  156 162 163  157 158 164  157 163 164  158 159 165  158 164 165  159 160 166  159 165 166  160 161 167  160 166 167  161 167 168  </DataArray>
<DataArray  type="UInt32"  Name="offsets"  format="ascii">3 6 9 12 15 18 21 24 27 30 33 36 39 42 45 48 51 54 57 60 63 66 69 72 75 78 81 84 87 90 93 96 99 102 105 108 111 114 117 120 123 126 129 132 135 138 141 144 147 150 153 156 159 162 165 168 171 174 177 180 183 186 189 192 195 198 201 204 207 210 213 216 219 222 225 228 231 234 237 240 243 246 249 252 255 258 261 264 267 270 273 276 279 282 285 288 291 294 297 300 303 306 309 312 315 318 321 324 327 330 333 336 339 342 345 348 351 354 357 360 363 366 369 372 375 378 381 384 387 390 393 396 399 402 405 408 411 414 417 420 423 426 429 432 435 438 441 444 447 450 453 456 459 462 465 468 471 474 477 480 483 486 489 492 495 498 501 504 507 510 513 516 519 522 525 528 531 534 537 540 543 546 549 552 555 558 561 564 567 570 573 576 579 582 585 588 591 594 597 600 603 606 609 612 615 618 621 624 627 630 633 636 639 642 645 648 651 654 657 660 663 666 669 672 675 678 681 684 687 690 693 696 699 702 705 708 711 714 717 720 723 726 729 732 735 738 741 744 747 750 753 756 759 762 765 768 771 774 777 780 783 786 789 792 795 798 801 804 807 810 813 816 819 822 825 828 831 834 837 840 843 846 849 852 855 858 861 864 </DataArray>
<DataArray  type="UInt8"  Name="types"  format="ascii">5 5 5 5 5 5 5 5 5 5 5 5 5 5 5 5 5 5 5 5 5 5 5 5 5 5 5 5 5 5 5 5 5 5 5 5 5 5 5 5 5 5 5 5 5 5 5 5 5 5 5 5 5 5 5 5 5 5 5 5 5 5 5 5 5 5 5 5 5 5 5 5 5 5 5 5 5 5 5 5 5 5 5 5 5 5 5 5 5 5 5 5 5 5 5 5 5 5 5 5 5 5 5 5 5 5 5 5 5 5 5 5 5 5 5 5 5 5 5 5 5 5 5 5 5 5 5 5 5 5 5 5 5 5 5 5 5 5 5 5 5 5 5 5 5 5 5 5 5 5 5 5 5 5 5 5 5 5 5 5 5 5 5 5 5 5 5 5 5 5 5 5 5 5 5 5 5 5 5 5 5 5 5 5 5 5 5 5 5 5 5 5 5 5 5 5 5 5 5 5 5 5 5 5 5 5 5 5 5 5 5 5 5 5 5 5 5 5 5 5 5 5 5 5 5 5 5 5 5 5 5 5 5 5 5 5 5 5 5 5 5 5 5 5 5 5 5 5 5 5 5 5 5 5 5 5 5 5 5 5 5 5 5 5 5 5 5 5 5 5 5 5 5 5 5 5 5 5 5 5 5 5 5 5 5 5 5 5 </DataArray>
</Cells>
<CellData  Scalars="rho_bar"> 
<DataArray  type="Float64"  Name="rho_bar"  format="ascii">1.0000000000000000e+00   1.0000000000000000e+00   9.9999999999999989e-01   9.9999999999999989e-01   1.0000000000000000e+00   1.0000000000000000e+00   1.0000000000000000e+00   1.0000000000000000e+00   1.0000000000000000e+00   1.0000000000000000e+00   1.0000000000000000e+00   1.0000000000000000e+00   1.0000000000000000e+00   1.0000000000000000e+00   1.0000000000000000e+00   1.0000000000000000e+00   1.0000000000000000e+00   9.9999999999998990e-01   1.0000000000000000e+00   1.0000000000000000e+00   1.0000000000000000e+00   1.0000000000000000e+00   1.0000000000000000e+00   1.0000000000000000e+00   6.6642997859918063e-01   1.1599123513524510e-10   9.9999999999999989e-01   5.6184465387468829e-01   1.0000000000000000e+00   1.0000000000000000e+00   1.0000000000000000e+00   1.0000000000000000e+00   1.0000000000000000e+00   1.0000000000000000e+00   6.6666666667571717e-01   6.3678013775206610e-01   5.0214250733469923e-01   3.3325223697135342e-01   1.7342536492976271e-01   9.2518585385429691e-18   1.4484095147562677e-03   0.0000000000000000e+00   3.3215648937392167e-01   0.0000000000000000e+00   6.6638649899208102e-01   1.3371979449653775e-11   6.7895132701763861e-01   3.3333327887448649e-01   6.7032521417197199e-01   0.0000000000000000e+00   1.9624010469886648e-02   0.0000000000000000e+00   9.9999999999999989e-01   8.7650039263975354e-01   1.0000000000000000e+00   1.0000000000000000e+00   5.1573841560077771e-01   6.6666666666666630e-01   0.0000000000000000e+00   0.0000000000000000e+00   0.0000000000000000e+00   0.0000000000000000e+00   0.0000000000000000e+00   0.0000000000000000e+00   0.0000000000000000e+00   0.0000000000000000e+00   0.0000000000000000e+00   0.0000000000000000e+00   0.0000000000000000e+00   0.0000000000000000e+00   0.0000000000000000e+00   0.0000000000000000e+00   3.3333333301481088e-01   0.0000000000000000e+00   1.2927425373695142e-07   0.0000000000000000e+00   9.9999999776620452e-01   8.4745472010918366e-01   1.0000000000000000e+00   1.0000000000000000e+00   1.1540067599862602e-02   4.9953452536975645e-01   0.0000000000000000e+00   0.0000000000000000e+00   0.0000000000000000e+00   0.0000000000000000e+00   0.0000000000000000e+00   0.0000000000000000e+00   0.0000000000000000e+00   0.0000000000000000e+00   0.0000000000000000e+00   0.0000000000000000e+00   0.0000000000000000e+00   0.0000000000000000e+00   0.0000000000000000e+00   0.0000000000000000e+00   0.0000000000000000e+00   0.0000000000000000e+00   5.0000970343487716e-01   9.9999999999999989e-01   9.9999999999999989e-01   6.6669846729688731e-01   6.7507164425509147e-01   0.0000000000000000e+00   1.4740605032888726e-10   0.0000000000000000e+00   0.0000000000000000e+00   0.0000000000000000e+00   0.0000000000000000e+00   0.0000000000000000e+00   0.0000000000000000e+00   0.0000000000000000e+00   0.0000000000000000e+00   0.0000000000000000e+00   0.0000000000000000e+00   0.0000000000000000e+00   0.0000000000000000e+00   0.0000000000000000e+00   0.0000000000000000e+00   0.0000000000000000e+00   0.0000000000000000e+00   9.9479250009890308e-01   3.2215824476121191e-01   3.3222155088267780e-01   0.0000000000000000e+00   0.0000000000000000e+00   0.0000000000000000e+00   0.0000000000000000e+00   0.0000000000000000e+00   0.0000000000000000e+00   0.0000000000000000e+00   0.0000000000000000e+00   0.0000000000000000e+00   0.0000000000000000e+00   0.0000000000000000e+00   0.0000000000000000e+00   0.0000000000000000e+00   0.0000000000000000e+00   0.0000000000000000e+00   0.0000000000000000e+00   0.0000000000000000e+00   0.0000000000000000e+00   0.0000000000000000e+00   0.0000000000000000e+00   0.0000000000000000e+00   0.0000000000000000e+00   0.0000000000000000e+00   0.0000000000000000e+00   0.0000000000000000e+00   0.0000000000000000e+00   0.0000000000000000e+00   0.0000000000000000e+00   0.0000000000000000e+00   0.0000000000000000e+00   0.0000000000000000e+00   0.0000000000000000e+00   0.0000000000000000e+00   0.0000000000000000e+00   0.0000000000000000e+00   0.0000000000000000e+00   0.0000000000000000e+00   0.0000000000000000e+00   0.0000000000000000e+00   0.0000000000000000e+00   0.0000000000000000e+00   0.0000000000000000e+00   0.0000000000000000e+00   0.0000000000000000e+00   0.0000000000000000e+00   0.0000000000000000e+00   0.0000000000000000e+00   0.0000000000000000e+00   0.0000000000000000e+00   0.0000000000000000e+00   0.0000000000000000e+00   0.0000000000000000e+00   0.0000000000000000e+00   0.0000000000000000e+00   0.0000000000000000e+00   0.0000000000000000e+00   0.0000000000000000e+00   0.0000000000000000e+00   0.0000000000000000e+00   0.0000000000000000e+00   0.0000000000000000e+00   0.0000000000000000e+00   0.0000000000000000e+00   0.0000000000000000e+00   0.0000000000000000e+00   0.0000000000000000e+00   0.0000000000000000e+00   0.0000000000000000e+00   0.0000000000000000e+00   0.0000000000000000e+00   0.0000000000000000e+00   0.0000000000000000e+00   0.0000000000000000e+00   0.0000000000000000e+00   0.0000000000000000e+00   0.0000000000000000e+00   0.0000000000000000e+00   0.0000000000000000e+00   0.0000000000000000e+00   0.0000000000000000e+00   0.0000000000000000e+00   0.0000000000000000e+00   0.0000000000000000e+00   0.0000000000000000e+00   0.0000000000000000e+00   0.0000000000000000e+00   0.0000000000000000e+00   0.0000000000000000e+00   0.0000000000000000e+00   0.0000000000000000e+00   0.0000000000000000e+00   0.0000000000000000e+00   0.0000000000000000e+00   0.0000000000000000e+00   0.0000000000000000e+00   0.0000000000000000e+00   0.0000000000000000e+00   0.0000000000000000e+00   0.0000000000000000e+00   0.0000000000000000e+00   0.0000000000000000e+00   0.0000000000000000e+00   0.0000000000000000e+00   0.0000000000000000e+00   0.0000000000000000e+00   0.0000000000000000e+00   0.0000000000000000e+00   0.0000000000000000e+00   0.0000000000000000e+00   0.0000000000000000e+00   0.0000000000000000e+00   0.0000000000000000e+00   0.0000000000000000e+00   0.0000000000000000e+00   0.0000000000000000e+00   0.0000000000000000e+00   0.0000000000000000e+00   0.0000000000000000e+00   0.0000000000000000e+00   0.0000000000000000e+00   0.0000000000000000e+00   0.0000000000000000e+00   0.0000000000000000e+00   0.0000000000000000e+00   0.0000000000000000e+00   0.0000000000000000e+00   0.0000000000000000e+00   0.0000000000000000e+00   0.0000000000000000e+00   0.0000000000000000e+00   0.0000000000000000e+00   0.0000000000000000e+00   0.0000000000000000e+00   0.0000000000000000e+00   0.0000000000000000e+00   0.0000000000000000e+00   0.0000000000000000e+00   0.0000000000000000e+00   0.0000000000000000e+00   0.0000000000000000e+00   0.0000000000000000e+00   3.3322672340594744e-01   0.0000000000000000e+00   3.3322463552639997e-01   0.0000000000000000e+00   3.3322682021357330e-01   0.0000000000000000e+00   3.3323303934505455e-01   0.0000000000000000e+00   3.3324328554673749e-01   0.0000000000000000e+00   3.3325749220028411e-01   1.0000000000000000e+00   9.9999999999999989e-01   9.9999999999999989e-01   1.0000000000000000e+00   1.0000000000000000e+00   1.0000000000000000e+00   1.0000000000000000e+00   9.9999999999999989e-01   9.9999999999999989e-01   1.0000000000000000e+00   1.0000000000000000e+00   9.9999999999999989e-01   </DataArray> 
</CellData> 
</Piece>
</UnstructuredGrid>
</VTKFile>