<?xml version="1.0"?>
<VTKFile type="UnstructuredGrid"  version="0.1"  >
<UnstructuredGrid>
<Piece  NumberOfPoints="170" NumberOfCells="288">
<Points>
<DataArray  type="Float64"  NumberOfComponents="3"  format="ascii">2.114782608695652 0 0  2.147826086956522 0 0  2.147826086956522 0.03333333333333333 0  2.114782608695652 0.03333333333333333 0  2.180869565217391 0 0  2.180869565217391 0.03333333333333333 0  2.213913043478261 0 0  2.213913043478261 0.03333333333333333 0  2.24695652173913 0 0  2.24695652173913 0.03333333333333333 0  2.28 0 0  2.28 0.03333333333333333 0  2.31304347826087 0 0  2.31304347826087 0.03333333333333333 0  2.346086956521739 0 0  2.346086956521739 0.03333333333333333 0  2.379130434782609 0 0  2.379130434782609 0.03333333333333333 0  2.147826086956522 0.06666666666666667 0  2.180869565217391 0.06666666666666667 0  2.213913043478261 0.06666666666666667 0  2.24695652173913 0.06666666666666667 0  2.28 0.06666666666666667 0  2.31304347826087 0.06666666666666667 0  2.346086956521739 0.06666666666666667 0  2.379130434782609 0.06666666666666667 0  2.412173913043478 0.06666666666666667 0  2.180869565217391 0.1 0  2.147826086956522 0.1 0  2.213913043478261 0.1 0  2.24695652173913 0.1 0  2.28 0.1 0  2.31304347826087 0.1 0  2.346086956521739 0.1 0  2.379130434782609 0.1 0  2.412173913043478 0.1 0  2.180869565217391 0.1333333333333333 0  2.147826086956522 0.1333333333333333 0  2.213913043478261 0.1333333333333333 0  2.24695652173913 0.1333333333333333 0  2.28 0.1333333333333333 0  2.31304347826087 0.1333333333333333 0  2.346086956521739 0.1333333333333333 0  2.379130434782609 0.1333333333333333 0  2.412173913043478 0.1333333333333333 0  2.445217391304348 0.1333333333333333 0  2.180869565217391 0.1666666666666667 0  2.147826086956522 0.1666666666666667 0  2.213913043478261 0.1666666666666667 0  2.24695652173913 0.1666666666666667 0  2.28 0.1666666666666667 0  2.31304347826087 0.1666666666666667 0  2.346086956521739 0.1666666666666667 0  2.379130434782609 0.1666666666666667 0  2.412173913043478 0.1666666666666667 0  2.445217391304348 0.1666666666666667 0  2.180869565217391 0.2 0  2.213913043478261 0.2 0  2.24695652173913 0.2 0  2.28 0.2 0  2.31304347826087 0.2 0  2.346086956521739 0.2 0  2.379130434782609 0.2 0  2.412173913043478 0.2 0  2.445217391304348 0.2 0  2.478260869565217 0.2 0  2.213913043478261 0.2333333333333333 0  2.24695652173913 0.2333333333333333 0  2.28 0.2333333333333333 0  2.31304347826087 0.2333333333333333 0  2.346086956521739 0.2333333333333333 0  2.379130434782609 0.2333333333333333 0  2.412173913043478 0.2333333333333333 0  2.445217391304348 0.2333333333333333 0  2.478260869565217 0.2333333333333333 0  2.511304347826087 0.2333333333333333 0  2.24695652173913 0.2666666666666667 0  2.28 0.2666666666666667 0  2.31304347826087 0.2666666666666667 0  2.346086956521739 0.2666666666666667 0  2.379130434782609 0.2666666666666667 0  2.412173913043478 0.2666666666666667 0  2.445217391304348 0.2666666666666667 0  2.478260869565217 0.2666666666666667 0  2.511304347826087 0.2666666666666667 0  2.544347826086956 0.2666666666666667 0  2.28 0.3 0  2.31304347826087 0.3 0  2.346086956521739 0.3 0  2.379130434782609 0.3 0  2.412173913043478 0.3 0  2.445217391304348 0.3 0  2.478260869565217 0.3 0  2.511304347826087 0.3 0  2.544347826086956 0.3 0  2.577391304347826 0.3 0  2.31304347826087 0.3333333333333333 0  2.28 0.3333333333333333 0  2.346086956521739 0.3333333333333333 0  2.379130434782609 0.3333333333333333 0  2.412173913043478 0.3333333333333333 0  2.445217391304348 0.3333333333333333 0  2.478260869565217 0.3333333333333333 0  2.511304347826087 0.3333333333333333 0  2.544347826086956 0.3333333333333333 0  2.577391304347826 0.3333333333333333 0  2.610434782608696 0.3333333333333333 0  2.31304347826087 0.3666666666666666 0  2.28 0.3666666666666666 0  2.346086956521739 0.3666666666666666 0  2.379130434782609 0.3666666666666666 0  2.412173913043478 0.3666666666666666 0  2.445217391304348 0.3666666666666666 0  2.478260869565217 0.3666666666666666 0  2.511304347826087 0.3666666666666666 0  2.544347826086956 0.3666666666666666 0  2.577391304347826 0.3666666666666666 0  2.610434782608696 0.3666666666666666 0  2.643478260869565 0.3666666666666666 0  2.31304347826087 0.4 0  2.28 0.4 0  2.346086956521739 0.4 0  2.379130434782609 0.4 0  2.412173913043478 0.4 0  2.445217391304348 0.4 0  2.478260869565217 0.4 0  2.511304347826087 0.4 0  2.544347826086956 0.4 0  2.577391304347826 0.4 0  2.610434782608696 0.4 0  2.643478260869565 0.4 0  2.31304347826087 0.4333333333333333 0  2.28 0.4333333333333333 0  2.346086956521739 0.4333333333333333 0  2.379130434782609 0.4333333333333333 0  2.412173913043478 0.4333333333333333 0  2.445217391304348 0.4333333333333333 0  2.478260869565217 0.4333333333333333 0  2.511304347826087 0.4333333333333333 0  2.544347826086956 0.4333333333333333 0  2.577391304347826 0.4333333333333333 0  2.610434782608696 0.4333333333333333 0  2.643478260869565 0.4333333333333333 0  2.676521739130435 0.4333333333333333 0  2.31304347826087 0.4666666666666667 0  2.28 0.4666666666666667 0  2.346086956521739 0.4666666666666667 0  2.379130434782609 0.4666666666666667 0  2.412173913043478 0.4666666666666667 0  2.445217391304348 0.4666666666666667 0  2.478260869565217 0.4666666666666667 0  2.511304347826087 0.4666666666666667 0  2.544347826086956 0.4666666666666667 0  2.577391304347826 0.4666666666666667 0  2.610434782608696 0.4666666666666667 0  2.643478260869565 0.4666666666666667 0  2.676521739130435 0.4666666666666667 0  2.31304347826087 0.5 0  2.346086956521739 0.5 0  2.379130434782609 0.5 0  2.412173913043478 0.5 0  2.445217391304348 0.5 0  2.478260869565217 0.5 0  2.511304347826087 0.5 0  2.544347826086956 0.5 0  2.577391304347826 0.5 0  2.610434782608696 0.5 0  2.643478260869565 0.5 0  2.676521739130435 0.5 0  2.709565217391304 0.5 0  </DataArray>
</Points>
<Cells>
<DataArray  type="UInt32"  Name="connectivity"  format="ascii">0 1 2  0 3 2  1 4 5  1 2 5  4 6 7  4 5 7  6 8 9  6 7 9  8 10 11  8 9 11  10 12 13  10 11 13  12 14 15  12 13 15  14 16 17  14 15 17  3 2 18  2 5 19  2 18 19  5 7 20  5 19 20  7 9 21  7 20 21  9 11 22  9 21 22  11 13 23  11 22 23  13 15 24  13 23 24  15 17 25  15 24 25  17 25 26  18 19 27  18 28 27  19 20 29  19 27 29  20 21 30  20 29 30  21 22 31  21 30 31  22 23 32  22 31 32  23 24 33  23 32 33  24 25 34  24 33 34  25 26 35  25 34 35  28 27 36  28 37 36  27 29 38  27 36 38  29 30 39  29 38 39  30 31 40  30 39 40  31 32 41  31 40 41  32 33 42  32 41 42  33 34 43  33 42 43  34 35 44  34 43 44  35 44 45  37 36 46  37 47 46  36 38 48  36 46 48  38 39 49  38 48 49  39 40 50  39 49 50  40 41 51  40 50 51  41 42 52  41 51 52  42 43 53  42 52 53  43 44 54  43 53 54  44 45 55  44 54 55  47 46 56  46 48 57  46 56 57  48 49 58  48 57 58  49 50 59  49 58 59  50 51 60  50 59 60  51 52 61  51 60 61  52 53 62  52 61 62  53 54 63  53 62 63  54 55 64  54 63 64  55 64 65  56 57 66  57 58 67  57 66 67  58 59 68  58 67 68  59 60 69  59 68 69  60 61 70  60 69 70  61 62 71  61 70 71  62 63 72  62 71 72  63 64 73  63 72 73  64 65 74  64 73 74  65 74 75  66 67 76  67 68 77  67 76 77  68 69 78  68 77 78  69 70 79  69 78 79  70 71 80  70 79 80  71 72 81  71 80 81  72 73 82  72 81 82  73 74 83  73 82 83  74 75 84  74 83 84  75 84 85  76 77 86  77 78 87  77 86 87  78 79 88  78 87 88  79 80 89  79 88 89  80 81 90  80 89 90  81 82 91  81 90 91  82 83 92  82 91 92  83 84 93  83 92 93  84 85 94  84 93 94  85 94 95  86 87 96  86 97 96  87 88 98  87 96 98  88 89 99  88 98 99  89 90 100  89 99 100  90 91 101  90 100 101  91 92 102  91 101 102  92 93 103  92 102 103  93 94 104  93 103 104  94 95 105  94 104 105  95 105 106  97 96 107  97 108 107  96 98 109  96 107 109  98 99 110  98 109 110  99 100 111  99 110 111  100 101 112  100 111 112  101 102 113  101 112 113  102 103 114  102 113 114  103 104 115  103 114 115  104 105 116  104 115 116  105 106 117  105 116 117  106 117 118  108 107 119  108 120 119  107 109 121  107 119 121  109 110 122  109 121 122  110 111 123  110 122 123  111 112 124  111 123 124  112 113 125  112 124 125  113 114 126  113 125 126  114 115 127  114 126 127  115 116 128  115 127 128  116 117 129  116 128 129  117 118 130  117 129 130  120 119 131  120 132 131  119 121 133  119 131 133  121 122 134  121 133 134  122 123 135  122 134 135  123 124 136  123 135 136  124 125 137  124 136 137  125 126 138  125 137 138  126 127 139  126 138 139  127 128 140  127 139 140  128 129 141  128 140 141  129 130 142  129 141 142  130 142 143  132 131 144  132 145 144  131 133 146  131 144 146  133 134 147  133 146 147  134 135 148  134 147 148  135 136 149  135 148 149  136 137 150  136 149 150  137 138 151  137 150 151  138 139 152  138 151 152  139 140 153  139 152 153  140 141 154  140 153 154  141 142 155  141 154 155  142 143 156  142 155 156  145 144 157  144 146 158  144 157 158  146 147 159  146 158 159  147 148 160  147 159 160  148 149 161  148 160 161  149 150 162  149 161 162  150 151 163  150 162 163  151 152 164  151 163 164  152 153 165  152 164 165  153 154 166  153 165 166  154 155 167  154 166 167  155 156 168  155 167 168  156 168 169  </DataArray>
<DataArray  type="UInt32"  Name="offsets"  format="ascii">3 6 9 12 15 18 21 24 27 30 33 36 39 42 45 48 51 54 57 60 63 66 69 72 75 78 81 84 87 90 93 96 99 102 105 108 111 114 117 120 123 126 129 132 135 138 141 144 147 150 153 156 159 162 165 168 171 174 177 180 183 186 189 192 195 198 201 204 207 210 213 216 219 222 225 228 231 234 237 240 243 246 249 252 255 258 261 264 267 270 273 276 279 282 285 288 291 294 297 300 303 306 309 312 315 318 321 324 327 330 333 336 339 342 345 348 351 354 357 360 363 366 369 372 375 378 381 384 387 390 393 396 399 402 405 408 411 414 417 420 423 426 429 432 435 438 441 444 447 450 453 456 459 462 465 468 471 474 477 480 483 486 489 492 495 498 501 504 507 510 513 516 519 522 525 528 531 534 537 540 543 546 549 552 555 558 561 564 567 570 573 576 579 582 585 588 591 594 597 600 603 606 609 612 615 618 621 624 627 630 633 636 639 642 645 648 651 654 657 660 663 666 669 672 675 678 681 684 687 690 693 696 699 702 705 708 711 714 717 720 723 726 729 732 735 738 741 744 747 750 753 756 759 762 765 768 771 774 777 780 783 786 789 792 795 798 801 804 807 810 813 816 819 822 825 828 831 834 837 840 843 846 849 852 855 858 861 864 </DataArray>
<DataArray  type="UInt8"  Name="types"  format="ascii">5 5 5 5 5 5 5 5 5 5 5 5 5 5 5 5 5 5 5 5 5 5 5 5 5 5 5 5 5 5 5 5 5 5 5 5 5 5 5 5 5 5 5 5 5 5 5 5 5 5 5 5 5 5 5 5 5 5 5 5 5 5 5 5 5 5 5 5 5 5 5 5 5 5 5 5 5 5 5 5 5 5 5 5 5 5 5 5 5 5 5 5 5 5 5 5 5 5 5 5 5 5 5 5 5 5 5 5 5 5 5 5 5 5 5 5 5 5 5 5 5 5 5 5 5 5 5 5 5 5 5 5 5 5 5 5 5 5 5 5 5 5 5 5 5 5 5 5 5 5 5 5 5 5 5 5 5 5 5 5 5 5 5 5 5 5 5 5 5 5 5 5 5 5 5 5 5 5 5 5 5 5 5 5 5 5 5 5 5 5 5 5 5 5 5 5 5 5 5 5 5 5 5 5 5 5 5 5 5 5 5 5 5 5 5 5 5 5 5 5 5 5 5 5 5 5 5 5 5 5 5 5 5 5 5 5 5 5 5 5 5 5 5 5 5 5 5 5 5 5 5 5 5 5 5 5 5 5 5 5 5 5 5 5 5 5 5 5 5 5 5 5 5 5 5 5 5 5 5 5 5 5 5 5 5 5 5 5 </DataArray>
</Cells>
<PointData  Vectors="Displacement"> 
<DataArray  type="Float64"  Name="Displacement"  NumberOfComponents="3" format="ascii">2.5211103337198612e-04 2.5408240307630506e-03 0.0000000000000000e+00  2.6071252681538165e-04 2.5979514154189339e-03 0.0000000000000000e+00  2.0293509492244220e-04 2.5951539504385683e-03 0.0000000000000000e+00  1.9656058534001499e-04 2.5380271291979683e-03 0.0000000000000000e+00  2.6928659454001464e-04 2.6570690309175343e-03 0.0000000000000000e+00  2.0952918720593149e-04 2.6542714972951510e-03 0.0000000000000000e+00  2.7783313999906308e-04 2.7179316344136673e-03 0.0000000000000000e+00  2.1634330353897892e-04 2.7151340407761976e-03 0.0000000000000000e+00  2.8635205924038763e-04 2.7802931032926506e-03 0.0000000000000000e+00  2.2337820025967970e-04 2.7774954500588873e-03 0.0000000000000000e+00  2.9484324104169727e-04 2.8439063862138294e-03 0.0000000000000000e+00  2.3063470240514380e-04 2.8411086741625688e-03 0.0000000000000000e+00  3.0330656856847462e-04 2.9085234514397945e-03 0.0000000000000000e+00  2.3811368175550662e-04 2.9057256821938115e-03 0.0000000000000000e+00  3.1174192119835581e-04 2.9738952472345881e-03 0.0000000000000000e+00  2.4581604471069689e-04 2.9710974229910899e-03 0.0000000000000000e+00  3.2014917638092282e-04 3.0397716766331837e-03 0.0000000000000000e+00  2.5374272023537297e-04 3.0369737998632716e-03 0.0000000000000000e+00  1.6136708031706695e-04 2.5740300999624638e-03 0.0000000000000000e+00  1.6920999488331619e-04 2.6308796186018161e-03 0.0000000000000000e+00  1.7759746520923213e-04 2.6900592032114458e-03 0.0000000000000000e+00  1.8634386089998986e-04 2.7512239098623236e-03 0.0000000000000000e+00  1.9535756202435851e-04 2.8140156623143804e-03 0.0000000000000000e+00  2.0455212167450117e-04 2.8781891751804047e-03 0.0000000000000000e+00  2.1384586104458822e-04 2.9434511763668388e-03 0.0000000000000000e+00  2.2319097936912918e-04 3.0094765947092867e-03 0.0000000000000000e+00  2.3258042003986956e-04 3.0759380623917696e-03 0.0000000000000000e+00  1.3122464708047177e-04 2.6059439525020923e-03 0.0000000000000000e+00  1.2263637138407778e-04 2.5516167592864298e-03 0.0000000000000000e+00  1.4059771300136092e-04 2.6634084919811580e-03 0.0000000000000000e+00  1.5045141954071696e-04 2.7234232965741524e-03 0.0000000000000000e+00  1.6065869005406019e-04 2.7854602940648415e-03 0.0000000000000000e+00  1.7105150962378124e-04 2.8493290217386936e-03 0.0000000000000000e+00  1.8146965138301208e-04 2.9146727443659232e-03 0.0000000000000000e+00  1.9182294867368902e-04 2.9810575452968572e-03 0.0000000000000000e+00  2.0209912043761842e-04 3.0480507777235354e-03 0.0000000000000000e+00  9.4999151706974460e-05 2.5795073164030622e-03 0.0000000000000000e+00  8.6001232278181544e-05 2.5280503962079397e-03 0.0000000000000000e+00  1.0491313527457948e-04 2.6353555395420285e-03 0.0000000000000000e+00  1.1536986213999707e-04 2.6943136327093080e-03 0.0000000000000000e+00  1.2631731202579149e-04 2.7556179776766971e-03 0.0000000000000000e+00  1.3749173501249632e-04 2.8193214730792460e-03 0.0000000000000000e+00  1.4863330149467749e-04 2.8849522449609002e-03 0.0000000000000000e+00  1.5961273766792013e-04 2.9519116247432426e-03 0.0000000000000000e+00  1.7042941629078000e-04 3.0196205998823554e-03 0.0000000000000000e+00  1.8114377168850941e-04 3.0876500837516531e-03 0.0000000000000000e+00  6.0095586461262406e-05 2.5514034720492003e-03 0.0000000000000000e+00  5.1098946940225822e-05 2.5036014316129865e-03 0.0000000000000000e+00  7.0107354982594126e-05 2.6060224327439764e-03 0.0000000000000000e+00  8.0679036289257018e-05 2.6640725073056280e-03 0.0000000000000000e+00  9.2012138638466998e-05 2.7245545126926454e-03 0.0000000000000000e+00  1.0364868114485500e-04 2.7882658871386549e-03 0.0000000000000000e+00  1.1517442708248299e-04 2.8544445020151159e-03 0.0000000000000000e+00  1.2642716050422414e-04 2.9222304709764792e-03 0.0000000000000000e+00  1.3745157034523875e-04 2.9908328120072632e-03 0.0000000000000000e+00  1.4836583425547646e-04 3.0597635084300243e-03 0.0000000000000000e+00  2.5843402254560163e-05 2.5210653700087344e-03 0.0000000000000000e+00  3.5589169162819062e-05 2.5756088381694003e-03 0.0000000000000000e+00  4.5797160030243406e-05 2.6329022182610133e-03 0.0000000000000000e+00  5.7313776110281739e-05 2.6921729796194533e-03 0.0000000000000000e+00  6.9212119326631083e-05 2.7561787870960096e-03 0.0000000000000000e+00  8.0843470995510820e-05 2.8232784393725186e-03 0.0000000000000000e+00  9.2041072162387755e-05 2.8922158565021839e-03 0.0000000000000000e+00  1.0295662811686101e-04 2.9618833392489048e-03 0.0000000000000000e+00  1.1381147650050298e-04 3.0317700532701310e-03 0.0000000000000000e+00  1.2470920528671249e-04 3.1017822410828498e-03 0.0000000000000000e+00  4.9635215465276753e-07 2.5445740041583854e-03 0.0000000000000000e+00  1.0027595690673332e-05 2.6011144526252423e-03 0.0000000000000000e+00  2.1739101546657408e-05 2.6580582550758776e-03 0.0000000000000000e+00  3.3808714192269939e-05 2.7229924078647702e-03 0.0000000000000000e+00  4.5311169420872880e-05 2.7915732951795374e-03 0.0000000000000000e+00  5.6142539922873160e-05 2.8621054839247854e-03 0.0000000000000000e+00  6.6656711061441139e-05 2.9329877807110377e-03 0.0000000000000000e+00  7.7236858112384607e-05 3.0037962663705909e-03 0.0000000000000000e+00  8.8007838007162062e-05 3.0747400927009119e-03 0.0000000000000000e+00  9.8852357245949126e-05 3.1460637455071401e-03 0.0000000000000000e+00  -2.6191173945625638e-05 2.5696298053293678e-03 0.0000000000000000e+00  -1.5116579126400854e-05 2.6211604876508095e-03 0.0000000000000000e+00  -3.0656315053762039e-06 2.6886145537622762e-03 0.0000000000000000e+00  8.1113945127652980e-06 2.7594569082668332e-03 0.0000000000000000e+00  1.8314508460534098e-05 2.8322092682268288e-03 0.0000000000000000e+00  2.8200595479899878e-05 2.9043862470471450e-03 0.0000000000000000e+00  3.8380549880946849e-05 2.9759332743295652e-03 0.0000000000000000e+00  4.8958356638380287e-05 3.0476552165994452e-03 0.0000000000000000e+00  5.9670972582024787e-05 3.1201693170098289e-03 0.0000000000000000e+00  7.0119490692954569e-05 3.1936083212376135e-03 0.0000000000000000e+00  -5.6594905811920060e-05 2.5785090896900515e-03 0.0000000000000000e+00  -4.2937203555871532e-05 2.6530310222323489e-03 0.0000000000000000e+00  -3.1590655815931421e-05 2.7269983577282580e-03 0.0000000000000000e+00  -2.1983244305551744e-05 2.8029431698594035e-03 0.0000000000000000e+00  -1.2762718941301238e-05 2.8763284589614847e-03 0.0000000000000000e+00  -2.9355297962071315e-06 2.9481933241085672e-03 0.0000000000000000e+00  7.4978608396135354e-06 3.0204263961053860e-03 0.0000000000000000e+00  1.8027685686083723e-05 3.0941614022942580e-03 0.0000000000000000e+00  2.8006418922626202e-05 3.1696700494437658e-03 0.0000000000000000e+00  3.7252269581989986e-05 3.2457898984542032e-03 0.0000000000000000e+00  -8.5925076359513874e-05 2.6169519107273258e-03 0.0000000000000000e+00  -8.6933113068127685e-05 2.5789502289889138e-03 0.0000000000000000e+00  -7.4144109325319292e-05 2.6939756223008462e-03 0.0000000000000000e+00  -6.5033999222224953e-05 2.7749196808530101e-03 0.0000000000000000e+00  -5.6321056960767176e-05 2.8490358741440620e-03 0.0000000000000000e+00  -4.6564364474402655e-05 2.9204436714030456e-03 0.0000000000000000e+00  -3.6123511412483033e-05 2.9928296325181019e-03 0.0000000000000000e+00  -2.5878798097987487e-05 3.0679191293109470e-03 0.0000000000000000e+00  -1.6821217725649501e-05 3.1461392132787944e-03 0.0000000000000000e+00  -8.9414962051944529e-06 3.2251241049624417e-03 0.0000000000000000e+00  -1.8490432057581056e-06 3.3036706080016047e-03 0.0000000000000000e+00  -1.2047689230608682e-04 2.6181012318127290e-03 0.0000000000000000e+00  -1.2085206120624563e-04 2.5791166490330272e-03 0.0000000000000000e+00  -1.2071892503192467e-04 2.6592914403687873e-03 0.0000000000000000e+00  -1.1107432418393777e-04 2.7492986038472988e-03 0.0000000000000000e+00  -1.0208700459992512e-04 2.8226063747403044e-03 0.0000000000000000e+00  -9.1643206512400039e-05 2.8923215006859786e-03 0.0000000000000000e+00  -8.1015407456934278e-05 2.9645370606573712e-03 0.0000000000000000e+00  -7.1451453668674653e-05 3.0413376823196954e-03 0.0000000000000000e+00  -6.4279352944432007e-05 3.1234690209668106e-03 0.0000000000000000e+00  -5.8821690708526498e-05 3.2059432133102858e-03 0.0000000000000000e+00  -5.4344585882853741e-05 3.2876950173695266e-03 0.0000000000000000e+00  -5.0253399566789603e-05 3.3675817379131400e-03 0.0000000000000000e+00  -1.5990903121546361e-04 2.6189909593741950e-03 0.0000000000000000e+00  -1.6037815177017653e-04 2.5779208705778199e-03 0.0000000000000000e+00  -1.5918322847091943e-04 2.6627349069655876e-03 0.0000000000000000e+00  -1.5874120461640179e-04 2.7286974105000961e-03 0.0000000000000000e+00  -1.4828194932212021e-04 2.7965607373539501e-03 0.0000000000000000e+00  -1.3560555320565149e-04 2.8630939389455716e-03 0.0000000000000000e+00  -1.2491061685747335e-04 2.9353288212001197e-03 0.0000000000000000e+00  -1.1746372648551303e-04 3.0145319962137825e-03 0.0000000000000000e+00  -1.1436023708260284e-04 3.1026479254336868e-03 0.0000000000000000e+00  -1.1287839196066287e-04 3.1890317898010693e-03 0.0000000000000000e+00  -1.1201113989391714e-04 3.2744405253993603e-03 0.0000000000000000e+00  -1.1152160759598724e-04 3.3574573710153156e-03 0.0000000000000000e+00  -2.0286008859324368e-04 2.6190230632195870e-03 0.0000000000000000e+00  -2.0322265108831599e-04 2.5765829487730423e-03 0.0000000000000000e+00  -2.0238894110661954e-04 2.6634173035878996e-03 0.0000000000000000e+00  -2.0110759703765639e-04 2.7114135527187052e-03 0.0000000000000000e+00  -1.9326787222149734e-04 2.7676363520798344e-03 0.0000000000000000e+00  -1.7212892771993312e-04 2.8316798930387286e-03 0.0000000000000000e+00  -1.6294282007808165e-04 2.9056785202902311e-03 0.0000000000000000e+00  -1.6132739071297115e-04 2.9888608985221728e-03 0.0000000000000000e+00  -1.6854799902285848e-04 3.0856057814293738e-03 0.0000000000000000e+00  -1.7250358623504617e-04 3.1750267387755612e-03 0.0000000000000000e+00  -1.7533439985697167e-04 3.2639519921920952e-03 0.0000000000000000e+00  -1.7705033812035942e-04 3.3501075494679657e-03 0.0000000000000000e+00  -1.7715039979580830e-04 3.4301795083885316e-03 0.0000000000000000e+00  -2.4779078047919702e-04 2.6189812397384785e-03 0.0000000000000000e+00  -2.4672775504616326e-04 2.5763886715126538e-03 0.0000000000000000e+00  -2.4897875915190460e-04 2.6636531955995381e-03 0.0000000000000000e+00  -2.4976364759043724e-04 2.7119180852992306e-03 0.0000000000000000e+00  -2.4917847894092665e-04 2.7664304704650318e-03 0.0000000000000000e+00  -2.4699067764786593e-04 2.8309754327770485e-03 0.0000000000000000e+00  -2.4487616494908346e-04 2.9051874409274318e-03 0.0000000000000000e+00  -2.4340613896034247e-04 2.9864119171059992e-03 0.0000000000000000e+00  -2.4268914283504892e-04 3.0732265730559773e-03 0.0000000000000000e+00  -2.4277883155147823e-04 3.1640414225029066e-03 0.0000000000000000e+00  -2.4867133674761688e-04 3.2571539529018148e-03 0.0000000000000000e+00  -2.5487692492849866e-04 3.3464118089835890e-03 0.0000000000000000e+00  -2.5732624064741264e-04 3.4306423075855922e-03 0.0000000000000000e+00  -2.9280158557073673e-04 2.6198314518444980e-03 0.0000000000000000e+00  -2.9733686081142652e-04 2.6648100633137779e-03 0.0000000000000000e+00  -3.0286009147241938e-04 2.7133403888298874e-03 0.0000000000000000e+00  -3.0929458560135489e-04 2.7678623937990674e-03 0.0000000000000000e+00  -3.1598185247240995e-04 2.8317850363521781e-03 0.0000000000000000e+00  -3.2195550916704855e-04 2.9055584111836014e-03 0.0000000000000000e+00  -3.2693393883999089e-04 2.9867293813977095e-03 0.0000000000000000e+00  -3.3108961554209040e-04 3.0735326629142859e-03 0.0000000000000000e+00  -3.3444236553681241e-04 3.1643881688562898e-03 0.0000000000000000e+00  -3.3701364096536595e-04 3.2576868915581529e-03 0.0000000000000000e+00  -3.3885541858101094e-04 3.3468887576342090e-03 0.0000000000000000e+00  -3.3989467292387107e-04 3.4309415556296229e-03 0.0000000000000000e+00  -3.4009419118974490e-04 3.5127655647840574e-03 0.0000000000000000e+00  </DataArray> 
</PointData> 
</Piece>
</UnstructuredGrid>
</VTKFile>