<?xml version="1.0"?>
<VTKFile type="UnstructuredGrid"  version="0.1"  >
<UnstructuredGrid>
<Piece  NumberOfPoints="169" NumberOfCells="286">
<Points>
<DataArray  type="Float64"  NumberOfComponents="3"  format="ascii">2.973913043478261 0 0  3.006956521739131 0 0  3.006956521739131 0.03333333333333333 0  2.973913043478261 0.03333333333333333 0  3.04 0 0  3.04 0.03333333333333333 0  3.073043478260869 0 0  3.073043478260869 0.03333333333333333 0  3.106086956521739 0 0  3.106086956521739 0.03333333333333333 0  3.139130434782609 0 0  3.139130434782609 0.03333333333333333 0  3.172173913043478 0 0  3.172173913043478 0.03333333333333333 0  3.205217391304347 0 0  3.205217391304347 0.03333333333333333 0  3.238260869565217 0 0  3.238260869565217 0.03333333333333333 0  3.271304347826087 0.03333333333333333 0  3.006956521739131 0.06666666666666667 0  3.04 0.06666666666666667 0  3.073043478260869 0.06666666666666667 0  3.106086956521739 0.06666666666666667 0  3.139130434782609 0.06666666666666667 0  3.172173913043478 0.06666666666666667 0  3.205217391304347 0.06666666666666667 0  3.238260869565217 0.06666666666666667 0  3.271304347826087 0.06666666666666667 0  3.304347826086957 0.06666666666666667 0  3.04 0.1 0  3.073043478260869 0.1 0  3.106086956521739 0.1 0  3.139130434782609 0.1 0  3.172173913043478 0.1 0  3.205217391304347 0.1 0  3.238260869565217 0.1 0  3.271304347826087 0.1 0  3.304347826086957 0.1 0  3.337391304347826 0.1 0  3.073043478260869 0.1333333333333333 0  3.106086956521739 0.1333333333333333 0  3.139130434782609 0.1333333333333333 0  3.172173913043478 0.1333333333333333 0  3.205217391304347 0.1333333333333333 0  3.238260869565217 0.1333333333333333 0  3.271304347826087 0.1333333333333333 0  3.304347826086957 0.1333333333333333 0  3.337391304347826 0.1333333333333333 0  3.370434782608696 0.1333333333333333 0  3.106086956521739 0.1666666666666667 0  3.139130434782609 0.1666666666666667 0  3.172173913043478 0.1666666666666667 0  3.205217391304347 0.1666666666666667 0  3.238260869565217 0.1666666666666667 0  3.271304347826087 0.1666666666666667 0  3.304347826086957 0.1666666666666667 0  3.337391304347826 0.1666666666666667 0  3.370434782608696 0.1666666666666667 0  3.403478260869565 0.1666666666666667 0  3.139130434782609 0.2 0  3.172173913043478 0.2 0  3.205217391304347 0.2 0  3.238260869565217 0.2 0  3.271304347826087 0.2 0  3.304347826086957 0.2 0  3.337391304347826 0.2 0  3.370434782608696 0.2 0  3.403478260869565 0.2 0  3.436521739130435 0.2 0  3.172173913043478 0.2333333333333333 0  3.205217391304347 0.2333333333333333 0  3.238260869565217 0.2333333333333333 0  3.271304347826087 0.2333333333333333 0  3.304347826086957 0.2333333333333333 0  3.337391304347826 0.2333333333333333 0  3.370434782608696 0.2333333333333333 0  3.403478260869565 0.2333333333333333 0  3.436521739130435 0.2333333333333333 0  3.469565217391304 0.2333333333333333 0  3.205217391304347 0.2666666666666667 0  3.238260869565217 0.2666666666666667 0  3.271304347826087 0.2666666666666667 0  3.304347826086957 0.2666666666666667 0  3.337391304347826 0.2666666666666667 0  3.370434782608696 0.2666666666666667 0  3.403478260869565 0.2666666666666667 0  3.436521739130435 0.2666666666666667 0  3.469565217391304 0.2666666666666667 0  3.502608695652174 0.2666666666666667 0  3.238260869565217 0.3 0  3.271304347826087 0.3 0  3.304347826086957 0.3 0  3.337391304347826 0.3 0  3.370434782608696 0.3 0  3.403478260869565 0.3 0  3.436521739130435 0.3 0  3.469565217391304 0.3 0  3.502608695652174 0.3 0  3.535652173913043 0.3 0  3.271304347826087 0.3333333333333333 0  3.304347826086957 0.3333333333333333 0  3.337391304347826 0.3333333333333333 0  3.370434782608696 0.3333333333333333 0  3.403478260869565 0.3333333333333333 0  3.436521739130435 0.3333333333333333 0  3.469565217391304 0.3333333333333333 0  3.502608695652174 0.3333333333333333 0  3.535652173913043 0.3333333333333333 0  3.568695652173913 0.3333333333333333 0  3.304347826086957 0.3666666666666666 0  3.271304347826087 0.3666666666666666 0  3.337391304347826 0.3666666666666666 0  3.370434782608696 0.3666666666666666 0  3.403478260869565 0.3666666666666666 0  3.436521739130435 0.3666666666666666 0  3.469565217391304 0.3666666666666666 0  3.502608695652174 0.3666666666666666 0  3.535652173913043 0.3666666666666666 0  3.568695652173913 0.3666666666666666 0  3.601739130434782 0.3666666666666666 0  3.304347826086957 0.4 0  3.337391304347826 0.4 0  3.370434782608696 0.4 0  3.403478260869565 0.4 0  3.436521739130435 0.4 0  3.469565217391304 0.4 0  3.502608695652174 0.4 0  3.535652173913043 0.4 0  3.568695652173913 0.4 0  3.601739130434782 0.4 0  3.634782608695652 0.4 0  3.337391304347826 0.4333333333333333 0  3.304347826086957 0.4333333333333333 0  3.370434782608696 0.4333333333333333 0  3.403478260869565 0.4333333333333333 0  3.436521739130435 0.4333333333333333 0  3.469565217391304 0.4333333333333333 0  3.502608695652174 0.4333333333333333 0  3.535652173913043 0.4333333333333333 0  3.568695652173913 0.4333333333333333 0  3.601739130434782 0.4333333333333333 0  3.634782608695652 0.4333333333333333 0  3.667826086956521 0.4333333333333333 0  3.337391304347826 0.4666666666666667 0  3.304347826086957 0.4666666666666667 0  3.370434782608696 0.4666666666666667 0  3.403478260869565 0.4666666666666667 0  3.436521739130435 0.4666666666666667 0  3.469565217391304 0.4666666666666667 0  3.502608695652174 0.4666666666666667 0  3.535652173913043 0.4666666666666667 0  3.568695652173913 0.4666666666666667 0  3.601739130434782 0.4666666666666667 0  3.634782608695652 0.4666666666666667 0  3.667826086956521 0.4666666666666667 0  3.700869565217391 0.4666666666666667 0  3.337391304347826 0.5 0  3.370434782608696 0.5 0  3.403478260869565 0.5 0  3.436521739130435 0.5 0  3.469565217391304 0.5 0  3.502608695652174 0.5 0  3.535652173913043 0.5 0  3.568695652173913 0.5 0  3.601739130434782 0.5 0  3.634782608695652 0.5 0  3.667826086956521 0.5 0  3.700869565217391 0.5 0  3.733913043478261 0.5 0  </DataArray>
</Points>
<Cells>
<DataArray  type="UInt32"  Name="connectivity"  format="ascii">0 1 2  0 3 2  1 4 5  1 2 5  4 6 7  4 5 7  6 8 9  6 7 9  8 10 11  8 9 11  10 12 13  10 11 13  12 14 15  12 13 15  14 16 17  14 15 17  16 17 18  3 2 19  2 5 20  2 19 20  5 7 21  5 20 21  7 9 22  7 21 22  9 11 23  9 22 23  11 13 24  11 23 24  13 15 25  13 24 25  15 17 26  15 25 26  17 18 27  17 26 27  18 27 28  19 20 29  20 21 30  20 29 30  21 22 31  21 30 31  22 23 32  22 31 32  23 24 33  23 32 33  24 25 34  24 33 34  25 26 35  25 34 35  26 27 36  26 35 36  27 28 37  27 36 37  28 37 38  29 30 39  30 31 40  30 39 40  31 32 41  31 40 41  32 33 42  32 41 42  33 34 43  33 42 43  34 35 44  34 43 44  35 36 45  35 44 45  36 37 46  36 45 46  37 38 47  37 46 47  38 47 48  39 40 49  40 41 50  40 49 50  41 42 51  41 50 51  42 43 52  42 51 52  43 44 53  43 52 53  44 45 54  44 53 54  45 46 55  45 54 55  46 47 56  46 55 56  47 48 57  47 56 57  48 57 58  49 50 59  50 51 60  50 59 60  51 52 61  51 60 61  52 53 62  52 61 62  53 54 63  53 62 63  54 55 64  54 63 64  55 56 65  55 64 65  56 57 66  56 65 66  57 58 67  57 66 67  58 67 68  59 60 69  60 61 70  60 69 70  61 62 71  61 70 71  62 63 72  62 71 72  63 64 73  63 72 73  64 65 74  64 73 74  65 66 75  65 74 75  66 67 76  66 75 76  67 68 77  67 76 77  68 77 78  69 70 79  70 71 80  70 79 80  71 72 81  71 80 81  72 73 82  72 81 82  73 74 83  73 82 83  74 75 84  74 83 84  75 76 85  75 84 85  76 77 86  76 85 86  77 78 87  77 86 87  78 87 88  79 80 89  80 81 90  80 89 90  81 82 91  81 90 91  82 83 92  82 91 92  83 84 93  83 92 93  84 85 94  84 93 94  85 86 95  85 94 95  86 87 96  86 95 96  87 88 97  87 96 97  88 97 98  89 90 99  90 91 100  90 99 100  91 92 101  91 100 101  92 93 102  92 101 102  93 94 103  93 102 103  94 95 104  94 103 104  95 96 105  95 104 105  96 97 106  96 105 106  97 98 107  97 106 107  98 107 108  99 100 109  99 110 109  100 101 111  100 109 111  101 102 112  101 111 112  102 103 113  102 112 113  103 104 114  103 113 114  104 105 115  104 114 115  105 106 116  105 115 116  106 107 117  106 116 117  107 108 118  107 117 118  108 118 119  110 109 120  109 111 121  109 120 121  111 112 122  111 121 122  112 113 123  112 122 123  113 114 124  113 123 124  114 115 125  114 124 125  115 116 126  115 125 126  116 117 127  116 126 127  117 118 128  117 127 128  118 119 129  118 128 129  119 129 130  120 121 131  120 132 131  121 122 133  121 131 133  122 123 134  122 133 134  123 124 135  123 134 135  124 125 136  124 135 136  125 126 137  125 136 137  126 127 138  126 137 138  127 128 139  127 138 139  128 129 140  128 139 140  129 130 141  129 140 141  130 141 142  132 131 143  132 144 143  131 133 145  131 143 145  133 134 146  133 145 146  134 135 147  134 146 147  135 136 148  135 147 148  136 137 149  136 148 149  137 138 150  137 149 150  138 139 151  138 150 151  139 140 152  139 151 152  140 141 153  140 152 153  141 142 154  141 153 154  142 154 155  144 143 156  143 145 157  143 156 157  145 146 158  145 157 158  146 147 159  146 158 159  147 148 160  147 159 160  148 149 161  148 160 161  149 150 162  149 161 162  150 151 163  150 162 163  151 152 164  151 163 164  152 153 165  152 164 165  153 154 166  153 165 166  154 155 167  154 166 167  155 167 168  </DataArray>
<DataArray  type="UInt32"  Name="offsets"  format="ascii">3 6 9 12 15 18 21 24 27 30 33 36 39 42 45 48 51 54 57 60 63 66 69 72 75 78 81 84 87 90 93 96 99 102 105 108 111 114 117 120 123 126 129 132 135 138 141 144 147 150 153 156 159 162 165 168 171 174 177 180 183 186 189 192 195 198 201 204 207 210 213 216 219 222 225 228 231 234 237 240 243 246 249 252 255 258 261 264 267 270 273 276 279 282 285 288 291 294 297 300 303 306 309 312 315 318 321 324 327 330 333 336 339 342 345 348 351 354 357 360 363 366 369 372 375 378 381 384 387 390 393 396 399 402 405 408 411 414 417 420 423 426 429 432 435 438 441 444 447 450 453 456 459 462 465 468 471 474 477 480 483 486 489 492 495 498 501 504 507 510 513 516 519 522 525 528 531 534 537 540 543 546 549 552 555 558 561 564 567 570 573 576 579 582 585 588 591 594 597 600 603 606 609 612 615 618 621 624 627 630 633 636 639 642 645 648 651 654 657 660 663 666 669 672 675 678 681 684 687 690 693 696 699 702 705 708 711 714 717 720 723 726 729 732 735 738 741 744 747 750 753 756 759 762 765 768 771 774 777 780 783 786 789 792 795 798 801 804 807 810 813 816 819 822 825 828 831 834 837 840 843 846 849 852 855 858 </DataArray>
<DataArray  type="UInt8"  Name="types"  format="ascii">5 5 5 5 5 5 5 5 5 5 5 5 5 5 5 5 5 5 5 5 5 5 5 5 5 5 5 5 5 5 5 5 5 5 5 5 5 5 5 5 5 5 5 5 5 5 5 5 5 5 5 5 5 5 5 5 5 5 5 5 5 5 5 5 5 5 5 5 5 5 5 5 5 5 5 5 5 5 5 5 5 5 5 5 5 5 5 5 5 5 5 5 5 5 5 5 5 5 5 5 5 5 5 5 5 5 5 5 5 5 5 5 5 5 5 5 5 5 5 5 5 5 5 5 5 5 5 5 5 5 5 5 5 5 5 5 5 5 5 5 5 5 5 5 5 5 5 5 5 5 5 5 5 5 5 5 5 5 5 5 5 5 5 5 5 5 5 5 5 5 5 5 5 5 5 5 5 5 5 5 5 5 5 5 5 5 5 5 5 5 5 5 5 5 5 5 5 5 5 5 5 5 5 5 5 5 5 5 5 5 5 5 5 5 5 5 5 5 5 5 5 5 5 5 5 5 5 5 5 5 5 5 5 5 5 5 5 5 5 5 5 5 5 5 5 5 5 5 5 5 5 5 5 5 5 5 5 5 5 5 5 5 5 5 5 5 5 5 5 5 5 5 5 5 5 5 5 5 5 5 5 5 5 5 5 5 </DataArray>
</Cells>
<CellData  Scalars="sigma_m"> 
<DataArray  type="Float64"  Name="sigma_m"  format="ascii">3.8553313168688063e+06   1.9154132114134133e+06   3.6131765209185150e+06   1.6892636656591112e+06   3.6071004181302479e+06   1.6086316455122135e+06   3.3350884828378884e+06   1.8033843993252765e+06   2.6691340646880339e+06   1.9886648063827548e+06   1.7261198441152272e+06   1.9159034248816187e+06   1.4194725167576896e+06   1.9980118341896636e+06   0.0000000000000000e+00   0.0000000000000000e+00   0.0000000000000000e+00   1.6453781002459198e+06   1.3391834739244436e+06   2.6455405104663252e+05   1.3984454173566343e+06   6.0972332837906445e+05   1.2474876793220169e+06   1.7354640712654334e+06   1.1655912255918905e+06   2.1082864580462417e+06   1.2033580202535307e+06   1.6206081004923859e+06   1.4549360587854560e+06   1.8180228298271957e+06   3.8354395548447504e-03   3.1597060880145924e+06   0.0000000000000000e+00   0.0000000000000000e+00   0.0000000000000000e+00   2.7211139733464731e+05   1.3563654779974706e+06   1.1786431245396221e+06   2.5459933678561654e+06   3.5081052901639170e+06   9.8769815606494632e+05   5.9199915014428403e+06   6.1133450403216376e+05   2.8511835903652976e+06   5.9708547180615645e+05   7.3732309671445005e+05   1.3397876431555278e+06   1.3963682413356709e+06   7.2992638825007016e+05   4.0199598787176879e+06   0.0000000000000000e+00   6.0356492492868704e-04   0.0000000000000000e+00   1.3443726337710193e+06   4.0533201312762653e+06   1.1851683935899537e+06   0.0000000000000000e+00   0.0000000000000000e+00   0.0000000000000000e+00   0.0000000000000000e+00   1.2182475891701625e-06   0.0000000000000000e+00   1.5665887532682286e+06   2.3679720605921276e-06   1.3703596342669413e+06   1.1662154186832937e+06   3.3092733146536592e+06   4.8683658031598795e+06   0.0000000000000000e+00   1.6248318255425679e+03   0.0000000000000000e+00   0.0000000000000000e+00   0.0000000000000000e+00   0.0000000000000000e+00   0.0000000000000000e+00   0.0000000000000000e+00   0.0000000000000000e+00   0.0000000000000000e+00   0.0000000000000000e+00   0.0000000000000000e+00   2.0237979243155357e-02   0.0000000000000000e+00   1.9429524120597776e+06   6.1549438474078379e+03   8.5506997762134094e+06   9.1443210232775323e+06   0.0000000000000000e+00   1.7391300824352585e+07   0.0000000000000000e+00   0.0000000000000000e+00   0.0000000000000000e+00   0.0000000000000000e+00   0.0000000000000000e+00   0.0000000000000000e+00   0.0000000000000000e+00   0.0000000000000000e+00   0.0000000000000000e+00   0.0000000000000000e+00   0.0000000000000000e+00   0.0000000000000000e+00   1.2876329499790356e+07   0.0000000000000000e+00   7.9884603879633313e+06   8.0229353505990515e+06   4.6964705321605368e-07   2.4676964171930626e+07   0.0000000000000000e+00   0.0000000000000000e+00   0.0000000000000000e+00   0.0000000000000000e+00   0.0000000000000000e+00   0.0000000000000000e+00   0.0000000000000000e+00   0.0000000000000000e+00   0.0000000000000000e+00   0.0000000000000000e+00   0.0000000000000000e+00   0.0000000000000000e+00   1.1046496269260102e+06   0.0000000000000000e+00   3.8729711657039281e+06   3.0572587738951822e+06   5.5257632390735252e+05   2.6275357596851904e+06   6.8747701728995476e-03   0.0000000000000000e+00   0.0000000000000000e+00   0.0000000000000000e+00   0.0000000000000000e+00   0.0000000000000000e+00   0.0000000000000000e+00   0.0000000000000000e+00   0.0000000000000000e+00   0.0000000000000000e+00   0.0000000000000000e+00   0.0000000000000000e+00   1.1476621072886095e-01   0.0000000000000000e+00   2.8976038176466175e+06   1.5143050249072034e+06   2.3813078478813274e+06   2.9132715698461588e+06   9.1077372067786183e+05   0.0000000000000000e+00   0.0000000000000000e+00   0.0000000000000000e+00   0.0000000000000000e+00   0.0000000000000000e+00   0.0000000000000000e+00   0.0000000000000000e+00   0.0000000000000000e+00   0.0000000000000000e+00   0.0000000000000000e+00   0.0000000000000000e+00   1.8986117468243826e-09   0.0000000000000000e+00   6.3439437508333717e+06   3.0931642977224136e+00   6.8891587811452765e+06   7.0611616246739207e+06   8.2484446253032265e+06   0.0000000000000000e+00   0.0000000000000000e+00   0.0000000000000000e+00   0.0000000000000000e+00   0.0000000000000000e+00   0.0000000000000000e+00   0.0000000000000000e+00   0.0000000000000000e+00   0.0000000000000000e+00   0.0000000000000000e+00   0.0000000000000000e+00   0.0000000000000000e+00   0.0000000000000000e+00   1.5831253410528077e+07   0.0000000000000000e+00   4.4025498736640858e+06   3.9538654012778294e+06   1.4041208419712170e+06   0.0000000000000000e+00   0.0000000000000000e+00   0.0000000000000000e+00   0.0000000000000000e+00   0.0000000000000000e+00   0.0000000000000000e+00   0.0000000000000000e+00   0.0000000000000000e+00   0.0000000000000000e+00   0.0000000000000000e+00   0.0000000000000000e+00   0.0000000000000000e+00   0.0000000000000000e+00   0.0000000000000000e+00   2.5237077139154018e+05   0.0000000000000000e+00   5.1140706900509614e+06   3.6235841678891135e+06   1.3288336760363919e+06   0.0000000000000000e+00   0.0000000000000000e+00   0.0000000000000000e+00   0.0000000000000000e+00   0.0000000000000000e+00   0.0000000000000000e+00   0.0000000000000000e+00   0.0000000000000000e+00   0.0000000000000000e+00   0.0000000000000000e+00   0.0000000000000000e+00   0.0000000000000000e+00   0.0000000000000000e+00   0.0000000000000000e+00   0.0000000000000000e+00   1.0931017340789599e-06   0.0000000000000000e+00   4.7213314607886616e+06   8.3036836623581694e+03   1.3231010112061265e+06   0.0000000000000000e+00   0.0000000000000000e+00   0.0000000000000000e+00   0.0000000000000000e+00   0.0000000000000000e+00   0.0000000000000000e+00   0.0000000000000000e+00   0.0000000000000000e+00   0.0000000000000000e+00   0.0000000000000000e+00   0.0000000000000000e+00   0.0000000000000000e+00   0.0000000000000000e+00   0.0000000000000000e+00   0.0000000000000000e+00   0.0000000000000000e+00   3.1516271801037997e-03   0.0000000000000000e+00   2.8568691190688759e+06   3.0992430342289102e+06   2.3166405255580135e+06   0.0000000000000000e+00   0.0000000000000000e+00   0.0000000000000000e+00   0.0000000000000000e+00   0.0000000000000000e+00   0.0000000000000000e+00   0.0000000000000000e+00   0.0000000000000000e+00   0.0000000000000000e+00   0.0000000000000000e+00   0.0000000000000000e+00   0.0000000000000000e+00   0.0000000000000000e+00   0.0000000000000000e+00   0.0000000000000000e+00   6.2497602885752347e-09   1.4166521244833607e+06   1.2454604129000739e+06   3.3884530502968293e+05   8.3499495467774838e+05   1.0749808126012022e+06   1.4020796855214753e+06   2.8660159948923443e+06   9.2480490803197101e+06   8.8409659123138431e+06   1.3118850098912206e+07   8.4530465218702666e+06   1.3190261705027902e+07   8.0866849440368442e+06   1.3261751690915108e+07   7.7430093219996942e+06   1.3333266172668857e+07   7.3614405566406185e+06   1.3401907178187447e+07   5.4631422972896844e+06   1.3291953271187058e+07   2.0568029945668920e+06   4.4230621154624354e+06   1.4091984208563825e+06   4.1136006459872425e+06   1.0153211187299017e+06   3.8125668812120291e+06   1.2544512441706716e+06   3.3119874979852433e+06   1.2723417987767938e+06   3.0409175684308112e+06   2.7282719456563909e+06   </DataArray> 
</CellData> 
</Piece>
</UnstructuredGrid>
</VTKFile>