<?xml version="1.0"?>
<VTKFile type="UnstructuredGrid"  version="0.1"  >
<UnstructuredGrid>
<Piece  NumberOfPoints="7161" NumberOfCells="13800">
<Points>
<DataArray  type="Float64"  NumberOfComponents="3"  format="ascii">0 0 0  0.01652173913043478 0 0  0.03304347826086956 0 0  0.04956521739130434 0 0  0.06608695652173913 0 0  0.08260869565217391 0 0  0.09913043478260869 0 0  0.1156521739130435 0 0  0.1321739130434783 0 0  0.148695652173913 0 0  0.1652173913043478 0 0  0.1817391304347826 0 0  0.1982608695652174 0 0  0.2147826086956522 0 0  0.2313043478260869 0 0  0.2478260869565218 0 0  0.2643478260869565 0 0  0.2808695652173913 0 0  0.2973913043478261 0 0  0.3139130434782609 0 0  0.3304347826086956 0 0  0.3469565217391304 0 0  0.3634782608695652 0 0  0.3799999999999999 0 0  0.3965217391304348 0 0  0.4130434782608696 0 0  0.4295652173913043 0 0  0.4460869565217391 0 0  0.4626086956521739 0 0  0.4791304347826086 0 0  0.4956521739130435 0 0  0.5121739130434783 0 0  0.528695652173913 0 0  0.5452173913043478 0 0  0.5617391304347825 0 0  0.5782608695652174 0 0  0.5947826086956521 0 0  0.6113043478260869 0 0  0.6278260869565218 0 0  0.6443478260869565 0 0  0.6608695652173913 0 0  0.677391304347826 0 0  0.6939130434782609 0 0  0.7104347826086956 0 0  0.7269565217391304 0 0  0.7434782608695653 0 0  0.7599999999999999 0 0  0.7765217391304348 0 0  0.7930434782608695 0 0  0.8095652173913043 0 0  0.8260869565217391 0 0  0.8426086956521739 0 0  0.8591304347826086 0 0  0.8756521739130434 0 0  0.8921739130434783 0 0  0.908695652173913 0 0  0.9252173913043478 0 0  0.9417391304347826 0 0  0.9582608695652173 0 0  0.9747826086956521 0 0  0.991304347826087 0 0  1.007826086956522 0 0  1.024347826086957 0 0  1.040869565217391 0 0  1.057391304347826 0 0  1.073913043478261 0 0  1.090434782608696 0 0  1.10695652173913 0 0  1.123478260869565 0 0  1.14 0 0  1.156521739130435 0 0  1.17304347826087 0 0  1.189565217391304 0 0  1.206086956521739 0 0  1.222608695652174 0 0  1.239130434782609 0 0  1.255652173913044 0 0  1.272173913043478 0 0  1.288695652173913 0 0  1.305217391304348 0 0  1.321739130434783 0 0  1.338260869565217 0 0  1.354782608695652 0 0  1.371304347826087 0 0  1.387826086956522 0 0  1.404347826086957 0 0  1.420869565217391 0 0  1.437391304347826 0 0  1.453913043478261 0 0  1.470434782608696 0 0  1.486956521739131 0 0  1.503478260869565 0 0  1.52 0 0  1.536521739130435 0 0  1.55304347826087 0 0  1.569565217391304 0 0  1.586086956521739 0 0  1.602608695652174 0 0  1.619130434782609 0 0  1.635652173913043 0 0  1.652173913043478 0 0  1.668695652173913 0 0  1.685217391304348 0 0  1.701739130434782 0 0  1.718260869565217 0 0  1.734782608695652 0 0  1.751304347826087 0 0  1.767826086956522 0 0  1.784347826086957 0 0  1.800869565217391 0 0  1.817391304347826 0 0  1.833913043478261 0 0  1.850434782608696 0 0  1.86695652173913 0 0  1.883478260869565 0 0  1.9 0 0  1.916521739130435 0 0  1.933043478260869 0 0  1.949565217391304 0 0  1.966086956521739 0 0  1.982608695652174 0 0  1.999130434782608 0 0  2.015652173913043 0 0  2.032173913043478 0 0  2.048695652173913 0 0  2.065217391304348 0 0  2.081739130434782 0 0  2.098260869565217 0 0  2.114782608695652 0 0  2.131304347826087 0 0  2.147826086956522 0 0  2.164347826086956 0 0  2.180869565217391 0 0  2.197391304347826 0 0  2.213913043478261 0 0  2.230434782608695 0 0  2.24695652173913 0 0  2.263478260869565 0 0  2.28 0 0  2.296521739130434 0 0  2.31304347826087 0 0  2.329565217391304 0 0  2.346086956521739 0 0  2.362608695652174 0 0  2.379130434782609 0 0  2.395652173913044 0 0  2.412173913043478 0 0  2.428695652173913 0 0  2.445217391304348 0 0  2.461739130434782 0 0  2.478260869565217 0 0  2.494782608695652 0 0  2.511304347826087 0 0  2.527826086956522 0 0  2.544347826086956 0 0  2.560869565217391 0 0  2.577391304347826 0 0  2.593913043478261 0 0  2.610434782608696 0 0  2.62695652173913 0 0  2.643478260869565 0 0  2.66 0 0  2.676521739130435 0 0  2.693043478260869 0 0  2.709565217391304 0 0  2.726086956521739 0 0  2.742608695652174 0 0  2.759130434782609 0 0  2.775652173913044 0 0  2.792173913043478 0 0  2.808695652173913 0 0  2.825217391304347 0 0  2.841739130434783 0 0  2.858260869565217 0 0  2.874782608695652 0 0  2.891304347826087 0 0  2.907826086956522 0 0  2.924347826086957 0 0  2.940869565217391 0 0  2.957391304347826 0 0  2.973913043478261 0 0  2.990434782608696 0 0  3.006956521739131 0 0  3.023478260869565 0 0  3.04 0 0  3.056521739130435 0 0  3.073043478260869 0 0  3.089565217391304 0 0  3.106086956521739 0 0  3.122608695652174 0 0  3.139130434782609 0 0  3.155652173913043 0 0  3.172173913043478 0 0  3.188695652173913 0 0  3.205217391304347 0 0  3.221739130434782 0 0  3.238260869565217 0 0  3.254782608695652 0 0  3.271304347826087 0 0  3.287826086956521 0 0  3.304347826086957 0 0  3.320869565217391 0 0  3.337391304347826 0 0  3.353913043478261 0 0  3.370434782608696 0 0  3.386956521739131 0 0  3.403478260869565 0 0  3.419999999999999 0 0  3.436521739130435 0 0  3.453043478260869 0 0  3.469565217391304 0 0  3.486086956521739 0 0  3.502608695652174 0 0  3.519130434782609 0 0  3.535652173913043 0 0  3.552173913043478 0 0  3.568695652173913 0 0  3.585217391304347 0 0  3.601739130434782 0 0  3.618260869565217 0 0  3.634782608695652 0 0  3.651304347826087 0 0  3.667826086956521 0 0  3.684347826086956 0 0  3.700869565217391 0 0  3.717391304347826 0 0  3.733913043478261 0 0  3.750434782608695 0 0  3.766956521739131 0 0  3.783478260869565 0 0  3.8 0 0  0 0.01666666666666667 0  0.01652173913043478 0.01666666666666667 0  0.03304347826086956 0.01666666666666667 0  0.04956521739130434 0.01666666666666667 0  0.06608695652173913 0.01666666666666667 0  0.08260869565217391 0.01666666666666667 0  0.09913043478260869 0.01666666666666667 0  0.1156521739130435 0.01666666666666667 0  0.1321739130434783 0.01666666666666667 0  0.148695652173913 0.01666666666666667 0  0.1652173913043478 0.01666666666666667 0  0.1817391304347826 0.01666666666666667 0  0.1982608695652174 0.01666666666666667 0  0.2147826086956522 0.01666666666666667 0  0.2313043478260869 0.01666666666666667 0  0.2478260869565218 0.01666666666666667 0  0.2643478260869565 0.01666666666666667 0  0.2808695652173913 0.01666666666666667 0  0.2973913043478261 0.01666666666666667 0  0.3139130434782609 0.01666666666666667 0  0.3304347826086956 0.01666666666666667 0  0.3469565217391304 0.01666666666666667 0  0.3634782608695652 0.01666666666666667 0  0.3799999999999999 0.01666666666666667 0  0.3965217391304348 0.01666666666666667 0  0.4130434782608696 0.01666666666666667 0  0.4295652173913043 0.01666666666666667 0  0.4460869565217391 0.01666666666666667 0  0.4626086956521739 0.01666666666666667 0  0.4791304347826086 0.01666666666666667 0  0.4956521739130435 0.01666666666666667 0  0.5121739130434783 0.01666666666666667 0  0.528695652173913 0.01666666666666667 0  0.5452173913043478 0.01666666666666667 0  0.5617391304347825 0.01666666666666667 0  0.5782608695652174 0.01666666666666667 0  0.5947826086956521 0.01666666666666667 0  0.6113043478260869 0.01666666666666667 0  0.6278260869565218 0.01666666666666667 0  0.6443478260869565 0.01666666666666667 0  0.6608695652173913 0.01666666666666667 0  0.677391304347826 0.01666666666666667 0  0.6939130434782609 0.01666666666666667 0  0.7104347826086956 0.01666666666666667 0  0.7269565217391304 0.01666666666666667 0  0.7434782608695653 0.01666666666666667 0  0.7599999999999999 0.01666666666666667 0  0.7765217391304348 0.01666666666666667 0  0.7930434782608695 0.01666666666666667 0  0.8095652173913043 0.01666666666666667 0  0.8260869565217391 0.01666666666666667 0  0.8426086956521739 0.01666666666666667 0  0.8591304347826086 0.01666666666666667 0  0.8756521739130434 0.01666666666666667 0  0.8921739130434783 0.01666666666666667 0  0.908695652173913 0.01666666666666667 0  0.9252173913043478 0.01666666666666667 0  0.9417391304347826 0.01666666666666667 0  0.9582608695652173 0.01666666666666667 0  0.9747826086956521 0.01666666666666667 0  0.991304347826087 0.01666666666666667 0  1.007826086956522 0.01666666666666667 0  1.024347826086957 0.01666666666666667 0  1.040869565217391 0.01666666666666667 0  1.057391304347826 0.01666666666666667 0  1.073913043478261 0.01666666666666667 0  1.090434782608696 0.01666666666666667 0  1.10695652173913 0.01666666666666667 0  1.123478260869565 0.01666666666666667 0  1.14 0.01666666666666667 0  1.156521739130435 0.01666666666666667 0  1.17304347826087 0.01666666666666667 0  1.189565217391304 0.01666666666666667 0  1.206086956521739 0.01666666666666667 0  1.222608695652174 0.01666666666666667 0  1.239130434782609 0.01666666666666667 0  1.255652173913044 0.01666666666666667 0  1.272173913043478 0.01666666666666667 0  1.288695652173913 0.01666666666666667 0  1.305217391304348 0.01666666666666667 0  1.321739130434783 0.01666666666666667 0  1.338260869565217 0.01666666666666667 0  1.354782608695652 0.01666666666666667 0  1.371304347826087 0.01666666666666667 0  1.387826086956522 0.01666666666666667 0  1.404347826086957 0.01666666666666667 0  1.420869565217391 0.01666666666666667 0  1.437391304347826 0.01666666666666667 0  1.453913043478261 0.01666666666666667 0  1.470434782608696 0.01666666666666667 0  1.486956521739131 0.01666666666666667 0  1.503478260869565 0.01666666666666667 0  1.52 0.01666666666666667 0  1.536521739130435 0.01666666666666667 0  1.55304347826087 0.01666666666666667 0  1.569565217391304 0.01666666666666667 0  1.586086956521739 0.01666666666666667 0  1.602608695652174 0.01666666666666667 0  1.619130434782609 0.01666666666666667 0  1.635652173913043 0.01666666666666667 0  1.652173913043478 0.01666666666666667 0  1.668695652173913 0.01666666666666667 0  1.685217391304348 0.01666666666666667 0  1.701739130434782 0.01666666666666667 0  1.718260869565217 0.01666666666666667 0  1.734782608695652 0.01666666666666667 0  1.751304347826087 0.01666666666666667 0  1.767826086956522 0.01666666666666667 0  1.784347826086957 0.01666666666666667 0  1.800869565217391 0.0166666666666666
[...]
<PointData  Scalars="rho_bar"> 
<DataArray  type="Float64"  Name="rho_bar"  format="ascii">1.0002028708869255e+00  1.0008142017871431e+00  1.0016511735920091e+00  1.0014916011934649e+00  9.9823941293285134e-01  9.9344271353731206e-01  9.9723621763321413e-01  1.0151268024310911e+00  1.0242516629133587e+00  1.0088306097516306e+00  9.9294746591846794e-01  9.9398452567582363e-01  1.0094974405967885e+00  1.0231602119983065e+00  1.0173314710441470e+00  1.0040704729126526e+00  9.9652972682534258e-01  9.9353233817746045e-01  9.9580343908778812e-01  9.9996189882725928e-01  1.0010602648893161e+00  9.9992314315586339e-01  9.9985695284927933e-01  1.0009200850404418e+00  9.9683189753026613e-01  1.0027819936968632e+00  1.0160679348584005e+00  9.9748048830876301e-01  9.6533604795316763e-01  9.5687856616148825e-01  9.6530903376368193e-01  9.7513523561261783e-01  9.8058808257937968e-01  9.8321910799761192e-01  9.8409700707415515e-01  9.8374785328724279e-01  9.8286415935746829e-01  9.8201315423041557e-01  9.8146651150988451e-01  9.8119041361780479e-01  9.8097721037359853e-01  9.8064723138583487e-01  9.8021103333898985e-01  9.7976453445800027e-01  9.7933758075753718e-01  9.7888767170952717e-01  9.7833153907834336e-01  9.7756500904728938e-01  9.7645332619200187e-01  9.7498807466764592e-01  9.7343998848235547e-01  9.7208635310016656e-01  9.7092313573365463e-01  9.6976683064423452e-01  9.6842277644480979e-01  9.6670289075312166e-01  9.6436662568565767e-01  9.6105790727788287e-01  9.5627404538951866e-01  9.4960966836704297e-01  9.4171443850389569e-01  9.3433045790937785e-01  9.2859036146483942e-01  9.2442293249675789e-01  9.2138719146687553e-01  9.1911099025650767e-01  9.1732608052869324e-01  9.1585504721715427e-01  9.1460775161628038e-01  9.1358941024250495e-01  9.1289770983505614e-01  9.1274931184440800e-01  9.1350865439431483e-01  9.1540860354893550e-01  9.1809501786139724e-01  9.2061140896064009e-01  9.2196010488710511e-01  9.2216126807289256e-01  9.2230363005509441e-01  9.2291415765194906e-01  9.2349105437608370e-01  9.2336969460344098e-01  9.2233133965279090e-01  9.2104197619092554e-01  9.2087191545627789e-01  9.2379386753138959e-01  9.3507070103881573e-01  9.6255295588328038e-01  1.0005190386937735e+00  1.0270393766493064e+00  9.8731183785652066e-01  9.4880011121720209e-01  9.9424056097293634e-01  1.0102945125144442e+00  9.9158991146384257e-01  1.0005955644922138e+00  1.0195189897539527e+00  1.0040747039150157e+00  9.2943396779841181e-01  9.3108547542728659e-01  1.0206265417121891e+00  1.0355833779858983e+00  9.5878703085430916e-01  9.6149703725625091e-01  1.0130387571661972e+00  9.9692112317565795e-01  1.0060848872117554e+00  1.0114159660544113e+00  9.3833360185975345e-01  9.4221189458606458e-01  1.0406708984240807e+00  1.0866228008901626e+00  1.0936668015309663e+00  1.0913978481861806e+00  1.0982804729128581e+00  1.1196765195308596e+00  1.1517552492967615e+00  1.1855836800753823e+00  1.2076132523107495e+00  1.2050531514114613e+00  1.1677424976704383e+00  1.0923864835659929e+00  9.9756325726473882e-01  9.0757655641439927e-01  8.3636960079283718e-01  8.0498932744275253e-01  8.3662916905297147e-01  9.3984034142263573e-01  1.0794808742098074e+00  1.1713128731013982e+00  1.1643533386214482e+00  1.1155441838177309e+00  1.0765183188104723e+00  1.0486339721513827e+00  1.0271023899188312e+00  1.0114756968609617e+00  1.0052112046838113e+00  1.0119903857093215e+00  1.0298391739556036e+00  1.0552962060061104e+00  1.0837484624336056e+00  1.0916118122392193e+00  1.0418285963728331e+00  9.4632118511544450e-01  9.2665000097053707e-01  9.6901817142303814e-01  9.7129027440235949e-01  9.3106631628361458e-01  9.1529628914307237e-01  1.0599073215175303e+00  1.2853605944254032e+00  3.6060470878670409e-01  -2.8007192588964273e-02  1.9858043953253435e-03  1.3548714325867805e-03  -9.9243601297429240e-04  6.4843680717618049e-02  6.2834029505302758e-01  1.1641299667218885e+00  1.1103921078989867e+00  1.0416883804953554e+00  1.0045178515783022e+00  9.7261713802082073e-01  9.5128896904368043e-01  9.3878010765665376e-01  9.3250175638304833e-01  9.3093222710430157e-01  9.3371931974944222e-01  9.4164972639581301e-01  9.5583812480593355e-01  9.7570965874794302e-01  9.9800357092605008e-01  1.0189377712620178e+00  1.0368425657982800e+00  1.0520687837681755e+00  1.0650525350559645e+00  1.0749904654166105e+00  1.0803144684385191e+00  1.0788574134695927e+00  1.0690539118875182e+00  1.0534789485729164e+00  1.0366337429063612e+00  1.0202850633628693e+00  1.0004012012155732e+00  9.5764344196216478e-01  9.3125288833965847e-01  9.7054556413191828e-01  1.0038567249029904e+00  1.0058141117192558e+00  9.7309301759719780e-01  1.0878081416072105e+00  -1.7571693768443533e-04  5.9979405072823226e-02  -2.6581650029886331e-02  -3.8725121717654888e-03  4.4761132419271514e-03  -4.8985758782714428e-04  -4.6259294449874544e-04  2.7266207088034555e-04  -6.8432777659942367e-05  -7.3680891749190214e-07  9.1331955214845437e-06  -4.9989926913472960e-06  1.7675432813907958e-06  -4.5513950169541556e-07  7.4189959389393819e-08  3.2593318857049669e-09  -9.0064487676761082e-09  4.8471749987624971e-09  -1.9503127052369976e-09  6.7666584998060460e-10  -2.1025598878318599e-10  5.8639631360276788e-11  -1.4320211213203650e-11  2.8255478910514428e-12  -3.0517872927603418e-13  -8.4463752055851952e-14  7.7400654361027746e-14  -3.6783078064665071e-14  1.4257506449307064e-14  -4.7353978416531535e-15  1.5069222546625165e-15  -3.4341969765280411e-16  8.8926245726709052e-17  -1.9826503624024837e-17  3.4985205036554230e-18  -2.6279351369662872e-19  -8.3029317706853981e-20  1.1091119716268701e-19  -1.6010670169971958e-20  3.9017374081186362e-20  1.0001485750519250e+00  9.9911286980502956e-01  9.9751750259131577e-01  9.9637607513846771e-01  9.9920382801208429e-01  1.0086107758096181e+00  1.0133232682535969e+00  9.9068332069000908e-01  9.5319233072418585e-01  9.6207396679281154e-01  1.0028345864266393e+00  1.0169152192357165e+00  9.9990826894630547e-01  9.6302656166378198e-01  9.5407809399243071e-01  9.8031206332823351e-01  1.0005458942717895e+00  1.0110635128467556e+00  1.0121728876056506e+00  1.0036696759413175e+00  9.9801277533546096e-01  9.9886390890291255e-01  1.0009080527128029e+00  9.9909947461254334e-01  9.9979584504830921e-01  1.0078574229315178e+00  9.7734667937150987e-01  9.7431826658863330e-01  1.0425380950207901e+00  1.0842725881265798e+00  1.0797637332785797e+00  1.0582941364093446e+00  1.0433440205800764e+00  1.0357086663802431e+00  1.0322869064052695e+00  1.0319348020478332e+00  1.0333375943434806e+00  1.0351860103780188e+00  1.0366056779619635e+00  1.0373893471100333e+00  1.0378137678018355e+00  1.0383318946258238e+00  1.0391283104306663e+00  1.0400286180471874e+00  1.0408992566902491e+00  1.0417575455323840e+00  1.0427403769204397e+00  1.0440339878660323e+00  1.0458736526860084e+00  1.0484846321880787e+00  1.0515989046266527e+00  1.0545378663725105e+00  1.0570149595634419e+00  1.0592819879912201e+00  1.0617370062704117e+00  1.0647516911054511e+00  1.0687361407726133e+00  1.0742738669459833e+00  1.0822210237287002e+00  1.0936099603607063e+00  1.1085504847613792e+00  1.1243147801953788e+00  1.1375126532434163e+00  1.1473009572461359e+00  1.1543912445600590e+00  1.1596173213106327e+00  1.1636169197683410e+00  1.1668318601909990e+00  1.1695312878970203e+00  1.1718015944596469e+00  1.1735354569834944e+00  1.1744340643669231e+00  1.1739122052246020e+00  1.1712334343733202e+00  1.1664285561643362e+00  1.1608949568106643e+00  1.1567925655170186e+00  1.1554384578642218e+00  1.1554166230330742e+00  1.1545927581588422e+00  1.1532129244823206e+00  1.1526049974056409e+00  1.1538040223271329e+00  1.1564359237465829e+00  1.1582917351151247e+00  1.1561215281253716e+00  1.1438889370602829e+00  1.1068173822205276e+00  1.0360348571866680e+00  9.6374424633425160e-01  9.5365261590169192e-01  1.0897513903210212e+00  1.0714762430618776e+00  9.6617284439924989e-01  1.0100265090853515e+00  1.0097586523210087e+00  9.8290019158891628e-01  9.5620768473665851e-01  1.0570915041915514e+00  1.1870193646739666e+00  1.0444285258944535e+00  9.0684478178470573e-01  9.8785271377942785e-01  1.1333716878766278e+00  9.9587601741367582e-01  9.8578405700965266e-01  1.0138899966789570e+00  9.6368663611162142e-01  1.0298557286424561e+00  1.1783130413266236e+00  1.0048923301485273e+00  8.5062862661645100e-01  7.9345825119056290e-01  7.9214048633241951e-01  7.8953003814196343e-01  7.5512821550080556e-01  6.8376614866071450e-01  5.8159708835195123e-01  4.5933866161135245e-01  3.3393035725356385e-01  2.1663777972050086e-01  1.1626392443131293e-01  4.4792687846263453e-02  2.9954109462094259e-03  -2.0624353718780325e-02  -3.0182284474022762e-02  -2.6955460680190470e-02  -3.9454440685556770e-03  5.9494714810692510e-02  2.0366948121377682e-01  4.3003308300612836e-01  6.4230284588956543e-01  7.7948863208962271e-01  8.6202849177973129e-01  9.1816954035832699e-01  9.5856524541170518e-01  9.8320901770993319e-01  9.8333527677703370e-01  9.5679060461677934e-01  9.1104892876539512e-01  8.4989635599915270e-01  7.9446144734219792e-01  8.2871306395362421e-01  1.0052826204731780e+00  1.1670541291104972e+00  1.0947809797748802e+00  1.0491050471920820e+00  1.0869448169522862e+00  1.1765036638647517e+00  1.0816542225033314e+00  6.1892093208204735e-01  -4.8666723241632570e-02  -4.1195599903853013e-02  1.1901855050721189e-02  -2.3569672113435045e-03  4.9063090260708167e-04  2.3687175541377342e-03  -4.2559682365321205e-02  1.5031049325521120e-01  5.7547702095398523e-01  8.3979582773763073e-01  9.4715931356615135e-01  1.0230385023184914e+00  1.0774320224231013e+00  1.1109885736321881e+00  1.1294770885887231e+00  1.1371798902120145e+00  1.1360506449801733e+00  1.1256201579706522e+00  1.1036111558052384e+00  1.0687888451893095e+00  1.0250487061185192e+00  9.8021750833274723e-01  9.3992687287485344e-01  9.0484578883354583e-01  8.7355526236280578e-01  8.4659058901253925e-01  8.2760307242932585e-01  8.2135671558550083e-01  8.3369173098919125e-01  8.6431343839816777e-01  9.0158033188515074e-01  9.3755465027172247e-01  9.7355041384734620e-01  1.0299695381217533e+00  1.1276921788874030e+00  1.1130260166227577e+00  1.0074128929474859e+00  9.9274824934440420e-01  1.0012552958754548e+00  1.0300874931295054e+00  5.8916517648960820e-01  -1.8102598409125964e-01  2.0402354372325345e-02  3.1331872927466566e-02  -8.6606207953016361e-03  -2.5864941138387270e-03  2.0493093988387815e-03  -5.5293253982787339e-04  4.5922764684657661e-07  6.8876482710129798e-05  -3.7016262451136452e-05  1.2484577608284144e-05  -2.9379685180630193e-06  3.6240498818591876e-07  8.2147021241628772e-08  -7.8776738318336363e-08  3.6407035967236615e-08  -1.3440911128162837e-08  4.3777883738932269e-09  -1.2887560489786850e-09  3.3905289779360043e-10  -7.5930692459679623e-11  1.2304768696726095e-11  -7.3319524062781218e-14  -1.0882232198569383e-12  6.3488267272416799e-13  -2.6642235576679514e-13  9.5687410530075609e-14  -3.0515873178411449e-14  8.8802343246258105e-15  -2.2231882442637570e-15  5.7489715731674007e-16  -9.3957338859439389e-17  1.2155341135296545e-17  1.1117866215965764e-18  -1.5626995637019608e-18  6.4333451181756246e-19  -3.1830540043002660e-19  3.5091802880383065e-20  -6.2024077992400764e-20  9.9824362417271373e-01  1.0012181575040844e+00  1.0054214733380495e+00  1.0115191907761039e+00  1.0103602529752276e+00  9.8969891380169883e-01  9.5442720829441308e-01  9.7566015221709379e-01  1.1013612681710097e+00  1.1873478716055814e+00  1.0510676711086033e+00  9.5085870092998537e-01  9.5726172902690432e-01  1.0593952797017450e+00  1.1756901279575565e+00  1.1159959300803373e+00  1.0261038479963565e+00  9.7864472826844273e-01  9.5219329425797083e-01  9.7070040158404047e-01  1.0013305385847660e+00  1.0070370598695544e+00  9.9987525029309776e-01  9.9693295376229973e-01  1.0069892627953330e+00  9.8952678654114068e-01  9.8657225572488161e-01  1.1483205197509576e+00  9.7200487466594765e-01  7.4414610713233897e-01  6.8172165710390165e-01  7.5165829573624421e-01  8.2221993809601868e-01  8.6114267274824308e-01  8.8083274695711411e-01  8.8715303280773550e-01  8.8467523538530746e-01  8.7831299931990492e-01  8.7217813115364451e-01  8.6826716163194462e-01  8.6626725379093583e-01  8.6479608243914552e-01  8.6235810051614747e-01  8.5918339703314939e-01  8.5595452081445111e-01  8.5284998720640492e-01  8.4959614143416562e-01  8.4553517386757726e-01  8.3996867288287425e-01  8.3193624205605332e-01  8.2114207370995740e-01  8.0971278724997287e-01  7.9977371253438689e-01  7.9119084751669089e-01  7.8261504057487630e-01  7.7261736010048432e-01  7.5978397629088823e-01  7.4227378210138151e-01  7.1728155916716518e-01  6.8077600389574511e-01  6.2863080021912021e-01  5.6250863365088333e-01  4.9563544350249783e-01  4.3798359831898431e-01  3.9126671740357571e-01  3.5364476760190994e-01  3.2256124517419221e-01  2.9561595115882044e-01  2.7072707282458169e-01  2.4622803597434151e-01  2.2108418811425232e-01  1.9484013370989836e-01  1.6734721649843470e-01  1.3937325519521537e-01  1.1401050383020249e-01  9.3968381296510958e-02  8.0740677685126841e-02  7.5234436081897754e-02  7.5349200854392701e-02  7.4578610314590121e-02  7.1602606077027897e-02  6.9139246061540829e-02  7.0093084762466479e-02  7.5593117918810238e-02  8.2936360176007182e-02  8.3623923767591313e-02  6.7584342882992490e-02  2.8888291964951338e-02  -3.3743998416502781e-02  -1.0222789662063390e-01  -1.3391617260239855e-01  -1.0810196202259811e-01  3.3305563535658278e-01  1.1396126041594481e+00  9.7710546679507659e-01  9.8491847829647849e-01  9.7141732154118443e-01  1.1451001671937857e+00  1.0540177739386301e+00  5.1035636987330879e-01  1.7771425826495525e-02  -1.3823514205756357e-01  -1.6259721228430171e-01  1.1703263326350922e-02  8.1984810959459420e-01  1.1046015790900658e+00  9.6093592665273597e-01  1.0032450328579123e+00  1.1533608685216932e+00  5.6106405622693745e-01  -7.4154323084564969e-03  -1.6176486366186982e-01  -1.6113853160523145e-01  -1.5939949657507488e-01  -1.5958675856209820e-01  -1.5940552169840375e-01  -1.5452404430464101e-01  -1.4164644612532887e-01  -1.2106824997340332e-01  -9.5006486207760282e-02  -6.7053073213893269e-02  -4.0397745626185609e-02  -1.8652556196442658e-02  -4.4223174630141741e-03  3.6917639482807935e-03  7.8744425870689444e-03  8.7644697750991901e-03  5.8302690574941534e-03  -4.0960523101088416e-03  -2.9321370646626585e-02  -7.5236241872902135e-02  -1.2340938781801211e-01  -1.5236811868174691e-01  -1.6087453093468418e-01  -1.5251016091972805e-01  -1.3411502392417382e-01  -1.1479182476697575e-01  -1.0589406520710343e-01  -1.1677755907884463e-01  -1.3968574180333287e-01  -1.5991498084326225e-01  -1.6301856928550312e-01  -1.6103573457925341e-01  -1.6087638125568768e-01  3.6454064640555763e-02  4.7720041607928243e-01  7.8070605427941853e-01  7.8558197944227870e-01  5.2688909807904516e-01  1.0509266309552223e-01  -1.7147503285812796e-01  -6.7399461701113453e-02  2.6623206284828001e-02  1.5715872134123385e-03  -2.1758630081781028e-03  9.3889896666351895e-04  -1.9404667828654687e-03  8.4458411481662023e-03  -4.4755118605046282e-03  -8.5000488269164398e-02  -1.5251341948166308e-01  -1.5135369139428204e-01  -1.0330116525126185e-01  -5.1203497246859631e-02  -8.9415962010452009e-03  2.1157989563213429e-02  3.8565444948589676e-02  4.2528516255492692e-02  3.2830794046869734e-02  1.0599217770838627e-02  -2.2181485247722198e-02  -6.1240567847092212e-02  -9.9218612838076578e-02  -1.2893688421918248e-01  -1.4800658665972358e-01  -1.5812731678909323e-01  -1.6224793626519327e-01  -1.6302462982087637e-01  -1.6255307154938672e-01  -1.6219642891159131e-01  -1.6088884695087660e-01  -1.5501601170707430e-01  -1.4364731263810643e-01  -1.2560659265237639e-01  -9.3534351200740704e-02  -4.1337161734299847e-02  1.6273413767195136e-01  8.3355377347661663e-01  1.0245946447613574e+00  9.9978467218293776e-01  9.8979669353755895e-01  1.0649125242684008e+00  9.2938098500753019e-01  1.6863744341382053e-01  -1.6475106528936551e-01  -4.4255994249911002e-03  2.7041986588035510e-02  -8.8979165728583203e-03  6.9394004490128081e-04  7.6381769380712121e-04  -4.8674625692270835e-04  1.7921399107353119e-04  -4.6873860383410564e-05  7.7864240637087661e-06  2.2585443735565765e-07  -8.5686633256823815e-07  4.6130568523487701e-07  -1.8464848654576047e-07  6.4171113069543151e-08  -2.0151146320220640e-08  5.7172551612359519e-09  -1.4278898465938508e-09  2.9186556978261560e-10  -3.6011483265358439e-11  -6.1246563326842019e-12  6.8482087563128551e-12  -3.3969311307795537e-12  1.3346641056066890e-12  -4.5770491316192560e-13  1.4125951712492702e-13  -3.9229021606921465e-14  9.8307022889633032e-15  -2.0520949035575612e-15  4.0773854860820492e-16  -4.0808719058876115e-17  -8.3775176177445778e-18  7.4421394369401354e-18  -3.0567901781013019e-18  1.4236109027313558e-18  -2.2008669430499404e-19  2.9496482845239589e-19  1.0103039299221876e+00  9.9882471744025014e-01  9.9093979507368435e-01  9.6716364404611421e-01  9.5404590674948431e-01  9.8699456505795291e-01  1.1022098566132272e+00  1.1839326120487172e+00  9.0208857305644574e-01  3.3154809907424404e-01  1.0339162055564599e-02  -1.2540353940365553e-01  -1.5337560815597270e-01  -1.1281824669256228e-01  2.1763543543923621e-02  2.9514832451934570e-01  7.7987883477590592e-01  9.8405370445344298e-01  1.1539513241823078e+00  1.1602885168627473e+00  1.0461407236634663e+00  9.6645593665386420e-01  9.9323921071228705e-01  1.0037673091270660e+00  1.0077629267087544e+00  9.6494643427662996e-01  1.0966779082430167e+00  8.5954464222761184e-01  1.8476868463653845e-02  -1.8991688281351027e-01  -1.5351544983658441e-01  -1.5822335401761778e-01  -1.6847358885212380e-01  -1.7268893532902282e-01  -1.7216586644252663e-01  -1.7113519175544759e-01  -1.7147502648905630e-01  -1.7259284823396659e-01  -1.7350572353133917e-01  -1.7396187862965243e-01  -1.7415787566899002e-01  -1.7426150042757946e-01  -1.7439807149842101e-01  -1.7455184396573178e-01  -1.7465228077180303e-01  -1.7470378101091485e-01  -1.7472047542292829e-01  -1.7470965231574503e-01  -1.7464328711632424e-01  -1.7444459991572034e-01  -1.7399283879579819e-01  -1.7322231914553307e-01  -1.7230090603948212e-01  -1.7141568843790800e-01  -1.7054605193988812e-01  -1.6954942014880595e-01  -1.6824827358593841e-01  -1.6640517268599786e-01  -1.6363635836653334e-01  -1.5929709674896325e-01  -1.5241215946529563e-01  -1.4215441998309533e-01  -1.2929854149201439e-01  -1.1618565491816132e-01  -1.0454350706575166e-01  -9.4771744556279625e-02  -8.6609065926209830e-02  -7.9593734042883876e-02  -7.3242630095382913e-02  -6.7115829991413828e-02  -6.0882576970342939e-02  -5.4364180401239345e-02  -4.7480375033722343e-02  -4.0263296910654320e-02  -3.3233983574457254e-02  -2.7230638840844354e-02  -2.2816496547614310e-02  -2.0353606800762789e-02  -1.9796807068884294e-02  -1.9856722915771986e-02  -1.9330518847529916e-02  -1.8503481373306964e-02  -1.8216271063979779e-02  -1.9100349438060611e-02  -2.1016913001191365e-02  -2.2329619266838088e-02  -2.0393746513192191e-02  -1.3428752286814153e-02  -7.6719444862182297e-04  1.9377358010574868e-02  3.4163383060305912e-02  4.1771085222485189e-02  -6.9531834479141172e-02  2.8142225287113265e-01  1.0715597321390296e+00  9.6484129005530272e-01  1.1573342268702567e+00  8.9096691631598091e-01  1.0176197909884561e-01  -1.9700598534893640e-01  -6.3052334693823639e-02  2.4615246065314875e-02  4.4218090599542105e-02  3.9713834259115337e-02  -1.5518029284291804e-01  4.1553824630768732e-01  1.0915304783200446e+00  1.0350859913246842e+00  8.4974401015205814e-01  -8.9809766432635052e-02  -8.7038630153903548e-02  3.6986829773426190e-02  4.4747218773001474e-02  4.2644520943968020e-02  4.2746006691512912e-02  4.2813465423992732e-02  4.2283857007207916e-02  3.9953831814024524e-02  3.5424652490877742e-02  2.9073758429089620e-02  2.1721813166600223e-02  1.4291670721329655e-02  7.6924269410972501e-03  2.8526757955116186e-03  -6.7938401412000223e-05  -1.6650915225234905e-03  -2.3419254096941457e-03  -2.1195794072660047e-03 