<?xml version="1.0"?>
<VTKFile type="UnstructuredGrid"  version="0.1"  >
<UnstructuredGrid>
<Piece  NumberOfPoints="7161" NumberOfCells="13800">
<Points>
<DataArray  type="Float64"  NumberOfComponents="3"  format="ascii">0 0 0  0.01652173913043478 0 0  0.03304347826086956 0 0  0.04956521739130434 0 0  0.06608695652173913 0 0  0.08260869565217391 0 0  0.09913043478260869 0 0  0.1156521739130435 0 0  0.1321739130434783 0 0  0.148695652173913 0 0  0.1652173913043478 0 0  0.1817391304347826 0 0  0.1982608695652174 0 0  0.2147826086956522 0 0  0.2313043478260869 0 0  0.2478260869565218 0 0  0.2643478260869565 0 0  0.2808695652173913 0 0  0.2973913043478261 0 0  0.3139130434782609 0 0  0.3304347826086956 0 0  0.3469565217391304 0 0  0.3634782608695652 0 0  0.3799999999999999 0 0  0.3965217391304348 0 0  0.4130434782608696 0 0  0.4295652173913043 0 0  0.4460869565217391 0 0  0.4626086956521739 0 0  0.4791304347826086 0 0  0.4956521739130435 0 0  0.5121739130434783 0 0  0.528695652173913 0 0  0.5452173913043478 0 0  0.5617391304347825 0 0  0.5782608695652174 0 0  0.5947826086956521 0 0  0.6113043478260869 0 0  0.6278260869565218 0 0  0.6443478260869565 0 0  0.6608695652173913 0 0  0.677391304347826 0 0  0.6939130434782609 0 0  0.7104347826086956 0 0  0.7269565217391304 0 0  0.7434782608695653 0 0  0.7599999999999999 0 0  0.7765217391304348 0 0  0.7930434782608695 0 0  0.8095652173913043 0 0  0.8260869565217391 0 0  0.8426086956521739 0 0  0.8591304347826086 0 0  0.8756521739130434 0 0  0.8921739130434783 0 0  0.908695652173913 0 0  0.9252173913043478 0 0  0.9417391304347826 0 0  0.9582608695652173 0 0  0.9747826086956521 0 0  0.991304347826087 0 0  1.007826086956522 0 0  1.024347826086957 0 0  1.040869565217391 0 0  1.057391304347826 0 0  1.073913043478261 0 0  1.090434782608696 0 0  1.10695652173913 0 0  1.123478260869565 0 0  1.14 0 0  1.156521739130435 0 0  1.17304347826087 0 0  1.189565217391304 0 0  1.206086956521739 0 0  1.222608695652174 0 0  1.239130434782609 0 0  1.255652173913044 0 0  1.272173913043478 0 0  1.288695652173913 0 0  1.305217391304348 0 0  1.321739130434783 0 0  1.338260869565217 0 0  1.354782608695652 0 0  1.371304347826087 0 0  1.387826086956522 0 0  1.404347826086957 0 0  1.420869565217391 0 0  1.437391304347826 0 0  1.453913043478261 0 0  1.470434782608696 0 0  1.486956521739131 0 0  1.503478260869565 0 0  1.52 0 0  1.536521739130435 0 0  1.55304347826087 0 0  1.569565217391304 0 0  1.586086956521739 0 0  1.602608695652174 0 0  1.619130434782609 0 0  1.635652173913043 0 0  1.652173913043478 0 0  1.668695652173913 0 0  1.685217391304348 0 0  1.701739130434782 0 0  1.718260869565217 0 0  1.734782608695652 0 0  1.751304347826087 0 0  1.767826086956522 0 0  1.784347826086957 0 0  1.800869565217391 0 0  1.817391304347826 0 0  1.833913043478261 0 0  1.850434782608696 0 0  1.86695652173913 0 0  1.883478260869565 0 0  1.9 0 0  1.916521739130435 0 0  1.933043478260869 0 0  1.949565217391304 0 0  1.966086956521739 0 0  1.982608695652174 0 0  1.999130434782608 0 0  2.015652173913043 0 0  2.032173913043478 0 0  2.048695652173913 0 0  2.065217391304348 0 0  2.081739130434782 0 0  2.098260869565217 0 0  2.114782608695652 0 0  2.131304347826087 0 0  2.147826086956522 0 0  2.164347826086956 0 0  2.180869565217391 0 0  2.197391304347826 0 0  2.213913043478261 0 0  2.230434782608695 0 0  2.24695652173913 0 0  2.263478260869565 0 0  2.28 0 0  2.296521739130434 0 0  2.31304347826087 0 0  2.329565217391304 0 0  2.346086956521739 0 0  2.362608695652174 0 0  2.379130434782609 0 0  2.395652173913044 0 0  2.412173913043478 0 0  2.428695652173913 0 0  2.445217391304348 0 0  2.461739130434782 0 0  2.478260869565217 0 0  2.494782608695652 0 0  2.511304347826087 0 0  2.527826086956522 0 0  2.544347826086956 0 0  2.560869565217391 0 0  2.577391304347826 0 0  2.593913043478261 0 0  2.610434782608696 0 0  2.62695652173913 0 0  2.643478260869565 0 0  2.66 0 0  2.676521739130435 0 0  2.693043478260869 0 0  2.709565217391304 0 0  2.726086956521739 0 0  2.742608695652174 0 0  2.759130434782609 0 0  2.775652173913044 0 0  2.792173913043478 0 0  2.808695652173913 0 0  2.825217391304347 0 0  2.841739130434783 0 0  2.858260869565217 0 0  2.874782608695652 0 0  2.891304347826087 0 0  2.907826086956522 0 0  2.924347826086957 0 0  2.940869565217391 0 0  2.957391304347826 0 0  2.973913043478261 0 0  2.990434782608696 0 0  3.006956521739131 0 0  3.023478260869565 0 0  3.04 0 0  3.056521739130435 0 0  3.073043478260869 0 0  3.089565217391304 0 0  3.106086956521739 0 0  3.122608695652174 0 0  3.139130434782609 0 0  3.155652173913043 0 0  3.172173913043478 0 0  3.188695652173913 0 0  3.205217391304347 0 0  3.221739130434782 0 0  3.238260869565217 0 0  3.254782608695652 0 0  3.271304347826087 0 0  3.287826086956521 0 0  3.304347826086957 0 0  3.320869565217391 0 0  3.337391304347826 0 0  3.353913043478261 0 0  3.370434782608696 0 0  3.386956521739131 0 0  3.403478260869565 0 0  3.419999999999999 0 0  3.436521739130435 0 0  3.453043478260869 0 0  3.469565217391304 0 0  3.486086956521739 0 0  3.502608695652174 0 0  3.519130434782609 0 0  3.535652173913043 0 0  3.552173913043478 0 0  3.568695652173913 0 0  3.585217391304347 0 0  3.601739130434782 0 0  3.618260869565217 0 0  3.634782608695652 0 0  3.651304347826087 0 0  3.667826086956521 0 0  3.684347826086956 0 0  3.700869565217391 0 0  3.717391304347826 0 0  3.733913043478261 0 0  3.750434782608695 0 0  3.766956521739131 0 0  3.783478260869565 0 0  3.8 0 0  0 0.01666666666666667 0  0.01652173913043478 0.01666666666666667 0  0.03304347826086956 0.01666666666666667 0  0.04956521739130434 0.01666666666666667 0  0.06608695652173913 0.01666666666666667 0  0.08260869565217391 0.01666666666666667 0  0.09913043478260869 0.01666666666666667 0  0.1156521739130435 0.01666666666666667 0  0.1321739130434783 0.01666666666666667 0  0.148695652173913 0.01666666666666667 0  0.1652173913043478 0.01666666666666667 0  0.1817391304347826 0.01666666666666667 0  0.1982608695652174 0.01666666666666667 0  0.2147826086956522 0.01666666666666667 0  0.2313043478260869 0.01666666666666667 0  0.2478260869565218 0.01666666666666667 0  0.2643478260869565 0.01666666666666667 0  0.2808695652173913 0.01666666666666667 0  0.2973913043478261 0.01666666666666667 0  0.3139130434782609 0.01666666666666667 0  0.3304347826086956 0.01666666666666667 0  0.3469565217391304 0.01666666666666667 0  0.3634782608695652 0.01666666666666667 0  0.3799999999999999 0.01666666666666667 0  0.3965217391304348 0.01666666666666667 0  0.4130434782608696 0.01666666666666667 0  0.4295652173913043 0.01666666666666667 0  0.4460869565217391 0.01666666666666667 0  0.4626086956521739 0.01666666666666667 0  0.4791304347826086 0.01666666666666667 0  0.4956521739130435 0.01666666666666667 0  0.5121739130434783 0.01666666666666667 0  0.528695652173913 0.01666666666666667 0  0.5452173913043478 0.01666666666666667 0  0.5617391304347825 0.01666666666666667 0  0.5782608695652174 0.01666666666666667 0  0.5947826086956521 0.01666666666666667 0  0.6113043478260869 0.01666666666666667 0  0.6278260869565218 0.01666666666666667 0  0.6443478260869565 0.01666666666666667 0  0.6608695652173913 0.01666666666666667 0  0.677391304347826 0.01666666666666667 0  0.6939130434782609 0.01666666666666667 0  0.7104347826086956 0.01666666666666667 0  0.7269565217391304 0.01666666666666667 0  0.7434782608695653 0.01666666666666667 0  0.7599999999999999 0.01666666666666667 0  0.7765217391304348 0.01666666666666667 0  0.7930434782608695 0.01666666666666667 0  0.8095652173913043 0.01666666666666667 0  0.8260869565217391 0.01666666666666667 0  0.8426086956521739 0.01666666666666667 0  0.8591304347826086 0.01666666666666667 0  0.8756521739130434 0.01666666666666667 0  0.8921739130434783 0.01666666666666667 0  0.908695652173913 0.01666666666666667 0  0.9252173913043478 0.01666666666666667 0  0.9417391304347826 0.01666666666666667 0  0.9582608695652173 0.01666666666666667 0  0.9747826086956521 0.01666666666666667 0  0.991304347826087 0.01666666666666667 0  1.007826086956522 0.01666666666666667 0  1.024347826086957 0.01666666666666667 0  1.040869565217391 0.01666666666666667 0  1.057391304347826 0.01666666666666667 0  1.073913043478261 0.01666666666666667 0  1.090434782608696 0.01666666666666667 0  1.10695652173913 0.01666666666666667 0  1.123478260869565 0.01666666666666667 0  1.14 0.01666666666666667 0  1.156521739130435 0.01666666666666667 0  1.17304347826087 0.01666666666666667 0  1.189565217391304 0.01666666666666667 0  1.206086956521739 0.01666666666666667 0  1.222608695652174 0.01666666666666667 0  1.239130434782609 0.01666666666666667 0  1.255652173913044 0.01666666666666667 0  1.272173913043478 0.01666666666666667 0  1.288695652173913 0.01666666666666667 0  1.305217391304348 0.01666666666666667 0  1.321739130434783 0.01666666666666667 0  1.338260869565217 0.01666666666666667 0  1.354782608695652 0.01666666666666667 0  1.371304347826087 0.01666666666666667 0  1.387826086956522 0.01666666666666667 0  1.404347826086957 0.01666666666666667 0  1.420869565217391 0.01666666666666667 0  1.437391304347826 0.01666666666666667 0  1.453913043478261 0.01666666666666667 0  1.470434782608696 0.01666666666666667 0  1.486956521739131 0.01666666666666667 0  1.503478260869565 0.01666666666666667 0  1.52 0.01666666666666667 0  1.536521739130435 0.01666666666666667 0  1.55304347826087 0.01666666666666667 0  1.569565217391304 0.01666666666666667 0  1.586086956521739 0.01666666666666667 0  1.602608695652174 0.01666666666666667 0  1.619130434782609 0.01666666666666667 0  1.635652173913043 0.01666666666666667 0  1.652173913043478 0.01666666666666667 0  1.668695652173913 0.01666666666666667 0  1.685217391304348 0.01666666666666667 0  1.701739130434782 0.01666666666666667 0  1.718260869565217 0.01666666666666667 0  1.734782608695652 0.01666666666666667 0  1.751304347826087 0.01666666666666667 0  1.767826086956522 0.01666666666666667 0  1.784347826086957 0.01666666666666667 0  1.800869565217391 0.0166666666666666
[...]
<PointData  Scalars="rho_bar"> 
<DataArray  type="Float64"  Name="rho_bar"  format="ascii">1.0001443665801202e+00  1.0007574669317474e+00  1.0016825970251229e+00  1.0017807550583615e+00  9.9843558799898602e-01  9.9288273426273743e-01  9.9609034287997522e-01  1.0159083148135488e+00  1.0266604880057204e+00  1.0083830730552785e+00  9.8976375220099289e-01  9.9042849596038918e-01  1.0092893856132488e+00  1.0266491737389727e+00  1.0185196494849691e+00  1.0033297635619329e+00  9.9578487432275231e-01  9.9248295047390744e-01  9.9565921082486719e-01  1.0001781081708581e+00  1.0010512329292431e+00  9.9989435140486704e-01  9.9980363483580081e-01  1.0011176705076634e+00  9.9644165621033587e-01  1.0026703231427874e+00  1.0173019215126118e+00  9.9925784664611772e-01  9.6783227211540324e-01  9.6071667651799642e-01  9.7119509536668114e-01  9.8036615467760213e-01  9.8326946216927125e-01  9.8475198674570452e-01  9.8518270156473720e-01  9.8485532084545513e-01  9.8413218056351659e-01  9.8333871528549766e-01  9.8278648211216424e-01  9.8251664188212728e-01  9.8231650226564893e-01  9.8196394008788823e-01  9.8145950660711334e-01  9.8092087209462397e-01  9.8039390459624232e-01  9.7983170465050939e-01  9.7912903965216680e-01  9.7814498408077100e-01  9.7670027028598583e-01  9.7481648925545372e-01  9.7288958139204473e-01  9.7128280598525296e-01  9.6999428817827593e-01  9.6882942341636336e-01  9.6760433691194792e-01  9.6616910790753630e-01  9.6435065027659406e-01  9.6188632585222800e-01  9.5828836306775611e-01  9.5262426452335203e-01  9.4476528577660657e-01  9.3686727914903578e-01  9.3100645602110965e-01  9.2679883828695808e-01  9.2303035707097292e-01  9.1920358542455027e-01  9.1529681988961231e-01  9.1142388719105616e-01  9.0775908067785271e-01  9.0453324834968074e-01  9.0196998249473981e-01  9.0022089497924040e-01  8.9939863944114906e-01  8.9955493510015794e-01  9.0054619016310899e-01  9.0187340781899172e-01  9.0270658419318417e-01  9.0278021229721894e-01  9.0270416592068381e-01  9.0273601233610834e-01  9.0243714349982485e-01  9.0144283865005903e-01  9.0011932833991459e-01  8.9955514173835183e-01  9.0049949757629677e-01  9.0212801476122229e-01  9.0253408696503334e-01  9.0148256696208517e-01  8.9866568924598689e-01  9.0156935937663918e-01  9.5172252278473757e-01  1.0084142055639271e+00  1.0043757548218175e+00  9.9747330573554005e-01  1.0004658324411402e+00  9.9473223413108769e-01  1.0114183706936577e+00  1.0223197668062043e+00  9.6672515691067717e-01  8.9581654730251925e-01  9.5649702790582414e-01  9.9006832131322053e-01  9.2773084854868848e-01  9.7213667938430526e-01  1.0165790795858256e+00  9.9384317377727727e-01  1.0067194633876531e+00  1.0176197570560248e+00  9.3400462674354789e-01  9.3117056475198046e-01  1.0301922628659874e+00  1.0557370888475708e+00  1.0503030429485900e+00  1.0471047869028449e+00  1.0460084378590337e+00  1.0464775505966912e+00  1.0471429948093596e+00  1.0471060629992481e+00  1.0460217636020961e+00  1.0436115702080333e+00  1.0396334225218342e+00  1.0328805152137359e+00  1.0223808467368913e+00  1.0138924840443131e+00  1.0170405902991042e+00  1.0302888523429372e+00  1.0422652690065950e+00  1.0491132796061104e+00  1.0552546568283743e+00  1.0595853987579866e+00  1.0591413801142593e+00  1.0562744966121353e+00  1.0527464609538508e+00  1.0488698603845874e+00  1.0446061371727899e+00  1.0392400971961944e+00  1.0353969530899156e+00  1.0376587704072195e+00  1.0440716251213069e+00  1.0504424087851141e+00  1.0639430283711628e+00  1.0722848679126131e+00  1.0363561766451963e+00  9.3529365716586754e-01  9.2011473621594531e-01  9.8338783787308215e-01  9.9070561333670681e-01  9.6651027410919077e-01  9.0620821131897511e-01  9.2955182900900579e-01  1.0188767136706824e+00  1.1679015937048804e+00  1.3195504815557004e+00  1.3219614560994655e+00  1.3058701316434302e+00  1.2010606750164816e+00  1.0606858755367523e+00  1.0094423561128805e+00  9.2757070473564696e-01  8.9310525511837568e-01  9.1567536843463537e-01  9.2484671147382047e-01  9.2899222979116125e-01  9.2744990620922019e-01  9.2243448555910845e-01  9.1364897332091422e-01  9.0442436728551789e-01  8.9929088153979897e-01  8.9892282083183583e-01  9.0878269307969062e-01  9.4236798759076401e-01  9.8647401038504046e-01  1.0193409250290979e+00  1.0371092902519570e+00  1.0438268340188532e+00  1.0470419301813627e+00  1.0488040820096820e+00  1.0493323982338498e+00  1.0482447081510149e+00  1.0448660162248111e+00  1.0368754378610159e+00  1.0181471294146573e+00  9.8801727503192616e-01  9.3106452276355356e-01  8.9755086578633347e-01  9.4823688586504529e-01  1.0069554700929113e+00  1.0054293338890030e+00  9.9479231548557234e-01  1.0078913650718282e+00  9.9258299968766550e-01  8.0707618470859244e-01  -1.1664792929352912e-01  3.4850114460026720e-02  -2.0748580914954573e-02  6.6627620936828991e-03  -3.0034896924429694e-04  -6.0788908580389710e-04  3.2469137341898182e-04  -1.0334442903431198e-04  2.3071391708690579e-05  -2.9012838407089326e-06  -4.3606015601510179e-07  4.6241871365334195e-07  -2.0272520808539045e-07  6.7271689740305134e-08  -1.8620363949732837e-08  4.3993014293568735e-09  -8.7920425273569446e-10  1.4157598181880576e-10  -1.5378555586653576e-11  -1.0717040896500638e-13  5.9168141547157483e-13  -1.8323045629204793e-13  3.5808956935977986e-14  -4.4426197548892231e-15  6.9425621113554958e-17  1.3806428821098666e-16  -4.3814071506963641e-17  8.0949284933223748e-18  -8.2862737754809409e-19  -4.5036219169835445e-20  4.2674455159253193e-20  -1.0818542470146400e-20  1.6186794266297552e-21  -8.3005337716965057e-23  -3.3627904689582784e-23  1.2568871508103528e-23  -2.4316676187066126e-24  3.0119054754177927e-25  5.6910664429219579e-26  1.0002283407439905e+00  9.9921836300188271e-01  9.9759575440024550e-01  9.9608734352932304e-01  9.9851129878352929e-01  1.0088501925589539e+00  1.0152386392133439e+00  9.9209480760857827e-01  9.4880483250791914e-01  9.5906800954049742e-01  1.0075706511903033e+00  1.0237323076988596e+00  1.0054556355127819e+00  9.5813737279772582e-01  9.4801058843622521e-01  9.8144099445840638e-01  1.0014174529519266e+00  1.0133215670618876e+00  1.0135075389425698e+00  1.0031842992604387e+00  9.9792615434992349e-01  9.9888391707447699e-01  1.0010055948283931e+00  9.9907748970793075e-01  9.9944685324600391e-01  1.0093341812977561e+00  9.7578306041239915e-01  9.7134709015530529e-01  1.0383122730923062e+00  1.0782036489782121e+00  1.0701326377168958e+00  1.0457406605658666e+00  1.0359285966161607e+00  1.0317039461525939e+00  1.0298140117352861e+00  1.0298342297688754e+00  1.0309423666252109e+00  1.0325640736131216e+00  1.0339604491862249e+00  1.0347524258863590e+00  1.0351461562705726e+00  1.0356640459391733e+00  1.0365561293519852e+00  1.0376229447260221e+00  1.0386877333783227e+00  1.0397542644494870e+00  1.0409891494630086e+00  1.0426353872020346e+00  1.0450150055724174e+00  1.0484034468855370e+00  1.0523521594906924e+00  1.0559294486915045e+00  1.0587801985431762e+00  1.0611808221938348e+00  1.0635315949818207e+00  1.0661561285874066e+00  1.0693590540595090e+00  1.0735612781905159e+00  1.0794602375345186e+00  1.0884193780192857e+00  1.1021810039179125e+00  1.1187773668170824e+00  1.1327349246849756e+00  1.1424126482886523e+00  1.1501724299096090e+00  1.1577352864046302e+00  1.1654903679127873e+00  1.1733054347557186e+00  1.1808949514436415e+00  1.1878492359638730e+00  1.1936864833369536e+00  1.1980264914253396e+00  1.2006265032196681e+00  1.2012896482632329e+00  1.2000731071187796e+00  1.1975741127488269e+00  1.1951792222928910e+00  1.1943741471725855e+00  1.1945797661158239e+00  1.1945495473458085e+00  1.1946716850532286e+00  1.1959273871296725e+00  1.1984657994731727e+00  1.2006771795518878e+00  1.2003479525546601e+00  1.1973119583987235e+00  1.1947871934731635e+00  1.1958052459436488e+00  1.1991471566817091e+00  1.2033298040712532e+00  1.1667680067396740e+00  1.0230726415201132e+00  9.7363560295839136e-01  1.0102933769262998e+00  9.9486591223559406e-01  1.0076338205076651e+00  1.0022273755316660e+00  9.5499151191870657e-01  9.8897742386050436e-01  1.1517789483517660e+00  1.1991603142695804e+00  9.8840555370977945e-01  1.0992725848772393e+00  1.1364316502272351e+00  9.7500334134567168e-01  9.9226949330076364e-01  1.0145517138806086e+00  9.5955843053977186e-01  1.0172202532265098e+00  1.2063707055175421e+00  1.0180189051799788e+00  8.9792847201612147e-01  8.9447676658946429e-01  9.0303034099041368e-01  9.0739434290645282e-01  9.0770956988774754e-01  9.0620596625048944e-01  9.0549401579374977e-01  9.0652724267599405e-01  9.0998033906185427e-01  9.1630515793824752e-01  9.2651245595370602e-01  9.4381544180051480e-01  9.6564062751709090e-01  9.7296060227024506e-01  9.5381644496844997e-01  9.2564786604023530e-01  9.0781983042647130e-01  8.9598742703704748e-01  8.8367295416004021e-01  8.7999995421045407e-01  8.8425257358401144e-01  8.9066503665452890e-01  8.9831208344976976e-01  9.0627883704420498e-01  9.1577888018428089e-01  9.2645830799036555e-01  9.2887196227487900e-01  9.1838644381910295e-01  9.0529482163228436e-01  8.8922219762836419e-01  8.5709044533855960e-01  8.7519769988446017e-01  1.0117583414090296e+00  1.2041195868206347e+00  1.0761953978057477e+00  1.0182309128179916e+00  1.0347031910987958e+00  1.1173090741612763e+00  1.2160352391477820e+00  1.0327666700423759e+00  8.6181259606911731e-01  4.5028194181704451e-01  1.2932576471456847e-01  1.0632142569340132e-01  3.7509312268876799e-01  7.8522829538018279e-01  9.2582671161254593e-01  1.0516643458572790e+00  1.2143473654180275e+00  1.1847136951216999e+00  1.1592842030462422e+00  1.1438418608641698e+00  1.1430331399024101e+00  1.1489037830459010e+00  1.1632433196172407e+00  1.1823803324366777e+00  1.1978766346630569e+00  1.2025771164714467e+00  1.1966176006430813e+00  1.1563887945245381e+00  1.0688784025725082e+00  9.9084316893170687e-01  9.3933577866077800e-01  9.1773457094038213e-01  9.0867125284431061e-01  9.0382193465649496e-01  9.0148576989064622e-01  9.0188547323936064e-01  9.0618423328764608e-01  9.1659175060555353e-01  9.4124101034773289e-01  9.9185650824165883e-01  1.0694806433698116e+00  1.1945403846914340e+00  1.1731561202549703e+00  1.0298800429617045e+00  9.7242043668101852e-01  1.0104176688611479e+00  9.9854503520167215e-01  9.8409321197387378e-01  1.1302800496057259e+00  7.7337598329636437e-02  -8.2103019487329440e-02  4.6251207130487415e-02  -4.7619026489394475e-03  -4.7019186900049944e-03  2.5755290937983840e-03  -7.6403303847402107e-04  1.4557567563618930e-04  -9.4237710970858815e-06  -6.6675475914745363e-06  4.0537333372635907e-06  -1.5261203056904849e-06  4.5825684678071797e-07  -1.1492642422136294e-07  2.3784141018013871e-08  -3.7585447536456162e-09  3.1042456680907178e-10  5.6749485810133536e-11  -3.4186027105384188e-11  9.5872881604235220e-12  -1.8723398479375003e-12  2.4249603415129127e-13  -6.5498514789300619e-15  -7.0404813055369375e-15  2.4291492916585747e-15  -4.8514842166009555e-16  5.8149782223835915e-17  2.1282394489908124e-19  -2.1762599826107150e-18  6.3719597817867158e-19  -1.0911085947474474e-19  9.0148748169750801e-21  1.2941853005222614e-21  -6.9944967647992997e-22  1.5593992866072885e-22  -1.9837981487549716e-23  1.6115311738343073e-25  6.9881871091354623e-25  -4.1501187640021840e-25  9.9772553020231236e-01  1.0011616663749214e+00  1.0048022269576662e+00  1.0118774761527738e+00  1.0120280574040184e+00  9.9175027074917155e-01  9.5008031363849577e-01  9.6856977377118081e-01  1.1028192511625481e+00  1.2106201338187583e+00  1.0435527613296143e+00  9.3007599729506074e-01  9.3431071926252873e-01  1.0513674707370142e+00  1.2104034855294421e+00  1.1167857930916398e+00  1.0232907857196272e+00  9.7432729716377664e-01  9.4255048377373030e-01  9.7175625494974061e-01  1.0018669371993987e+00  1.0072785792660368e+00  9.9954058477466456e-01  9.9676645323188995e-01  1.0073948551026559e+00  9.8995302769762150e-01  9.7969999150430720e-01  1.1649481299046107e+00  9.7631357720733281e-01  7.7695554795367261e-01  7.1526932350542738e-01  8.0684890227844064e-01  8.6071320089079428e-01  8.8249327756744100e-01  8.9345045945445345e-01  8.9614954942433711e-01  8.9401103079822797e-01  8.8890073283686133e-01  8.8327776371209543e-01  8.7943956138032253e-01  8.7754795293367516e-01  8.7623146922448680e-01  8.7370083325441650e-01  8.7014055974209692e-01  8.6637250896411366e-01  8.6266931703209948e-01  8.5874696713577303e-01  8.5379286318138881e-01  8.4691477907970036e-01  8.3686779762398877e-01  8.2352040746782607e-01  8.0993569058172599e-01  7.9870097898644377e-01  7.8966640841215252e-01  7.8147326937585648e-01  7.7284749449266354e-01  7.6273845626796954e-01  7.4993174418114672e-01  7.3252195606030224e-01  7.0713367722168519e-01  6.6777481406116279e-01  6.1113850768223876e-01  5.5279234783838460e-01  5.0723619974879197e-01  4.6884669969354864e-01  4.2924885696632303e-01  3.8590490324549714e-01  3.3963933699497351e-01  2.9199223649482420e-01  2.4471060481928050e-01  2.0031692053036276e-01  1.6164520918451639e-01  1.3078606855077032e-01  1.0895541158953939e-01  9.5636491415509034e-02  8.7294084639104166e-02  8.1622304726619244e-02  7.8859309467241082e-02  7.8824361670440796e-02  7.8979061505257894e-02  7.8881031506094226e-02  8.0001037040164452e-02  8.3921736857581003e-02  9.1572892247563917e-02  1.0578856442359975e-01  1.3212498856088178e-01  1.6302676912455877e-01  1.7138171457729820e-01  1.4903800125049438e-01  1.2337839375462518e-01  1.6349847400216660e-01  6.0084616404728175e-01  1.1572950212939062e+00  9.5473528526832208e-01  1.0131538774223579e+00  1.0017843135534221e+00  9.6012140906109078e-01  1.0577384004977834e+00  1.1873695910492741e+00  7.8293353868919957e-01  1.2633745753921138e-01  -4.6700510942173472e-02  -1.4626840331787661e-01  1.0187514046450015e-01  9.5782763425442063e-01  1.0747160782518388e+00  9.7168965321099365e-01  9.8860950249948221e-01  1.1979287261420664e+00  5.8052606500356041e-01  6.4406231392425163e-03  -1.9592446002803215e-01  -1.8374399126740090e-01  -1.8568097646554532e-01  -1.8352443574567281e-01  -1.8267454853983955e-01  -1.8350834203794342e-01  -1.8406760811602732e-01  -1.8408294654826432e-01  -1.8319829438461488e-01  -1.8090237656951150e-01  -1.7629401789970975e-01  -1.6881523673406021e-01  -1.5336398179741759e-01  -1.3957008868087242e-01  -1.4402390837068321e-01  -1.6565404552388596e-01  -1.8103217284325579e-01  -1.8638679437178951e-01  -1.8707763699976102e-01  -1.8650001873417957e-01  -1.8647671714118313e-01  -1.8675199879797133e-01  -1.8667130733944270e-01  -1.8533472268549073e-01  -1.8204694525002590e-01  -1.7567278751616971e-01  -1.6897508891886281e-01  -1.7312274708900482e-01  -1.8219294180660700e-01  -1.8745980717708308e-01  -1.8599799208208320e-01  -1.8068084230812831e-01  -2.1183368057197971e-01  3.2434526997496105e-02  5.1691638563830533e-01  8.9541651335715144e-01  9.1011681105765407e-01  7.8871852987590962e-01  3.6571125937488863e-01  3.8945202691624554e-02  -2.1188044749490245e-01  -1.5242313691173737e-01  -7.2786579283000294e-02  -2.0230854566228012e-02  -5.7492162198828065e-02  -1.4117240681535670e-01  -1.9155852081326324e-01  -1.5587340258616553e-01  3.8844694789357662e-02  1.2413418401895021e-01  3.2918283065075088e-01  4.5695648698927716e-01  4.8534383351697874e-01  4.7440421635707714e-01  4.2619334992712421e-01  3.2171365541494512e-01  1.9259594022810406e-01  1.1292123273986271e-01  8.5605974218954203e-02  5.5745545093401072e-02  -1.5361249319758331e-02  -9.7728265717061100e-02  -1.5444158789215273e-01  -1.7458197525856434e-01  -1.8153640806911078e-01  -1.8433512480616385e-01  -1.8535547007185096e-01  -1.8550601954324566e-01  -1.8499745819979499e-01  -1.8232074139270657e-01  -1.7388057550555427e-01  -1.5289640735250068e-01  -9.4228727691798686e-02  -1.1539035730932705e-03  7.2360775183270984e-02  5.6650739936775940e-01  1.1479796323363800e+00  9.6481494788421607e-01  1.0014919176860126e+00  1.0100433097105064e+00  9.5609753743695591e-01  1.1615375719396217e+00  6.6888921557122871e-01  -1.7031565892833983e-01  -3.4427640694037524e-02  3.5535586981379895e-02  -1.1500114410645515e-02  2.4211296313823290e-03  -2.7483845758788741e-04  -4.6505731042816630e-05  4.4413266906238535e-05  -1.9208051465550669e-05  6.4166633358579880e-06  -1.7982902433976931e-06  4.3010238705726212e-07  -8.7131311182739356e-08  1.4460108259091659e-08  -1.7823428016648401e-09  1.0149349202470463e-10  1.9399324327687842e-11  -6.8173618980946058e-12  8.3772588449374328e-13  8.2018002050003968e-14  -6.6555466720832410e-14  1.7820522104729118e-14  -2.8232692653251759e-15  1.4719737634657912e-16  6.8904170407107185e-17  -2.7117482738945069e-17  5.5861598419668083e-18  -6.4492098515466658e-19  -1.9220445113973938e-20  3.0036512977385542e-20  -8.1650003941195819e-21  1.2843264940074735e-21  -7.3427753223712350e-23  -2.6290918366633183e-23  1.0276758695299972e-23  -2.2417185123611579e-24  4.3314207706143940e-25  1.0139769359494171e+00  9.9855910467142994e-01  9.9249643617317806e-01  9.6883694215099136e-01  9.4938481864110014e-01  9.8022044771997952e-01  1.0998080653999829e+00  1.2153011764728328e+00  9.1304694300757794e-01  3.2362667103380027e-01  1.3943470926725741e-02  -1.5584711874282989e-01  -1.8676836749451775e-01  -1.4966205395363849e-01  2.9530979293924970e-02  2.6418372989215039e-01  8.2135236506554277e-01  9.6488162385306941e-01  1.2085741871237714e+00  1.1632102515613478e+00  1.0451429595585269e+00  9.6351012941888825e-01  9.9460080158641362e-01  1.0042211453647945e+00  1.0081616108302121e+00  9.6222543467039534e-01  1.1021805179931015e+00  8.7958996268216139e-01  -1.7240648534848477e-03  -2.2260486144271763e-01  -1.6468779398839500e-01  -1.7295051606378800e-01  -1.8413860467074328e-01  -1.8829984241307909e-01  -1.8942543807367623e-01  -1.8985054177917715e-01  -1.8986219079385722e-01  -1.8966290700276170e-01  -1.8924140329855088e-01  -1.8883454985658035e-01  -1.8860406078834122e-01  -1.8849967637378728e-01  -1.8834669211417923e-01  -1.8805455822180472e-01  -1.8769485288310356e-01  -1.8732965615981648e-01  -1.8695669376883564e-01  -1.8651286041692011e-01  -1.8590034416886606e-01  -1.8496843887628062e-01  -1.8356620085308781e-01  -1.8186025697572228e-01  -1.8024788744561807e-01  -1.7891147863361664e-01  -1.7775571043494498e-01  -1.7660230890783044e-01  -1.7529178740129076e-01  -1.7366182431835098e-01  -1.7147730656585214e-01  -1.6833847197103979e-01  -1.6341926931466394e-01  -1.5571765413389854e-01  -1.4601234499532023e-01  -1.3659976698359103e-01  -1.2810128842849550e-01  -1.1902836396579092e-01  -1.0852566464626882e-01  -9.6794782257755022e-02  -8.4345627180199015e-02  -7.1672912661587262e-02  -5.9371804425309344e-02  -4.8204985830809705e-02  -3.8860795120785205e-02  -3.1800032162455992e-02  -2.7172801455725405e-02  -2.4385179011587200e-02  -2.2539890090898157e-02  -2.1397236384043714e-02  -2.1073126889226908e-02  -2.1150664243205639e-02  -2.1139500593634505e-02  -2.1210392867690244e-02  -2.1836017716069526e-02  -2.3368491598271344e-02  -2.6170166254482274e-02  -3.1422299451374681e-02  -3.9459828002851631e-02  -4.6512294360551078e-02  -4.3881704889668860e-02  -3.2234425071587379e-02  -3.8307256012847964e-02  -1.0085365589456544e-01  4.7396153563711754e-02  1.1181314290006465e+00  9.9907847127760119e-01  9.6031937620447283e-01  1.0531997232482722e+00  1.1166879117233119e+00  4.2427798603383049e-01  -1.5570519012395198e-01  -1.2332868283643250e-01  6.0764399468921375e-04  3.1090757486211623e-02  2.9575591122014838e-02  -2.0918041257430681e-01  5.7323762350412844e-01  1.0725514004698340e+00  1.0271638864400527e+00  8.9743151435653667e-01  -7.5730347887887378e-02  -1.0123428372745739e-01  4.1326431847360942e-02  5.3171093230705756e-02  4.8841102477287915e-02  4.9635146329614695e-02  4.8976893542987246e-02  4.9037679156757913e-02  4.9263305123275668e-02  4.9346134176311250e-02  4.9243734439445332e-02  4.8844062678261323e-02  4.7929294847156606e-02  4.6437276710256430e-02  4.3322092299510298e-02  3.8891460729128385e-02  3.7307705840379894e-02  4.1302521864832596e-02  4.6788244223995364e-02  4.948105906540415