<?xml version="1.0"?>
<VTKFile type="UnstructuredGrid"  version="0.1"  >
<UnstructuredGrid>
<Piece  NumberOfPoints="7161" NumberOfCells="13800">
<Points>
<DataArray  type="Float64"  NumberOfComponents="3"  format="ascii">0 0 0  0.01652173913043478 0 0  0.03304347826086956 0 0  0.04956521739130434 0 0  0.06608695652173913 0 0  0.08260869565217391 0 0  0.09913043478260869 0 0  0.1156521739130435 0 0  0.1321739130434783 0 0  0.148695652173913 0 0  0.1652173913043478 0 0  0.1817391304347826 0 0  0.1982608695652174 0 0  0.2147826086956522 0 0  0.2313043478260869 0 0  0.2478260869565218 0 0  0.2643478260869565 0 0  0.2808695652173913 0 0  0.2973913043478261 0 0  0.3139130434782609 0 0  0.3304347826086956 0 0  0.3469565217391304 0 0  0.3634782608695652 0 0  0.3799999999999999 0 0  0.3965217391304348 0 0  0.4130434782608696 0 0  0.4295652173913043 0 0  0.4460869565217391 0 0  0.4626086956521739 0 0  0.4791304347826086 0 0  0.4956521739130435 0 0  0.5121739130434783 0 0  0.528695652173913 0 0  0.5452173913043478 0 0  0.5617391304347825 0 0  0.5782608695652174 0 0  0.5947826086956521 0 0  0.6113043478260869 0 0  0.6278260869565218 0 0  0.6443478260869565 0 0  0.6608695652173913 0 0  0.677391304347826 0 0  0.6939130434782609 0 0  0.7104347826086956 0 0  0.7269565217391304 0 0  0.7434782608695653 0 0  0.7599999999999999 0 0  0.7765217391304348 0 0  0.7930434782608695 0 0  0.8095652173913043 0 0  0.8260869565217391 0 0  0.8426086956521739 0 0  0.8591304347826086 0 0  0.8756521739130434 0 0  0.8921739130434783 0 0  0.908695652173913 0 0  0.9252173913043478 0 0  0.9417391304347826 0 0  0.9582608695652173 0 0  0.9747826086956521 0 0  0.991304347826087 0 0  1.007826086956522 0 0  1.024347826086957 0 0  1.040869565217391 0 0  1.057391304347826 0 0  1.073913043478261 0 0  1.090434782608696 0 0  1.10695652173913 0 0  1.123478260869565 0 0  1.14 0 0  1.156521739130435 0 0  1.17304347826087 0 0  1.189565217391304 0 0  1.206086956521739 0 0  1.222608695652174 0 0  1.239130434782609 0 0  1.255652173913044 0 0  1.272173913043478 0 0  1.288695652173913 0 0  1.305217391304348 0 0  1.321739130434783 0 0  1.338260869565217 0 0  1.354782608695652 0 0  1.371304347826087 0 0  1.387826086956522 0 0  1.404347826086957 0 0  1.420869565217391 0 0  1.437391304347826 0 0  1.453913043478261 0 0  1.470434782608696 0 0  1.486956521739131 0 0  1.503478260869565 0 0  1.52 0 0  1.536521739130435 0 0  1.55304347826087 0 0  1.569565217391304 0 0  1.586086956521739 0 0  1.602608695652174 0 0  1.619130434782609 0 0  1.635652173913043 0 0  1.652173913043478 0 0  1.668695652173913 0 0  1.685217391304348 0 0  1.701739130434782 0 0  1.718260869565217 0 0  1.734782608695652 0 0  1.751304347826087 0 0  1.767826086956522 0 0  1.784347826086957 0 0  1.800869565217391 0 0  1.817391304347826 0 0  1.833913043478261 0 0  1.850434782608696 0 0  1.86695652173913 0 0  1.883478260869565 0 0  1.9 0 0  1.916521739130435 0 0  1.933043478260869 0 0  1.949565217391304 0 0  1.966086956521739 0 0  1.982608695652174 0 0  1.999130434782608 0 0  2.015652173913043 0 0  2.032173913043478 0 0  2.048695652173913 0 0  2.065217391304348 0 0  2.081739130434782 0 0  2.098260869565217 0 0  2.114782608695652 0 0  2.131304347826087 0 0  2.147826086956522 0 0  2.164347826086956 0 0  2.180869565217391 0 0  2.197391304347826 0 0  2.213913043478261 0 0  2.230434782608695 0 0  2.24695652173913 0 0  2.263478260869565 0 0  2.28 0 0  2.296521739130434 0 0  2.31304347826087 0 0  2.329565217391304 0 0  2.346086956521739 0 0  2.362608695652174 0 0  2.379130434782609 0 0  2.395652173913044 0 0  2.412173913043478 0 0  2.428695652173913 0 0  2.445217391304348 0 0  2.461739130434782 0 0  2.478260869565217 0 0  2.494782608695652 0 0  2.511304347826087 0 0  2.527826086956522 0 0  2.544347826086956 0 0  2.560869565217391 0 0  2.577391304347826 0 0  2.593913043478261 0 0  2.610434782608696 0 0  2.62695652173913 0 0  2.643478260869565 0 0  2.66 0 0  2.676521739130435 0 0  2.693043478260869 0 0  2.709565217391304 0 0  2.726086956521739 0 0  2.742608695652174 0 0  2.759130434782609 0 0  2.775652173913044 0 0  2.792173913043478 0 0  2.808695652173913 0 0  2.825217391304347 0 0  2.841739130434783 0 0  2.858260869565217 0 0  2.874782608695652 0 0  2.891304347826087 0 0  2.907826086956522 0 0  2.924347826086957 0 0  2.940869565217391 0 0  2.957391304347826 0 0  2.973913043478261 0 0  2.990434782608696 0 0  3.006956521739131 0 0  3.023478260869565 0 0  3.04 0 0  3.056521739130435 0 0  3.073043478260869 0 0  3.089565217391304 0 0  3.106086956521739 0 0  3.122608695652174 0 0  3.139130434782609 0 0  3.155652173913043 0 0  3.172173913043478 0 0  3.188695652173913 0 0  3.205217391304347 0 0  3.221739130434782 0 0  3.238260869565217 0 0  3.254782608695652 0 0  3.271304347826087 0 0  3.287826086956521 0 0  3.304347826086957 0 0  3.320869565217391 0 0  3.337391304347826 0 0  3.353913043478261 0 0  3.370434782608696 0 0  3.386956521739131 0 0  3.403478260869565 0 0  3.419999999999999 0 0  3.436521739130435 0 0  3.453043478260869 0 0  3.469565217391304 0 0  3.486086956521739 0 0  3.502608695652174 0 0  3.519130434782609 0 0  3.535652173913043 0 0  3.552173913043478 0 0  3.568695652173913 0 0  3.585217391304347 0 0  3.601739130434782 0 0  3.618260869565217 0 0  3.634782608695652 0 0  3.651304347826087 0 0  3.667826086956521 0 0  3.684347826086956 0 0  3.700869565217391 0 0  3.717391304347826 0 0  3.733913043478261 0 0  3.750434782608695 0 0  3.766956521739131 0 0  3.783478260869565 0 0  3.8 0 0  0 0.01666666666666667 0  0.01652173913043478 0.01666666666666667 0  0.03304347826086956 0.01666666666666667 0  0.04956521739130434 0.01666666666666667 0  0.06608695652173913 0.01666666666666667 0  0.08260869565217391 0.01666666666666667 0  0.09913043478260869 0.01666666666666667 0  0.1156521739130435 0.01666666666666667 0  0.1321739130434783 0.01666666666666667 0  0.148695652173913 0.01666666666666667 0  0.1652173913043478 0.01666666666666667 0  0.1817391304347826 0.01666666666666667 0  0.1982608695652174 0.01666666666666667 0  0.2147826086956522 0.01666666666666667 0  0.2313043478260869 0.01666666666666667 0  0.2478260869565218 0.01666666666666667 0  0.2643478260869565 0.01666666666666667 0  0.2808695652173913 0.01666666666666667 0  0.2973913043478261 0.01666666666666667 0  0.3139130434782609 0.01666666666666667 0  0.3304347826086956 0.01666666666666667 0  0.3469565217391304 0.01666666666666667 0  0.3634782608695652 0.01666666666666667 0  0.3799999999999999 0.01666666666666667 0  0.3965217391304348 0.01666666666666667 0  0.4130434782608696 0.01666666666666667 0  0.4295652173913043 0.01666666666666667 0  0.4460869565217391 0.01666666666666667 0  0.4626086956521739 0.01666666666666667 0  0.4791304347826086 0.01666666666666667 0  0.4956521739130435 0.01666666666666667 0  0.5121739130434783 0.01666666666666667 0  0.528695652173913 0.01666666666666667 0  0.5452173913043478 0.01666666666666667 0  0.5617391304347825 0.01666666666666667 0  0.5782608695652174 0.01666666666666667 0  0.5947826086956521 0.01666666666666667 0  0.6113043478260869 0.01666666666666667 0  0.6278260869565218 0.01666666666666667 0  0.6443478260869565 0.01666666666666667 0  0.6608695652173913 0.01666666666666667 0  0.677391304347826 0.01666666666666667 0  0.6939130434782609 0.01666666666666667 0  0.7104347826086956 0.01666666666666667 0  0.7269565217391304 0.01666666666666667 0  0.7434782608695653 0.01666666666666667 0  0.7599999999999999 0.01666666666666667 0  0.7765217391304348 0.01666666666666667 0  0.7930434782608695 0.01666666666666667 0  0.8095652173913043 0.01666666666666667 0  0.8260869565217391 0.01666666666666667 0  0.8426086956521739 0.01666666666666667 0  0.8591304347826086 0.01666666666666667 0  0.8756521739130434 0.01666666666666667 0  0.8921739130434783 0.01666666666666667 0  0.908695652173913 0.01666666666666667 0  0.9252173913043478 0.01666666666666667 0  0.9417391304347826 0.01666666666666667 0  0.9582608695652173 0.01666666666666667 0  0.9747826086956521 0.01666666666666667 0  0.991304347826087 0.01666666666666667 0  1.007826086956522 0.01666666666666667 0  1.024347826086957 0.01666666666666667 0  1.040869565217391 0.01666666666666667 0  1.057391304347826 0.01666666666666667 0  1.073913043478261 0.01666666666666667 0  1.090434782608696 0.01666666666666667 0  1.10695652173913 0.01666666666666667 0  1.123478260869565 0.01666666666666667 0  1.14 0.01666666666666667 0  1.156521739130435 0.01666666666666667 0  1.17304347826087 0.01666666666666667 0  1.189565217391304 0.01666666666666667 0  1.206086956521739 0.01666666666666667 0  1.222608695652174 0.01666666666666667 0  1.239130434782609 0.01666666666666667 0  1.255652173913044 0.01666666666666667 0  1.272173913043478 0.01666666666666667 0  1.288695652173913 0.01666666666666667 0  1.305217391304348 0.01666666666666667 0  1.321739130434783 0.01666666666666667 0  1.338260869565217 0.01666666666666667 0  1.354782608695652 0.01666666666666667 0  1.371304347826087 0.01666666666666667 0  1.387826086956522 0.01666666666666667 0  1.404347826086957 0.01666666666666667 0  1.420869565217391 0.01666666666666667 0  1.437391304347826 0.01666666666666667 0  1.453913043478261 0.01666666666666667 0  1.470434782608696 0.01666666666666667 0  1.486956521739131 0.01666666666666667 0  1.503478260869565 0.01666666666666667 0  1.52 0.01666666666666667 0  1.536521739130435 0.01666666666666667 0  1.55304347826087 0.01666666666666667 0  1.569565217391304 0.01666666666666667 0  1.586086956521739 0.01666666666666667 0  1.602608695652174 0.01666666666666667 0  1.619130434782609 0.01666666666666667 0  1.635652173913043 0.01666666666666667 0  1.652173913043478 0.01666666666666667 0  1.668695652173913 0.01666666666666667 0  1.685217391304348 0.01666666666666667 0  1.701739130434782 0.01666666666666667 0  1.718260869565217 0.01666666666666667 0  1.734782608695652 0.01666666666666667 0  1.751304347826087 0.01666666666666667 0  1.767826086956522 0.01666666666666667 0  1.784347826086957 0.01666666666666667 0  1.800869565217391 0.0166666666666666
[...]
<PointData  Scalars="rho_bar"> 
<DataArray  type="Float64"  Name="rho_bar"  format="ascii">9.0511257795523214e-01  9.0263763015695198e-01  9.0062294870916093e-01  8.9814720837689055e-01  8.9477294149960518e-01  8.9022123349231763e-01  8.8431089878586100e-01  8.7699365982817667e-01  8.6846921263510668e-01  8.5932637508860632e-01  8.5050876924322927e-01  8.4300768029460049e-01  8.3755493039647755e-01  8.3454533902751649e-01  8.3409908231967667e-01  8.3611187322961389e-01  8.4022567273697102e-01  8.4577206188055365e-01  8.5181386353632649e-01  8.5732488786001704e-01  8.6139552198404146e-01  8.6334930895616258e-01  8.6274427880494664e-01  8.5921992639361267e-01  8.5242878387433330e-01  8.4236481752439651e-01  8.2962760334686048e-01  8.1517668493568096e-01  8.0043556896961454e-01  7.8706889665051483e-01  7.7637191500064684e-01  7.6885152865778017e-01  7.6425045114526591e-01  7.6207041154385546e-01  7.6167136626106158e-01  7.6236404066635688e-01  7.6359985424901278e-01  7.6498337891698820e-01  7.6606694662524988e-01  7.6641462863296672e-01  7.6586942013348802e-01  7.6453576274247648e-01  7.6264555997259353e-01  7.6044801682123331e-01  7.5815371912164764e-01  7.5592062855961273e-01  7.5386453463936864e-01  7.5205568300640602e-01  7.5045755251877144e-01  7.4886559029578925e-01  7.4699398347825718e-01  7.4476352037969340e-01  7.4255721834855870e-01  7.4100305243297271e-01  7.4045241036377585e-01  7.4077771782148649e-01  7.4158064281223501e-01  7.4254065511997358e-01  7.4361354305463623e-01  7.4486382422388930e-01  7.4619437124473131e-01  7.4738983152432559e-01  7.4832842686136625e-01  7.4904345509677484e-01  7.4962609519929380e-01  7.5017709630253726e-01  7.5080547789540364e-01  7.5162813207497192e-01  7.5274103174515239e-01  7.5415510646023276e-01  7.5572509528456644e-01  7.5716332801005015e-01  7.5817029044785722e-01  7.5845103810662640e-01  7.5776368355339963e-01  7.5626610288549811e-01  7.5438061135208478e-01  7.5231002528234070e-01  7.5003852057069498e-01  7.4749812738152965e-01  7.4473426836831358e-01  7.4200793194929493e-01  7.3980829992164732e-01  7.3873612398594468e-01  7.3934688939483373e-01  7.4213038816120513e-01  7.4750832821426250e-01  7.5555740758292500e-01  7.6572631977142169e-01  7.7691667951420240e-01  7.8776312260647630e-01  7.9675667888405388e-01  8.0238207042151410e-01  8.0365528877084647e-01  8.0051967157098947e-01  7.9362072311364229e-01  7.8381942314933850e-01  7.7207530065101981e-01  7.5947580963356054e-01  7.4717037505304384e-01  7.3623502438699739e-01  7.2747881267094294e-01  7.2117001062454777e-01  7.1698735341511644e-01  7.1413766794520950e-01  7.1153387017182712e-01  7.0799570622837016e-01  7.0258889321712326e-01  6.9480337583155505e-01  6.8461512361129673e-01  6.7270130028580766e-01  6.6045929877564558e-01  6.4962744539778394e-01  6.4126738603837474e-01  6.3536165552888779e-01  6.3153209005581201e-01  6.2967725960181520e-01  6.2950032535891520e-01  6.3016967877928776e-01  6.3076718673701504e-01  6.3047233224064503e-01  6.2905128409239486e-01  6.2709640218423801e-01  6.2558555762063195e-01  6.2504092209560214e-01  6.2539204071378984e-01  6.2599710427421584e-01  6.2580878668411366e-01  6.2425573160418157e-01  6.2199140766659144e-01  6.2013107848728266e-01  6.1945737203048001e-01  6.2026739147541066e-01  6.2212504756125586e-01  6.2387137543163373e-01  6.2435369100393368e-01  6.2326563690848413e-01  6.2093751194982383e-01  6.1792212892748044e-01  6.1472711033002869e-01  6.1170159006732339e-01  6.0900783915109913e-01  6.0661235544311243e-01  6.0421944150897011e-01  6.0117489574071703e-01  5.9685773551496701e-01  5.9153658873987847e-01  5.8618414690795517e-01  5.8142572929488123e-01  5.7731412802620385e-01  5.7359155195516254e-01  5.6993245006595028e-01  5.6613967652039421e-01  5.6228346329516143e-01  5.5860507683106020e-01  5.5524176495574773e-01  5.5217342082505438e-01  5.4930735402840380e-01  5.4653760599427481e-01  5.4376705506216938e-01  5.4091167909557081e-01  5.3790084189450893e-01  5.3468410517728593e-01  5.3124769539719519e-01  5.2764607646846151e-01  5.2402821597681037e-01  5.2059092888915270e-01  5.1749167873186730e-01  5.1482793672888982e-01  5.1264862162916480e-01  5.1097663233148927e-01  5.0981366416315099e-01  5.0912695414756293e-01  5.0881535834252734e-01  5.0872003583709480e-01  5.0880931001530405e-01  5.0920242458938481e-01  5.0942308955567350e-01  5.0750062580702748e-01  5.0128863302139903e-01  4.9142669748727386e-01  4.8059458155987017e-01  4.7134848435079169e-01  4.6440379109238072e-01  4.5871387604754288e-01  4.5235520928741302e-01  4.4361608100897704e-01  4.3012100583439689e-01  4.0912880188321088e-01  3.8305665730244048e-01  3.5369213270663102e-01  3.1939404746923350e-01  2.7850038816752654e-01  2.3391862426466500e-01  1.9162183922303275e-01  1.5455951088570161e-01  1.2320500074982538e-01  9.7084871172227999e-02  7.5678606039983151e-02  5.8496622716045409e-02  4.4949003741321908e-02  3.4396065184131026e-02  2.6238142213236743e-02  1.9962493649915578e-02  1.5151746198931957e-02  1.1474464337196606e-02  8.6707881761215189e-03  6.5383726785235453e-03  4.9203111888999713e-03  3.6953167937455763e-03  2.7699157551122630e-03  2.0722999986185898e-03  1.5474825094248211e-03  1.1534748604252935e-03  8.5829487769422286e-04  6.3762375341676661e-04  4.7300448200950540e-04  3.5044974116303022e-04  2.5938558675218438e-04  1.9183668469104970e-04  1.4180937493072805e-04  1.0481450736482422e-04  7.7504460830277077e-05  5.7393002782123908e-05  4.2644075049699759e-05  3.1910505023273680e-05  2.4215152080636297e-05  1.8862736261063120e-05  1.5381084850610673e-05  1.3490678723622474e-05  1.3136541445569123e-05  8.9055987010165094e-01  8.8942138843366092e-01  8.8763969910866991e-01  8.8504981587599474e-01  8.8135849868178850e-01  8.7629261965824223e-01  8.6964376788432607e-01  8.6132518696562121e-01  8.5152487789617182e-01  8.4092835221064988e-01  8.3070618474071045e-01  8.2207325397659803e-01  8.1586696206004683e-01  8.1249912991043938e-01  8.1208297760621073e-01  8.1451525852849627e-01  8.1942624493376737e-01  8.2607395302219400e-01  8.3337898857054438e-01  8.4017496009721160e-01  8.4549121995967846e-01  8.4864921817640182e-01  8.4920310953478173e-01  8.4677534384081710e-01  8.4088332942777377e-01  8.3120578666226397e-01  8.1808394101172988e-01  8.0245388589071198e-01  7.8580203272008708e-01  7.6998464055696092e-01  7.5673472854542001e-01  7.4694825980512047e-01  7.4048669179046311e-01  7.3692433080302377e-01  7.3562952503169998e-01  7.3580076591071619e-01  7.3676469125438970e-01  7.3807537629531494e-01  7.3917173655275648e-01  7.3945095439646680e-01  7.3871445511620315e-01  7.3710121005174267e-01  7.3488931946786551e-01  7.3236215414425221e-01  7.2974870238021838e-01  7.2721363215766366e-01  7.2487861119402397e-01  7.2283443543980852e-01  7.2106012572478506e-01  7.1931430328460244e-01  7.1720908248929383e-01  7.1457801270955512e-01  7.1189280790633125e-01  7.1000164767683149e-01  7.0936633670193583e-01  7.0979708867203173e-01  7.1075613486079803e-01  7.1182267562234747e-01  7.1298562993848802e-01  7.1439929488977005e-01  7.1594980506830563e-01  7.1733341518146154e-01  7.1838864191512819e-01  7.1917953192081541e-01  7.1982196691744638e-01  7.2042736109897709e-01  7.2111398883283839e-01  7.2201589670888222e-01  7.2325320832704132e-01  7.2485611949549500e-01  7.2666245008852925e-01  7.2831433825796199e-01  7.2947257820476508e-01  7.2981595009260869e-01  7.2897611999143563e-01  7.2715497751016267e-01  7.2498220889170373e-01  7.2270075163530745e-01  7.2025250324026535e-01  7.1752013969512352e-01  7.1452833206726218e-01  7.1155951396100381e-01  7.0917616694232477e-01  7.0807771616194259e-01  7.0887890014091748e-01  7.1210596983364016e-01  7.1825887511056319e-01  7.2744627968636399e-01  7.3900983108499030e-01  7.5167128427104024e-01  7.6394854406866108e-01  7.7419999632096015e-01  7.8059220001264595e-01  7.8187862353417703e-01  7.7803405377901336e-01  7.6993972598613025e-01  7.5863094711902102e-01  7.4520703102520325e-01  7.3092559362724618e-01  7.1711070732380566e-01  7.0499732902513368e-01  6.9556404683348239e-01  6.8917225660921422e-01  6.8551989372053912e-01  6.8372806825035037e-01  6.8247675707331223e-01  6.8025574283426937e-01  6.7579190895713381e-01  6.6834148788136982e-01  6.5772523628534962e-01  6.4457794903228571e-01  6.3053749524470704e-01  6.1779063064809636e-01  6.0775382839588865e-01  6.0045201419379346e-01  5.9539362607166679e-01  5.9256199411677168e-01  5.9180092468772127e-01  5.9214557586996497e-01  5.9258496040519471e-01  5.9214831629591080e-01  5.9048055052663562e-01  5.8819645755950389e-01  5.8647564244283457e-01  5.8590871726428961e-01  5.8642591126394461e-01  5.8737877098352187e-01  5.8755556213665572e-01  5.8612387184148018e-01  5.8382815623199558e-01  5.8199181363867014e-01  5.8145080880397415e-01  5.8255859596481996e-01  5.8490328511546330e-01  5.8719358750610784e-01  5.8802898660330349e-01  5.8709304499820536e-01  5.8480237111216771e-01  5.8177598419757803e-01  5.7855594790869780e-01  5.7549730359582763e-01  5.7274599798584969e-01  5.7024401219051013e-01  5.6772100671369674e-01  5.6454667920655899e-01  5.5996038822245087e-01  5.5419272651617835e-01  5.4843824242640660e-01  5.4342423703747655e-01  5.3915584873095102e-01  5.3531567086467446e-01  5.3154059815799248e-01  5.2759975931235381e-01  5.2356187532245479e-01  5.1972062573744049e-01  5.1623240775349755e-01  5.1305604675571026e-01  5.1007510610718709e-01  5.0717001036398401e-01  5.0423884499771587e-01  5.0119811643241841e-01  4.9798097947499248e-01  4.9454186420660468e-01  4.9087123020964207e-01  4.8702451896386650e-01  4.8316211493052597e-01  4.7950511086207770e-01  4.7622301419759316e-01  4.7341675398936828e-01  4.7113532399500385e-01  4.6940636944283282e-01  4.6824626855902757e-01  4.6765694372801031e-01  4.6759830314210188e-01  4.6797008428801046e-01  4.6870654052156563e-01  4.6984354171269926e-01  4.7089252676775184e-01  4.7012146600293120e-01  4.6553028360531917e-01  4.5772916522134571e-01  4.4933022471032741e-01  4.4246655813952734e-01  4.3790209669151725e-01  4.3476739897157657e-01  4.3124577074288306e-01  4.2550086958451272e-01  4.1582776972036117e-01  3.9968987155512514e-01  3.7870385349123115e-01  3.5445320189559465e-01  3.2516462417579922e-01  2.8855500637990528e-01  2.4632921042750808e-01  2.0418461252485345e-01  1.6598620632388966e-01  1.3295115607821131e-01  1.0497962108195642e-01  8.1831421471294644e-02  6.3200746635106733e-02  4.8521093790091445e-02  3.7103111942881635e-02  2.8288054496230057e-02  2.1513948762587352e-02  1.6325313204978785e-02  1.2361635387004393e-02  9.3409525512912640e-03  7.0441625808314685e-03  5.3016490734579995e-03  3.9824715690064223e-03  2.9858333337501913e-03  2.2343778532935353e-03  1.6689161246786508e-03  1.2442813139474510e-03  9.2607238191798704e-04  6.8813224214619561e-04  5.1059514056493857e-04  3.7840180685016269e-04  2.8015783886188979e-04  2.0726902043495930e-04  1.5327285620856136e-04  1.1333057752186157e-04  8.3833125601663925e-05  6.2101752959529085e-05  4.6157656412833084e-05  3.4549840275996933e-05  2.6224811814679630e-05  2.0432573858899216e-05  1.6657586043389547e-05  1.4570558556231123e-05  1.3978179158894482e-05  8.4686359765397268e-01  8.4599599785000801e-01  8.4417978776707503e-01  8.4109247893780414e-01  8.3637890285753358e-01  8.2967954451957537e-01  8.2068093686015897e-01  8.0915120921447425e-01  7.9517546284348062e-01  7.7971767235362854e-01  7.6478733989577152e-01  7.5242450247378967e-01  7.4378018544727309e-01  7.3925504117732410e-01  7.3890701910221157e-01  7.4265350248194395e-01  7.5014008562406365e-01  7.6041728473253445e-01  7.7191494401748362e-01  7.8295867225788618e-01  7.9236471874918091e-01  7.9949945916620613e-01  8.0394201052585168e-01  8.0530001655617378e-01  8.0273748492459363e-01  7.9509886751079828e-01  7.8188147468261338e-01  7.6365035818247329e-01  7.4202723814114402e-01  7.1920616716462016e-01  6.9801638713655967e-01  6.8081700758383568e-01  6.6808408828328025e-01  6.5967529190834917e-01  6.5502672645047211e-01  6.5303718062298766e-01  6.5265871091570782e-01  6.5336328462511795e-01  6.5427847917411375e-01  6.5419103157146019e-01  6.5276256842052383e-01  6.5024527888377248e-01  6.4704905794238543e-01  6.4354431547431579e-01  6.4000078327051735e-01  6.3658908327256203e-01  6.3343024449992413e-01  6.3067131685432010e-01  6.2835579898389604e-01  6.2615183352571102e-01  6.2337684742863442e-01  6.1954303961339452e-01  6.1535123700023586e-01  6.1237230510140783e-01  6.1143307222071519e-01  6.1214325453481033e-01  6.1353995635213698e-01  6.1486847730327587e-01  6.1621592430186101e-01  6.1807384744524529e-01  6.2028794925190089e-01  6.2224459802976329e-01  6.2363746074067672e-01  6.2465157363734336e-01  6.2548065811455089e-01  6.2625809582300296e-01  6.2712225048955972e-01  6.2825230900023132e-01  6.2983820379467204e-01  6.3197218376195952e-01  6.3446721698866659e-01  6.3673168906370636e-01  6.3828556495445454e-01  6.3884041406746994e-01  6.3755495458710598e-01  6.3468677706496834e-01  6.3166047603251430e-01  6.2882789405805117e-01  6.2597578957965583e-01  6.2283445058193210e-01  6.1937114000729210e-01  6.1592579423042815e-01  6.1325332505671493e-01  6.1232661862085513e-01  6.1391135499939631e-01  6.1858048004269028e-01  6.2708749297983435e-01  6.3967261725310032e-01  6.5536627147077930e-01  6.7230227510292129e-01  6.8865342040994637e-01  7.0258584423946224e-01  7.1129223486466109e-01  7.1255421923944606e-01  7.0636969250388282e-01  6.9446367289845623e-01  6.7846400358278591e-01  6.5993230030154637e-01  6.4071426400996412e-01  6.2268465492710723e-01  6.0744952003184727e-01  5.9641548074224304e-01  5.9011386218764028e-01  5.8830412317674419e-01  5.8995178939297144e-01  5.9315037277299931e-01  5.9544628436312996e-01  5.9451608297929570e-01  5.8878595246418375e-01  5.7770252006791734e-01  5.6183522057648050e-01  5.4333919885173076e-01  5.2562663964541878e-01  5.1113658127356443e-01  5.0010608184248639e-01  4.9182035904739868e-01  4.8618606270955572e-01  4.8342862048410690e-01  4.8237970825440291e-01  4.8192676958193936e-01  4.8089260598675770e-01  4.7871718471419922e-01  4.7585518095489293e-01  4.7376700695892821e-01  4.7317942779070077e-01  4.7403100305963775e-01  4.7572109258142870e-01  4.7697794527094567e-01  4.7643765885626832e-01  4.7474509525075193e-01  4.7355656002936802e-01  4.7373945297566283e-01  4.7571272427577033e-01  4.7911976030460668e-01  4.8264099157824736e-01  4.8447248220215255e-01  4.8422250596278055e-01  4.8245068871348434e-01  4.7987016321488279e-01  4.7704975952973833e-01  4.7432228463289894e-01  4.7176572569400976e-01  4.6921391855314659e-01  4.6634821313737806e-01  4.6283291766090523e-01  4.5799830647093370e-01  4.5180060558839630e-01  4.4563578730493514e-01  4.4039422012651042e-01  4.3601511168599644e-01  4.3210095762374728e-01  4.2826855278036963e-01  4.2427656190473445e-01  4.2015211729603941e-01  4.1623314536745859e-01  4.1269781641502012e-01  4.0946354389555262e-01  4.0636422170597586e-01  4.0325297751614320e-01  4.0002211988769082e-01  3.9659913709108080e-01  3.9294001740831080e-01  3.8902901942792234e-01  3.8488637291176320e-01  3.8058532568061826e-01  3.7629259418383115e-01  3.7226032811631116e-01  3.6867373616061300e-01  3.6563933851877267e-01  3.6320596516642434e-01  3.6141017513642776e-01  3.6029399360800485e-01  3.5992414246770887e-01  3.6038493092025536e-01  3.6174236085774653e-01  3.6400785432805921e-01  3.6710524078765860e-01  3.7041050517377760e-01  3.7233788112136779e-01  3.7156989698100001e-01  3.6913338675883467e-01  3.6697416351760886e-01  3.6651668928436520e-01  3.6828292993328898e-01  3.7172531159832878e-01  3.7534934858245722e-01  3.7736221263209174e-01  3.7645400224351544e-01  3.7154699912298578e-01  3.6361768610442008e-01  3.5327426261262118e-01  3.3764615436872736e-01  3.1296342673340816e-01  2.7902275873942295e-01  2.3997467770231223e-01  2.0038725413854433e-01  1.6330741668517235e-01  1.3005513368339755e-01  1.0158160297107410e-01  7.8406524447565268e-02  6.0127554824765193e-02  4.5929530051766226e-02  3.4986187066790901e-02  2.6590209118633371e-02  2.0169024208923761e-02  1.5269952364063120e-02  1.1539862477809935e-02  8.7052989754926643e-03  6.5552870417811574e-03  4.9274394673777897e-03  3.6970881499510003e-03  2.7687945557435833e-03  2.0696886666017873e-03  1.5442330178486242e-03  1.1501457019286445e-03  8.5524884897788156e-04  6.3507402057304003e-04  4.7103557220067244e-04  3.4905301716084484e-04  2.5848981431508442e-04  1.9134621161040526e-04  1.4162886762952853e-04  1.0487007793108954e-04  7.7753339511814779e-05  5.7830451807293828e-05  4.3304827350370211e-05  3.2872096543226219e-05  2.5601084669140789e-05  2.0849323575518955e-05  1.8201249279284596e-05  1.7423848383794771e-05  7.5779022966945142e-01  7.5736102731133725e-01  7.5551711394843568e-01  7.5157386971600570e-01  7.4508858136603773e-01  7.3552818634469486e-01  7.2243266998231204e-01  7.0533905365247884e-01  6.8406010586860599e-01  6.6000459309051096e-01  6.3697670555116837e-01  6.1864786415826334e-01  6.0641093898536746e-01  6.0031564998819731e-01  6.0017218854218291e-01  6.0596487729748327e-01  6.1757776005925269e-01  6.3395341075873246e-01  6.5274396265110635e-01  6.7130103205255487e-01  6.8805799070582307e-01  7.0261112470807119e-01  7.1461501185980925e-01  7.2383763316463323e-01  7.2900402866646041e-01  7.2743167629845273e-01  7.1741641357706964e-01  6.9852001583291345e-01  6.7197936746713816e-01  6.3990503765049522e-01  6.0658553494449596e-01  5.7717365308848401e-01  5.5382190314330504e-01  5.3681114490746207e-01  5.2560922476278493e-01  5.1884930750836689e-01  5.1492271593448580e-01  5.1311036814497568e-01  5.1250178734284424e-01  5.1111952577189934e-01  5.0829907275620079e-01  5.0437308448164608e-01  4.9985498851900839e-01  4.9516451639227654e-01  4.9057540116771586e-01  4.8623348366072117e-01  4.8221673226853712e-01  4.7865551794347211e-01  4.7567948815947841e-01  4.7293421668347158e-01  4.6960289318974374e-01  4.6485778925787580e-01  4.5931304520675886e-01  4.5513062348023631e-01  4.5362879443842202e-01  4.5434615709073384e-01  4.5601518298925842e-01  4.5753791853756398e-01  4.5888993621774737e-01  4.6094212561870634e-01  4.6366413651046967e-01  4.6617740333528990e-01  4.6790065998691244e-01  4.6912555374404408e-01  4.7014868118321013e-01  4.7111487615840053e-01  4.7216234576161281e-01  4.7348926789914081e-01  4.7532848688403301e-01  4.7782658786278809e-01  4.8082998806766053e-01  4.8364739945829766e-01  4.8545047054338303e-01  4.8623632342232925e-01  4.8488907734943221e-01  4.8115416190852656e-01  4.7744315083692440e-01  4.7441027362820992e-01  4.7166898418011444e-01  4.6881122728988983e-01  4.6574773821060744e-01  4.6284814520099016e-01  4.6095597605572064e-01  4.6120303127690920e-01  4.6451979962799322e-01  4.7141349002563487e-01  4.8276966031196927e-01  4.9911484105916620e-01  5.1939345481048282e-01  5.4126657751945673e-01  5.6219481152741502e-01  5.8029036103881715e-01  5.9174553732524171e-01  5.9276291126396807e-01  5.8282792131948369e-01  5.6502664906332434e-01  5.4234555727696365e-01  5.1736358194486565e-01  4.9273586078147263e-01  4.7099318053166545e-01  4.5367568523875157e-01  4.4229912097648116e-01  4.3736537671849718e-01  4.3871681449902022e-01  4.4551448357583617e-01  4.5565527727173782e-01  4.6569462330012235e-01  4.7170283271412899e-01  4.7053467994561476e-01  4.6095304794713537e-01  4.4383613396013832e-01  4.2195624517272456e-01  3.9975411769149283e-01  3.8080473881551796e-01  3.6588760738247494e-01  3.5439420799427590e-01  3.4590723616688018e-01  3.4035653241929581e-01  3.3693393600831767e-01  3.3460663403090585e-01  3.3245597424553791e-01  3.2994900919264025e-01  3.2727740052878451e-01  3.2535378043107238e-01  3.2483037344423737e-01  3.2572569111302763e-01  3.2763876495269278e-01  3.2970598284146962e-01  3.3088560241293563e-01  3.3126435288262368e-01  3.3191765871683498e-01  3.3358964687721182e-01  3.3657651274803685e-01  3.4063460006696333e-01  3.4472659435069797e-01  3.4755642961395483e-01  3.48653162421