<?xml version="1.0"?>
<VTKFile type="UnstructuredGrid"  version="0.1"  >
<UnstructuredGrid>
<Piece  NumberOfPoints="7161" NumberOfCells="13800">
<Points>
<DataArray  type="Float64"  NumberOfComponents="3"  format="ascii">0 0 0  0.01652173913043478 0 0  0.03304347826086956 0 0  0.04956521739130434 0 0  0.06608695652173913 0 0  0.08260869565217391 0 0  0.09913043478260869 0 0  0.1156521739130435 0 0  0.1321739130434783 0 0  0.148695652173913 0 0  0.1652173913043478 0 0  0.1817391304347826 0 0  0.1982608695652174 0 0  0.2147826086956522 0 0  0.2313043478260869 0 0  0.2478260869565218 0 0  0.2643478260869565 0 0  0.2808695652173913 0 0  0.2973913043478261 0 0  0.3139130434782609 0 0  0.3304347826086956 0 0  0.3469565217391304 0 0  0.3634782608695652 0 0  0.3799999999999999 0 0  0.3965217391304348 0 0  0.4130434782608696 0 0  0.4295652173913043 0 0  0.4460869565217391 0 0  0.4626086956521739 0 0  0.4791304347826086 0 0  0.4956521739130435 0 0  0.5121739130434783 0 0  0.528695652173913 0 0  0.5452173913043478 0 0  0.5617391304347825 0 0  0.5782608695652174 0 0  0.5947826086956521 0 0  0.6113043478260869 0 0  0.6278260869565218 0 0  0.6443478260869565 0 0  0.6608695652173913 0 0  0.677391304347826 0 0  0.6939130434782609 0 0  0.7104347826086956 0 0  0.7269565217391304 0 0  0.7434782608695653 0 0  0.7599999999999999 0 0  0.7765217391304348 0 0  0.7930434782608695 0 0  0.8095652173913043 0 0  0.8260869565217391 0 0  0.8426086956521739 0 0  0.8591304347826086 0 0  0.8756521739130434 0 0  0.8921739130434783 0 0  0.908695652173913 0 0  0.9252173913043478 0 0  0.9417391304347826 0 0  0.9582608695652173 0 0  0.9747826086956521 0 0  0.991304347826087 0 0  1.007826086956522 0 0  1.024347826086957 0 0  1.040869565217391 0 0  1.057391304347826 0 0  1.073913043478261 0 0  1.090434782608696 0 0  1.10695652173913 0 0  1.123478260869565 0 0  1.14 0 0  1.156521739130435 0 0  1.17304347826087 0 0  1.189565217391304 0 0  1.206086956521739 0 0  1.222608695652174 0 0  1.239130434782609 0 0  1.255652173913044 0 0  1.272173913043478 0 0  1.288695652173913 0 0  1.305217391304348 0 0  1.321739130434783 0 0  1.338260869565217 0 0  1.354782608695652 0 0  1.371304347826087 0 0  1.387826086956522 0 0  1.404347826086957 0 0  1.420869565217391 0 0  1.437391304347826 0 0  1.453913043478261 0 0  1.470434782608696 0 0  1.486956521739131 0 0  1.503478260869565 0 0  1.52 0 0  1.536521739130435 0 0  1.55304347826087 0 0  1.569565217391304 0 0  1.586086956521739 0 0  1.602608695652174 0 0  1.619130434782609 0 0  1.635652173913043 0 0  1.652173913043478 0 0  1.668695652173913 0 0  1.685217391304348 0 0  1.701739130434782 0 0  1.718260869565217 0 0  1.734782608695652 0 0  1.751304347826087 0 0  1.767826086956522 0 0  1.784347826086957 0 0  1.800869565217391 0 0  1.817391304347826 0 0  1.833913043478261 0 0  1.850434782608696 0 0  1.86695652173913 0 0  1.883478260869565 0 0  1.9 0 0  1.916521739130435 0 0  1.933043478260869 0 0  1.949565217391304 0 0  1.966086956521739 0 0  1.982608695652174 0 0  1.999130434782608 0 0  2.015652173913043 0 0  2.032173913043478 0 0  2.048695652173913 0 0  2.065217391304348 0 0  2.081739130434782 0 0  2.098260869565217 0 0  2.114782608695652 0 0  2.131304347826087 0 0  2.147826086956522 0 0  2.164347826086956 0 0  2.180869565217391 0 0  2.197391304347826 0 0  2.213913043478261 0 0  2.230434782608695 0 0  2.24695652173913 0 0  2.263478260869565 0 0  2.28 0 0  2.296521739130434 0 0  2.31304347826087 0 0  2.329565217391304 0 0  2.346086956521739 0 0  2.362608695652174 0 0  2.379130434782609 0 0  2.395652173913044 0 0  2.412173913043478 0 0  2.428695652173913 0 0  2.445217391304348 0 0  2.461739130434782 0 0  2.478260869565217 0 0  2.494782608695652 0 0  2.511304347826087 0 0  2.527826086956522 0 0  2.544347826086956 0 0  2.560869565217391 0 0  2.577391304347826 0 0  2.593913043478261 0 0  2.610434782608696 0 0  2.62695652173913 0 0  2.643478260869565 0 0  2.66 0 0  2.676521739130435 0 0  2.693043478260869 0 0  2.709565217391304 0 0  2.726086956521739 0 0  2.742608695652174 0 0  2.759130434782609 0 0  2.775652173913044 0 0  2.792173913043478 0 0  2.808695652173913 0 0  2.825217391304347 0 0  2.841739130434783 0 0  2.858260869565217 0 0  2.874782608695652 0 0  2.891304347826087 0 0  2.907826086956522 0 0  2.924347826086957 0 0  2.940869565217391 0 0  2.957391304347826 0 0  2.973913043478261 0 0  2.990434782608696 0 0  3.006956521739131 0 0  3.023478260869565 0 0  3.04 0 0  3.056521739130435 0 0  3.073043478260869 0 0  3.089565217391304 0 0  3.106086956521739 0 0  3.122608695652174 0 0  3.139130434782609 0 0  3.155652173913043 0 0  3.172173913043478 0 0  3.188695652173913 0 0  3.205217391304347 0 0  3.221739130434782 0 0  3.238260869565217 0 0  3.254782608695652 0 0  3.271304347826087 0 0  3.287826086956521 0 0  3.304347826086957 0 0  3.320869565217391 0 0  3.337391304347826 0 0  3.353913043478261 0 0  3.370434782608696 0 0  3.386956521739131 0 0  3.403478260869565 0 0  3.419999999999999 0 0  3.436521739130435 0 0  3.453043478260869 0 0  3.469565217391304 0 0  3.486086956521739 0 0  3.502608695652174 0 0  3.519130434782609 0 0  3.535652173913043 0 0  3.552173913043478 0 0  3.568695652173913 0 0  3.585217391304347 0 0  3.601739130434782 0 0  3.618260869565217 0 0  3.634782608695652 0 0  3.651304347826087 0 0  3.667826086956521 0 0  3.684347826086956 0 0  3.700869565217391 0 0  3.717391304347826 0 0  3.733913043478261 0 0  3.750434782608695 0 0  3.766956521739131 0 0  3.783478260869565 0 0  3.8 0 0  0 0.01666666666666667 0  0.01652173913043478 0.01666666666666667 0  0.03304347826086956 0.01666666666666667 0  0.04956521739130434 0.01666666666666667 0  0.06608695652173913 0.01666666666666667 0  0.08260869565217391 0.01666666666666667 0  0.09913043478260869 0.01666666666666667 0  0.1156521739130435 0.01666666666666667 0  0.1321739130434783 0.01666666666666667 0  0.148695652173913 0.01666666666666667 0  0.1652173913043478 0.01666666666666667 0  0.1817391304347826 0.01666666666666667 0  0.1982608695652174 0.01666666666666667 0  0.2147826086956522 0.01666666666666667 0  0.2313043478260869 0.01666666666666667 0  0.2478260869565218 0.01666666666666667 0  0.2643478260869565 0.01666666666666667 0  0.2808695652173913 0.01666666666666667 0  0.2973913043478261 0.01666666666666667 0  0.3139130434782609 0.01666666666666667 0  0.3304347826086956 0.01666666666666667 0  0.3469565217391304 0.01666666666666667 0  0.3634782608695652 0.01666666666666667 0  0.3799999999999999 0.01666666666666667 0  0.3965217391304348 0.01666666666666667 0  0.4130434782608696 0.01666666666666667 0  0.4295652173913043 0.01666666666666667 0  0.4460869565217391 0.01666666666666667 0  0.4626086956521739 0.01666666666666667 0  0.4791304347826086 0.01666666666666667 0  0.4956521739130435 0.01666666666666667 0  0.5121739130434783 0.01666666666666667 0  0.528695652173913 0.01666666666666667 0  0.5452173913043478 0.01666666666666667 0  0.5617391304347825 0.01666666666666667 0  0.5782608695652174 0.01666666666666667 0  0.5947826086956521 0.01666666666666667 0  0.6113043478260869 0.01666666666666667 0  0.6278260869565218 0.01666666666666667 0  0.6443478260869565 0.01666666666666667 0  0.6608695652173913 0.01666666666666667 0  0.677391304347826 0.01666666666666667 0  0.6939130434782609 0.01666666666666667 0  0.7104347826086956 0.01666666666666667 0  0.7269565217391304 0.01666666666666667 0  0.7434782608695653 0.01666666666666667 0  0.7599999999999999 0.01666666666666667 0  0.7765217391304348 0.01666666666666667 0  0.7930434782608695 0.01666666666666667 0  0.8095652173913043 0.01666666666666667 0  0.8260869565217391 0.01666666666666667 0  0.8426086956521739 0.01666666666666667 0  0.8591304347826086 0.01666666666666667 0  0.8756521739130434 0.01666666666666667 0  0.8921739130434783 0.01666666666666667 0  0.908695652173913 0.01666666666666667 0  0.9252173913043478 0.01666666666666667 0  0.9417391304347826 0.01666666666666667 0  0.9582608695652173 0.01666666666666667 0  0.9747826086956521 0.01666666666666667 0  0.991304347826087 0.01666666666666667 0  1.007826086956522 0.01666666666666667 0  1.024347826086957 0.01666666666666667 0  1.040869565217391 0.01666666666666667 0  1.057391304347826 0.01666666666666667 0  1.073913043478261 0.01666666666666667 0  1.090434782608696 0.01666666666666667 0  1.10695652173913 0.01666666666666667 0  1.123478260869565 0.01666666666666667 0  1.14 0.01666666666666667 0  1.156521739130435 0.01666666666666667 0  1.17304347826087 0.01666666666666667 0  1.189565217391304 0.01666666666666667 0  1.206086956521739 0.01666666666666667 0  1.222608695652174 0.01666666666666667 0  1.239130434782609 0.01666666666666667 0  1.255652173913044 0.01666666666666667 0  1.272173913043478 0.01666666666666667 0  1.288695652173913 0.01666666666666667 0  1.305217391304348 0.01666666666666667 0  1.321739130434783 0.01666666666666667 0  1.338260869565217 0.01666666666666667 0  1.354782608695652 0.01666666666666667 0  1.371304347826087 0.01666666666666667 0  1.387826086956522 0.01666666666666667 0  1.404347826086957 0.01666666666666667 0  1.420869565217391 0.01666666666666667 0  1.437391304347826 0.01666666666666667 0  1.453913043478261 0.01666666666666667 0  1.470434782608696 0.01666666666666667 0  1.486956521739131 0.01666666666666667 0  1.503478260869565 0.01666666666666667 0  1.52 0.01666666666666667 0  1.536521739130435 0.01666666666666667 0  1.55304347826087 0.01666666666666667 0  1.569565217391304 0.01666666666666667 0  1.586086956521739 0.01666666666666667 0  1.602608695652174 0.01666666666666667 0  1.619130434782609 0.01666666666666667 0  1.635652173913043 0.01666666666666667 0  1.652173913043478 0.01666666666666667 0  1.668695652173913 0.01666666666666667 0  1.685217391304348 0.01666666666666667 0  1.701739130434782 0.01666666666666667 0  1.718260869565217 0.01666666666666667 0  1.734782608695652 0.01666666666666667 0  1.751304347826087 0.01666666666666667 0  1.767826086956522 0.01666666666666667 0  1.784347826086957 0.01666666666666667 0  1.800869565217391 0.0166666666666666
[...]
<PointData  Scalars="rho_bar"> 
<DataArray  type="Float64"  Name="rho_bar"  format="ascii">9.9989459186377494e-01  9.9990161811666811e-01  1.0000246149494261e+00  9.9983779140330042e-01  9.9925886911445272e-01  9.9825584982884907e-01  9.9723780452580646e-01  9.9711622533242694e-01  9.9846677318977339e-01  1.0006576768071540e+00  1.0020642494085128e+00  1.0016275528715599e+00  1.0001377395100350e+00  9.9892701692937813e-01  9.9810701789465850e-01  9.9722960228007174e-01  9.9634860216970422e-01  9.9580249844165747e-01  9.9597879419374669e-01  9.9695290923423951e-01  9.9800587908614458e-01  9.9846271835421430e-01  9.9848151683155728e-01  9.9834884431338822e-01  9.9763484486137299e-01  9.9575730771352899e-01  9.9422454508935509e-01  9.9399512893969222e-01  9.9262521068951293e-01  9.8905228154555580e-01  9.8437371388972972e-01  9.7989697182224167e-01  9.7627721022195524e-01  9.7373672749240858e-01  9.7227878618410846e-01  9.7180798591921358e-01  9.7209675081432512e-01  9.7270465620907476e-01  9.7319652139129587e-01  9.7342002429479646e-01  9.7342746205252406e-01  9.7328366021269186e-01  9.7302985113635643e-01  9.7270212419592683e-01  9.7232728047686656e-01  9.7193505469340247e-01  9.7160258957274204e-01  9.7141164810724956e-01  9.7132299221312912e-01  9.7113125366468522e-01  9.7067294410762894e-01  9.7006521661265777e-01  9.6956475557906385e-01  9.6930608257254014e-01  9.6922229194047749e-01  9.6907576850319643e-01  9.6867792752915871e-01  9.6815552006964012e-01  9.6777875727666718e-01  9.6757431143978656e-01  9.6734720598496116e-01  9.6700523571888697e-01  9.6662478513060368e-01  9.6629451975337488e-01  9.6603615091334660e-01  9.6578549999076890e-01  9.6542852972602988e-01  9.6496091039573650e-01  9.6453915933560508e-01  9.6429079616865043e-01  9.6421628577998442e-01  9.6430448229963750e-01  9.6441382735612935e-01  9.6422460575018309e-01  9.6366474615105902e-01  9.6299559430752923e-01  9.6242700600048747e-01  9.6200566390276010e-01  9.6169389627105206e-01  9.6133503010414845e-01  9.6074261371979719e-01  9.5991686424630174e-01  9.5904773515233777e-01  9.5833244219752589e-01  9.5791477561400085e-01  9.5793794582565239e-01  9.5857812040690737e-01  9.6010610890521231e-01  9.6309877636551489e-01  9.6848731023882695e-01  9.7624875088056484e-01  9.8424108262931775e-01  9.9034883148813835e-01  9.9411207717904049e-01  9.9530626624228846e-01  9.9617340318619640e-01  9.9939270300898408e-01  1.0013514726149075e+00  9.9729894468686164e-01  9.8947779024896487e-01  9.8331768033453781e-01  9.8183548050775027e-01  9.8455886759608535e-01  9.8799729205577946e-01  9.8992860293621765e-01  9.9101988928401641e-01  9.9215823148807281e-01  9.9012892390092555e-01  9.7947507380434018e-01  9.6177907563911058e-01  9.4278601842039522e-01  9.2694302746607471e-01  9.1649330631603165e-01  9.1125263332878337e-01  9.0922391678513992e-01  9.0862305307080227e-01  9.0900937086202083e-01  9.1050907420459748e-01  9.1258307928620896e-01  9.1457064175472957e-01  9.1601146754573293e-01  9.1676090691063994e-01  9.1713322397574470e-01  9.1767466585154922e-01  9.1836830376676359e-01  9.1911773097835470e-01  9.1986322371012685e-01  9.2048259909815733e-01  9.2077540605447272e-01  9.2066895722300557e-01  9.2041169454234906e-01  9.2015983778827648e-01  9.1992232610049363e-01  9.1974919512996778e-01  9.1956612716843655e-01  9.1889260620697188e-01  9.1760104484897809e-01  9.1589636967225374e-01  9.1443047727010918e-01  9.1465586265083410e-01  9.1844107943672781e-01  9.2818542650260061e-01  9.4420489434098620e-01  9.6173941277671515e-01  9.7476176641629197e-01  9.8207432299878950e-01  9.8567508805469572e-01  9.8688362062622192e-01  9.8614600931688146e-01  9.8298688740420959e-01  9.7471144104064245e-01  9.5959799604350771e-01  9.4021662599617550e-01  9.1690465202133653e-01  8.8928184755277784e-01  8.6354430190166920e-01  8.4689425328353918e-01  8.4082453337399499e-01  8.4239440657811560e-01  8.4758599733680984e-01  8.5305960233338018e-01  8.5686774179826586e-01  8.5858441354829063e-01  8.5867916313258030e-01  8.5791220951983416e-01  8.5710642355696176e-01  8.5684036575157163e-01  8.5724643778626897e-01  8.5813285527700012e-01  8.5923684280016988e-01  8.6043140544718988e-01  8.6182810217456929e-01  8.6370167786946273e-01  8.6624194827421319e-01  8.6930441930121893e-01  8.7241211061803758e-01  8.7492624383976147e-01  8.7640524137359099e-01  8.7673206300602313e-01  8.7604404643029843e-01  8.7450022009352169e-01  8.7144741491159239e-01  8.6583998348520086e-01  8.5704472353586270e-01  8.4675140299818197e-01  8.4088533541965360e-01  8.4340629178147197e-01  8.4479770928440734e-01  8.2326682640992666e-01  7.6310752854808617e-01  6.4207305924591163e-01  4.3146585623339095e-01  1.9903247332100318e-01  7.1604605640424562e-02  2.5668273103920603e-02  1.0351548112891006e-02  4.7332967612632578e-03  2.2810421339156525e-03  1.2536212906314359e-03  7.2998182432455305e-04  4.4691966304030191e-04  2.8794385723909842e-04  1.8942229346867511e-04  1.2777335615129124e-04  8.7244981068046592e-05  6.0188293200221948e-05  4.1797571974469774e-05  2.9157832803443783e-05  2.0407609688144690e-05  1.4315452551734132e-05  1.0058863817464404e-05  7.0764833350345108e-06  4.9829900833427435e-06  3.5113447425051387e-06  2.4758077663180525e-06  1.7465653644327227e-06  1.2327204216967824e-06  8.7046560648347109e-07  6.1497479612460118e-07  4.3470858333531149e-07  3.0747710105974856e-07  2.1765999937945165e-07  1.5426351402685504e-07  1.0954968762233863e-07  7.8083787613203872e-08  5.6052248433261526e-08  4.0803807083300926e-08  3.0513556408923798e-08  2.3976409671862365e-08  2.0473741376788279e-08  1.9792068992502003e-08  9.9892402998521901e-01  9.9891462101409112e-01  9.9846310217943857e-01  9.9833271653986200e-01  9.9877987814303548e-01  9.9995854857145972e-01  1.0015568474272065e+00  1.0020766655387672e+00  9.9956316315366511e-01  9.9378441580834209e-01  9.8702193968251406e-01  9.8246101139295072e-01  9.8084948477968592e-01  9.8056406018591846e-01  9.8147350529383437e-01  9.8466720536300079e-01  9.8949223159268385e-01  9.9418914671020175e-01  9.9746764986127445e-01  9.9851559658398881e-01  9.9796798036329215e-01  9.9766632008629308e-01  9.9802149051021893e-01  9.9810040086838114e-01  9.9734952940304533e-01  9.9573115166561255e-01  9.9213022001634077e-01  9.8626449579582398e-01  9.8061455503578998e-01  9.7839718521838559e-01  9.7891959727410360e-01  9.7978687642659934e-01  9.7997233020648933e-01  9.7956879602171676e-01  9.7894958621035943e-01  9.7834914389068950e-01  9.7782390073809844e-01  9.7752233099390262e-01  9.7763854330275546e-01  9.7800925094745339e-01  9.7834658294044052e-01  9.7855116576807899e-01  9.7865861044262525e-01  9.7870740526995814e-01  9.7870853273581648e-01  9.7869286211013218e-01  9.7863160863923315e-01  9.7845004024153570e-01  9.7818635350886851e-01  9.7803095460819467e-01  9.7816134970638446e-01  9.7837567780205759e-01  9.7831684080105763e-01  9.7799397212396766e-01  9.7759896502866450e-01  9.7738120470493395e-01  9.7748435750366169e-01  9.7766443742763287e-01  9.7751642631886948e-01  9.7711978243299247e-01  9.7688250717845571e-01  9.7687232333779084e-01  9.7684235323762436e-01  9.7667990303899477e-01  9.7643887544281582e-01  9.7620842800795860e-01  9.7609267683115108e-01  9.7607280920607375e-01  9.7593441572837059e-01  9.7560745832240159e-01  9.7528930459790986e-01  9.7505402390859020e-01  9.7482320635147546e-01  9.7486236709898177e-01  9.7512615860743634e-01  9.7506572716880913e-01  9.7463682089179748e-01  9.7410010688877402e-01  9.7359336610449565e-01  9.7316787953439254e-01  9.7285542804899794e-01  9.7246676794165554e-01  9.7167604799934382e-01  9.7051157275587641e-01  9.6920044324129850e-01  9.6792013841278457e-01  9.6679258257317668e-01  9.6593272090673243e-01  9.6543734678747428e-01  9.6530332160691457e-01  9.6670592728389204e-01  9.7313070785174594e-01  9.8371938150233840e-01  9.9141464706629878e-01  9.9537385055958028e-01  9.9809210259278891e-01  9.9439406784156970e-01  9.8479510732446873e-01  9.8058311037036872e-01  9.8407760238456177e-01  9.8610758090508088e-01  9.8248313531640752e-01  9.7687824449353045e-01  9.7536377088033832e-01  9.8030724419204673e-01  9.8620294384456442e-01  9.8766476538496772e-01  9.8293135390974362e-01  9.7793440801341458e-01  9.6771126784371719e-01  9.3699235180633522e-01  9.0016968077071291e-01  8.7587999681807194e-01  8.6480867288076402e-01  8.6052082916046113e-01  8.5867839546743574e-01  8.5982301070351463e-01  8.6492984273104090e-01  8.7155954265755164e-01  8.7752742865644406e-01  8.8127649226493621e-01  8.8258715078374261e-01  8.8326762699285444e-01  8.8512089979660757e-01  8.8733174716797458e-01  8.8968245274328550e-01  8.9208952028023680e-01  8.9403005171787253e-01  8.9459719022189954e-01  8.9380170233936396e-01  8.9282761042019887e-01  8.9193266283833827e-01  8.9113981051167368e-01  8.9094271570217287e-01  8.9070362855798146e-01  8.8824803295091825e-01  8.8340574570171804e-01  8.7709419587198423e-01  8.7201984724253079e-01  8.7231836229912951e-01  8.8076954960923304e-01  8.9882090266149217e-01  9.2229516143115431e-01  9.4354193058014535e-01  9.5935812981931579e-01  9.7028256218180564e-01  9.7640493460507705e-01  9.7866243104318074e-01  9.7817310798783175e-01  9.7481386099594358e-01  9.6858015022483934e-01  9.5870223564294277e-01  9.3150735484800573e-01  8.7045154338122965e-01  7.9100496591049740e-01  7.2478359875746623e-01  6.8653702725202548e-01  6.7377031480338412e-01  6.7803654457275664e-01  6.9026393708002709e-01  7.0245289208508210e-01  7.0985098533832136e-01  7.1203276129166215e-01  7.1068071584956827e-01  7.0790908230054594e-01  7.0581763812277953e-01  7.0557172503789567e-01  7.0707838235539555e-01  7.0956777967742179e-01  7.1230330011413689e-01  7.1509242539559781e-01  7.1850804201387131e-01  7.2353051457830952e-01  7.3070926436946482e-01  7.3943921893389031e-01  7.4804996693698078e-01  7.5451652220660337e-01  7.5783297634164692e-01  7.5831315328238880e-01  7.5719466013976422e-01  7.5525347596167391e-01  7.5068989276003983e-01  7.4232716389377051e-01  7.3174496200344508e-01  7.2466474493783228e-01  7.3143004404171508e-01  7.5498644824542560e-01  7.8097606385577711e-01  7.8153778958016518e-01  7.4622834860089615e-01  6.6369731444461733e-01  5.0678915154856985e-01  2.8255012033707250e-01  1.1070511034989315e-01  4.1125229066094476e-02  1.6017045501711371e-02  6.2326625799525633e-03  3.0193198355584405e-03  1.5557649007860296e-03  8.5618131436431889e-04  5.2387999037006785e-04  3.2573853654542452e-04  2.1343936877749441e-04  1.4220971892082946e-04  9.6527822250531435e-05  6.6279878477274113e-05  4.5852075314036536e-05  3.1909316628069367e-05  2.2289435663644246e-05  1.5615568829516908e-05  1.0962022380303171e-05  7.7070468449813861e-06  5.4246600363766105e-06  3.8215412020793517e-06  2.6940724253850353e-06  1.9003962197683478e-06  1.3412722785165275e-06  9.4715577194788903e-07  6.6920335435299736e-07  4.7309131437284052e-07  3.3466787488137667e-07  2.3694187219518526e-07  1.6795345648862288e-07  1.1929115384722417e-07  8.5040161805188819e-08  6.1059193770951180e-08  4.4458972219163501e-08  3.3258683302227498e-08  2.6132658643534817e-08  2.2255107837384852e-08  2.1159272014944750e-08  1.0004441666736363e+00  1.0003308357581404e+00  1.0016038834338674e+00  1.0023052715576746e+00  1.0012230225062049e+00  9.9743392227974526e-01  9.9082044208822040e-01  9.8384218354435438e-01  9.8309003446137166e-01  9.9251697542433215e-01  1.0073024781968511e+00  1.0156768287272027e+00  1.0096893305102430e+00  9.9841122529072324e-01  9.9471337148771455e-01  9.9589074895811192e-01  9.9384111345838377e-01  9.8860937520204972e-01  9.8382932831223879e-01  9.8332936122810921e-01  9.8883875952493716e-01  9.9511246305389223e-01  9.9698313513066372e-01  9.9665636975870209e-01  9.9622992752222606e-01  9.9437029589702663e-01  9.8656590929883348e-01  9.7725182050384751e-01  9.6852645052755004e-01  9.4865011010147149e-01  9.1274069444950001e-01  8.7022223262241394e-01  8.3134737457845542e-01  8.0162466199571658e-01  7.8252992354694939e-01  7.7340520569815241e-01  7.7290210912236434e-01  7.7878559277380466e-01  7.8611638565994457e-01  7.9017469313729194e-01  7.9092350086242291e-01  7.8980682807430846e-01  7.8773687415476001e-01  7.8496628105149024e-01  7.8172556100531365e-01  7.7826260041284312e-01  7.7466494877637371e-01  7.7182772705069835e-01  7.7076990468057216e-01  7.7084853011865084e-01  7.6946740114296064e-01  7.6437889506573442e-01  7.5774573435773895e-01  7.5334766620209082e-01  7.5204075518214442e-01  7.5270291350356955e-01  7.5194950236421998e-01  7.4745148172335041e-01  7.4150369520658010e-01  7.3845484897917091e-01  7.3795247775344142e-01  7.3636636320140525e-01  7.3280598406171471e-01  7.2906102043270682e-01  7.2626180734523960e-01  7.2445120437553179e-01  7.2268437830346111e-01  7.1929452505826053e-01  7.1426403692345741e-01  7.1028551433030718e-01  7.0900776539930477e-01  7.0947694472129486e-01  7.1122750066524099e-01  7.1350143157086154e-01  7.1102692946375745e-01  7.0342262834371494e-01  6.9629290800672961e-01  6.9144206094960992e-01  6.8868044484648794e-01  6.8701920344115697e-01  6.8442706767110639e-01  6.7830260537412135e-01  6.6922218996362015e-01  6.6102647612160981e-01  6.5584924904646280e-01  6.5475956757565890e-01  6.5876684231087201e-01  6.6926540670264012e-01  6.8859215142430608e-01  7.2151957291759838e-01  7.7820776221045918e-01  8.6278729256455922e-01  9.4041032940116853e-01  9.7521017356012518e-01  9.8843712471116463e-01  9.8612325192386763e-01  9.8387007151987549e-01  1.0027547728876571e+00  1.0106347256940911e+00  9.6571049269594644e-01  8.9107467071316315e-01  8.3968963890049686e-01  8.4370594495591644e-01  8.9374344217230117e-01  9.4237784755851628e-01  9.6224792769842293e-01  9.6873640737355404e-01  9.6708183309204310e-01  9.4216801142645812e-01  8.1569997805774264e-01  6.1333543274336777e-01  4.6331759834979191e-01  3.8715721441525935e-01  3.5222769058083964e-01  3.3504107766690205e-01  3.2400590573114213e-01  3.1847563903668707e-01  3.2261245713221293e-01  3.3160220809805446e-01  3.4088913624085032e-01  3.4661731292332920e-01  3.4737563612851124e-01  3.4631683973374766e-01  3.4947475459376415e-01  3.5385814958219702e-01  3.5841181575943382e-01  3.6340989819041153e-01  3.6785671104744450e-01  3.6926787803168404e-01  3.6670225500289272e-01  3.6414800338167108e-01  3.6236603017695129e-01  3.6091052833250803e-01  3.6107622820315843e-01  3.6322798512868776e-01  3.6075687077614105e-01  3.5361351224098786e-01  3.4485287546397453e-01  3.3978990815731369e-01  3.4799356992263414e-01  3.7607752154050922e-01  4.3708192250659050e-01  5.4532795041521953e-01  6.9027521891588406e-01  8.2241100389155353e-01  8.9810519501067987e-01  9.2984232849496029e-01  9.4085708295503723e-01  9.3974617793694026e-01  9.2677356265331234e-01  8.9452345556628565e-01  8.1604346265753702e-01  6.5896372922845803e-01  4.5868903616044360e-01  2.9944961059736452e-01  2.0735037673668377e-01  1.6255934419909149e-01  1.4401810873459994e-01  1.3990515633046968e-01  1.4338857386577930e-01  1.4903631290006217e-01  1.5242776688240170e-01  1.5250976507868780e-01  1.5046306104959206e-01  1.4768334073220077e-01  1.4562481052846721e-01  1.4512832952380358e-01  1.4605527730909384e-01  1.4775022455022874e-01  1.4959799330907453e-01  1.5135219763675198e-01  1.5340562065453378e-01  1.5659607341518228e-01  1.6166546349908908e-01  1.6847286331016884e-01  1.7590344530607374e-01  1.8211019983142213e-01  1.8582898945424839e-01  1.8758574529395874e-01  1.8873653230518431e-01  1.9171048023378803e-01  1.9575289440902707e-01  2.0086221219905739e-01  2.1142362705319470e-01  2.3610525796130793e-01  2.9111514803896060e-01  3.9295652034238110e-01  5.2710851309672901e-01  6.3258297128066310e-01  6.8361983424585515e-01  6.9049412700331991e-01  6.4962100827380920e-01  5.3450431263970899e-01  3.3849286837182768e-01  1.4676097454262371e-01  4.7011159359732269e-02  1.7942714699903540e-02  6.7538411945365006e-03  2.7855570531548669e-03  1.5133685348427241e-03  7.8396162489103162e-04  4.8300876487262980e-04  2.9835950272703621e-04  1.9418921133971626e-04  1.2927234691836379e-04  8.7342887415514192e-05  5.9867565473225964e-05  4.1323521751627299e-05  2.8722042152811336e-05  2.0044382215095511e-05  1.4035529942763805e-05  9.8502251513443735e-06  6.9249207316609189e-06  4.8746027982122140e-06  3.4348229099581036e-06  2.4223097172527009e-06  1.7095087550874803e-06  1.2072562164248070e-06  8.5311134725944641e-07  6.0323899786035445e-07  4.2685367815757385e-07  3.0229860449084185e-07  2.1434499979096874e-07  1.5228021513233060e-07  1.0857980453946586e-07  7.7965804541957847e-08  5.6764778654932057e-08  4.2446360275904019e-08  3.3321316813917803e-08  2.8322515840563120e-08  2.6871914259279994e-08  9.9402053117592148e-01  9.9407846739405148e-01  9.8969058636368101e-01  9.8453743225648560e-01  9.8267635220202154e-01  9.8845358966194807e-01  1.0027368558205159e+00  1.0214207062617440e+00  1.0233888062403613e+00  9.7541581376156172e-01  8.6733465894765427e-01  7.1598162436830726e-01  5.6666582923370312e-01  4.7849795512826582e-01  4.7906927722389303e-01  5.6094475653296449e-01  6.8746661294401712e-01  8.0860507414851812e-01  9.0180172273452819e-01  9.6410615250107001e-01  9.8948096172475808e-01  9.8618774314022262e-01  9.8437018282852573e-01  9.9090475309863912e-01  9.9302862787689450e-01  9.9025209836879280e-01  9.7892504648490086e-01  9.3525721201311740e-01  7.6682691411820780e-01  5.3566967017872980e-01  3.5541769136279938e-01  2.4063716446509339e-01  1.7111726102446803e-01  1.3017104449786179e-01  1.0692915017843019e-01  9.4875613761675359e-02  9.0468078012836114e-02  9.1652168092408601e-02  9.5622654659552497e-02  9.7847752490414067e-02  9.7609372761099711e-02  9.6156687903379071e-02  9.4312488867724045e-02  9.2223785773414474e-02  8.9898261688976758e-02  8.7586214991044992e-02  8.5236695004325597e-02  8.3236829990874006e-02  8.2463826411088265e-02  8.2745411724339829e-02  8.2579644089457824e-02  7.9912101127754154e-02  7.5536614417739817e-02  7.2663985762921643e-02  7.1803693118251188e-02  7.2497561088481613e-02  7.2779302112111810e-02  7.0714871876625035e-02  6.7090064407159242e-02  6.5055305800948829e-02  6.5117571643237462e-02  6.4856048937717306e-02  6.3136798716229681e-02  6.1173658278226996e-02  5.9779323489640976e-02  5.9002907647837208e-02  5.8417566096238625e-02  5.7199213739432229e-02  5.4873168986119797e-02  5.2869031299754517e-02  5.2283886483808481e-02  5.2768408773631446e-02  5.3519971309428899e-02  5.5038861926462977e-02  5.4870599778919137e-02  5.1347991938979869e-02  4.8086502004991670e-02  4.6201783225048317e-02  4.5405129840343179e-02  4.5263899517947792e-02  4.5097155862463850e-02  4.3856721765318823e-02  4.1378886447187735e-02  3.9713082591783959e-02  3.9887949908127371e-02  4.2379262667472717e-02  4.7843509362314851e-02  5.7604826861901187e-02  7.5002469160022164e-02  1.0657446873587789e-01  1.7022310989769554e-01  3.1529788665155206e-01  5.9898719563168912e-01  8.7014780111476642e-01  9.5360952242862873e-01  9.7316478396257000e-01  9.9143113155793372e-01  9.0986803294480167e-01  6.6012627951333125e-01  3.9084018276821680e-01  2.2439778206573371e-01  1.5718003296634675e-01  1.6164427821395080e-01  2.4225482891312619e-01  4.3827642057506783e-01  7.0570671215223246e-01  8.5403742938061367e-01  8.6915425635721077e-01  7.5934691566308976e-01  4.5271758294327857e-01  1.7864781923993814e-01  6.8476925447618048e-02  3.2971516123505878e-02  1.8029076977324227e-02  1.0295958678208910e-02  5.7950697910953072e-03  3.2449211208665334e-03  1.7834400748856633e-03  5.8839466874480357e-04  -4.4796056862616315e-04  -1.3342264033362470e-03  -1.9776780119028100e-03  -2.2538129231892043e-03  -2.2442254226833669e-03  -2.3134230845794045e-03  -2.3723181766711759e-03  -2.4027327190444666e-03  -2.4969553389417028e-03  -2.6830030763144116e-03  -2.8515415955178065e-03  -2.8279396596594180e-03  -2.7332485300434121e-03  -2.5759459316518421e-03  -2.2999920650926486e-03  -1.9711364466017717e-03  -1.6966449079130945e-