<?xml version="1.0"?>
<VTKFile type="UnstructuredGrid"  version="0.1"  >
<UnstructuredGrid>
<Piece  NumberOfPoints="7161" NumberOfCells="13800">
<Points>
<DataArray  type="Float64"  NumberOfComponents="3"  format="ascii">0 0 0  0.01652173913043478 0 0  0.03304347826086956 0 0  0.04956521739130434 0 0  0.06608695652173913 0 0  0.08260869565217391 0 0  0.09913043478260869 0 0  0.1156521739130435 0 0  0.1321739130434783 0 0  0.148695652173913 0 0  0.1652173913043478 0 0  0.1817391304347826 0 0  0.1982608695652174 0 0  0.2147826086956522 0 0  0.2313043478260869 0 0  0.2478260869565218 0 0  0.2643478260869565 0 0  0.2808695652173913 0 0  0.2973913043478261 0 0  0.3139130434782609 0 0  0.3304347826086956 0 0  0.3469565217391304 0 0  0.3634782608695652 0 0  0.3799999999999999 0 0  0.3965217391304348 0 0  0.4130434782608696 0 0  0.4295652173913043 0 0  0.4460869565217391 0 0  0.4626086956521739 0 0  0.4791304347826086 0 0  0.4956521739130435 0 0  0.5121739130434783 0 0  0.528695652173913 0 0  0.5452173913043478 0 0  0.5617391304347825 0 0  0.5782608695652174 0 0  0.5947826086956521 0 0  0.6113043478260869 0 0  0.6278260869565218 0 0  0.6443478260869565 0 0  0.6608695652173913 0 0  0.677391304347826 0 0  0.6939130434782609 0 0  0.7104347826086956 0 0  0.7269565217391304 0 0  0.7434782608695653 0 0  0.7599999999999999 0 0  0.7765217391304348 0 0  0.7930434782608695 0 0  0.8095652173913043 0 0  0.8260869565217391 0 0  0.8426086956521739 0 0  0.8591304347826086 0 0  0.8756521739130434 0 0  0.8921739130434783 0 0  0.908695652173913 0 0  0.9252173913043478 0 0  0.9417391304347826 0 0  0.9582608695652173 0 0  0.9747826086956521 0 0  0.991304347826087 0 0  1.007826086956522 0 0  1.024347826086957 0 0  1.040869565217391 0 0  1.057391304347826 0 0  1.073913043478261 0 0  1.090434782608696 0 0  1.10695652173913 0 0  1.123478260869565 0 0  1.14 0 0  1.156521739130435 0 0  1.17304347826087 0 0  1.189565217391304 0 0  1.206086956521739 0 0  1.222608695652174 0 0  1.239130434782609 0 0  1.255652173913044 0 0  1.272173913043478 0 0  1.288695652173913 0 0  1.305217391304348 0 0  1.321739130434783 0 0  1.338260869565217 0 0  1.354782608695652 0 0  1.371304347826087 0 0  1.387826086956522 0 0  1.404347826086957 0 0  1.420869565217391 0 0  1.437391304347826 0 0  1.453913043478261 0 0  1.470434782608696 0 0  1.486956521739131 0 0  1.503478260869565 0 0  1.52 0 0  1.536521739130435 0 0  1.55304347826087 0 0  1.569565217391304 0 0  1.586086956521739 0 0  1.602608695652174 0 0  1.619130434782609 0 0  1.635652173913043 0 0  1.652173913043478 0 0  1.668695652173913 0 0  1.685217391304348 0 0  1.701739130434782 0 0  1.718260869565217 0 0  1.734782608695652 0 0  1.751304347826087 0 0  1.767826086956522 0 0  1.784347826086957 0 0  1.800869565217391 0 0  1.817391304347826 0 0  1.833913043478261 0 0  1.850434782608696 0 0  1.86695652173913 0 0  1.883478260869565 0 0  1.9 0 0  1.916521739130435 0 0  1.933043478260869 0 0  1.949565217391304 0 0  1.966086956521739 0 0  1.982608695652174 0 0  1.999130434782608 0 0  2.015652173913043 0 0  2.032173913043478 0 0  2.048695652173913 0 0  2.065217391304348 0 0  2.081739130434782 0 0  2.098260869565217 0 0  2.114782608695652 0 0  2.131304347826087 0 0  2.147826086956522 0 0  2.164347826086956 0 0  2.180869565217391 0 0  2.197391304347826 0 0  2.213913043478261 0 0  2.230434782608695 0 0  2.24695652173913 0 0  2.263478260869565 0 0  2.28 0 0  2.296521739130434 0 0  2.31304347826087 0 0  2.329565217391304 0 0  2.346086956521739 0 0  2.362608695652174 0 0  2.379130434782609 0 0  2.395652173913044 0 0  2.412173913043478 0 0  2.428695652173913 0 0  2.445217391304348 0 0  2.461739130434782 0 0  2.478260869565217 0 0  2.494782608695652 0 0  2.511304347826087 0 0  2.527826086956522 0 0  2.544347826086956 0 0  2.560869565217391 0 0  2.577391304347826 0 0  2.593913043478261 0 0  2.610434782608696 0 0  2.62695652173913 0 0  2.643478260869565 0 0  2.66 0 0  2.676521739130435 0 0  2.693043478260869 0 0  2.709565217391304 0 0  2.726086956521739 0 0  2.742608695652174 0 0  2.759130434782609 0 0  2.775652173913044 0 0  2.792173913043478 0 0  2.808695652173913 0 0  2.825217391304347 0 0  2.841739130434783 0 0  2.858260869565217 0 0  2.874782608695652 0 0  2.891304347826087 0 0  2.907826086956522 0 0  2.924347826086957 0 0  2.940869565217391 0 0  2.957391304347826 0 0  2.973913043478261 0 0  2.990434782608696 0 0  3.006956521739131 0 0  3.023478260869565 0 0  3.04 0 0  3.056521739130435 0 0  3.073043478260869 0 0  3.089565217391304 0 0  3.106086956521739 0 0  3.122608695652174 0 0  3.139130434782609 0 0  3.155652173913043 0 0  3.172173913043478 0 0  3.188695652173913 0 0  3.205217391304347 0 0  3.221739130434782 0 0  3.238260869565217 0 0  3.254782608695652 0 0  3.271304347826087 0 0  3.287826086956521 0 0  3.304347826086957 0 0  3.320869565217391 0 0  3.337391304347826 0 0  3.353913043478261 0 0  3.370434782608696 0 0  3.386956521739131 0 0  3.403478260869565 0 0  3.419999999999999 0 0  3.436521739130435 0 0  3.453043478260869 0 0  3.469565217391304 0 0  3.486086956521739 0 0  3.502608695652174 0 0  3.519130434782609 0 0  3.535652173913043 0 0  3.552173913043478 0 0  3.568695652173913 0 0  3.585217391304347 0 0  3.601739130434782 0 0  3.618260869565217 0 0  3.634782608695652 0 0  3.651304347826087 0 0  3.667826086956521 0 0  3.684347826086956 0 0  3.700869565217391 0 0  3.717391304347826 0 0  3.733913043478261 0 0  3.750434782608695 0 0  3.766956521739131 0 0  3.783478260869565 0 0  3.8 0 0  0 0.01666666666666667 0  0.01652173913043478 0.01666666666666667 0  0.03304347826086956 0.01666666666666667 0  0.04956521739130434 0.01666666666666667 0  0.06608695652173913 0.01666666666666667 0  0.08260869565217391 0.01666666666666667 0  0.09913043478260869 0.01666666666666667 0  0.1156521739130435 0.01666666666666667 0  0.1321739130434783 0.01666666666666667 0  0.148695652173913 0.01666666666666667 0  0.1652173913043478 0.01666666666666667 0  0.1817391304347826 0.01666666666666667 0  0.1982608695652174 0.01666666666666667 0  0.2147826086956522 0.01666666666666667 0  0.2313043478260869 0.01666666666666667 0  0.2478260869565218 0.01666666666666667 0  0.2643478260869565 0.01666666666666667 0  0.2808695652173913 0.01666666666666667 0  0.2973913043478261 0.01666666666666667 0  0.3139130434782609 0.01666666666666667 0  0.3304347826086956 0.01666666666666667 0  0.3469565217391304 0.01666666666666667 0  0.3634782608695652 0.01666666666666667 0  0.3799999999999999 0.01666666666666667 0  0.3965217391304348 0.01666666666666667 0  0.4130434782608696 0.01666666666666667 0  0.4295652173913043 0.01666666666666667 0  0.4460869565217391 0.01666666666666667 0  0.4626086956521739 0.01666666666666667 0  0.4791304347826086 0.01666666666666667 0  0.4956521739130435 0.01666666666666667 0  0.5121739130434783 0.01666666666666667 0  0.528695652173913 0.01666666666666667 0  0.5452173913043478 0.01666666666666667 0  0.5617391304347825 0.01666666666666667 0  0.5782608695652174 0.01666666666666667 0  0.5947826086956521 0.01666666666666667 0  0.6113043478260869 0.01666666666666667 0  0.6278260869565218 0.01666666666666667 0  0.6443478260869565 0.01666666666666667 0  0.6608695652173913 0.01666666666666667 0  0.677391304347826 0.01666666666666667 0  0.6939130434782609 0.01666666666666667 0  0.7104347826086956 0.01666666666666667 0  0.7269565217391304 0.01666666666666667 0  0.7434782608695653 0.01666666666666667 0  0.7599999999999999 0.01666666666666667 0  0.7765217391304348 0.01666666666666667 0  0.7930434782608695 0.01666666666666667 0  0.8095652173913043 0.01666666666666667 0  0.8260869565217391 0.01666666666666667 0  0.8426086956521739 0.01666666666666667 0  0.8591304347826086 0.01666666666666667 0  0.8756521739130434 0.01666666666666667 0  0.8921739130434783 0.01666666666666667 0  0.908695652173913 0.01666666666666667 0  0.9252173913043478 0.01666666666666667 0  0.9417391304347826 0.01666666666666667 0  0.9582608695652173 0.01666666666666667 0  0.9747826086956521 0.01666666666666667 0  0.991304347826087 0.01666666666666667 0  1.007826086956522 0.01666666666666667 0  1.024347826086957 0.01666666666666667 0  1.040869565217391 0.01666666666666667 0  1.057391304347826 0.01666666666666667 0  1.073913043478261 0.01666666666666667 0  1.090434782608696 0.01666666666666667 0  1.10695652173913 0.01666666666666667 0  1.123478260869565 0.01666666666666667 0  1.14 0.01666666666666667 0  1.156521739130435 0.01666666666666667 0  1.17304347826087 0.01666666666666667 0  1.189565217391304 0.01666666666666667 0  1.206086956521739 0.01666666666666667 0  1.222608695652174 0.01666666666666667 0  1.239130434782609 0.01666666666666667 0  1.255652173913044 0.01666666666666667 0  1.272173913043478 0.01666666666666667 0  1.288695652173913 0.01666666666666667 0  1.305217391304348 0.01666666666666667 0  1.321739130434783 0.01666666666666667 0  1.338260869565217 0.01666666666666667 0  1.354782608695652 0.01666666666666667 0  1.371304347826087 0.01666666666666667 0  1.387826086956522 0.01666666666666667 0  1.404347826086957 0.01666666666666667 0  1.420869565217391 0.01666666666666667 0  1.437391304347826 0.01666666666666667 0  1.453913043478261 0.01666666666666667 0  1.470434782608696 0.01666666666666667 0  1.486956521739131 0.01666666666666667 0  1.503478260869565 0.01666666666666667 0  1.52 0.01666666666666667 0  1.536521739130435 0.01666666666666667 0  1.55304347826087 0.01666666666666667 0  1.569565217391304 0.01666666666666667 0  1.586086956521739 0.01666666666666667 0  1.602608695652174 0.01666666666666667 0  1.619130434782609 0.01666666666666667 0  1.635652173913043 0.01666666666666667 0  1.652173913043478 0.01666666666666667 0  1.668695652173913 0.01666666666666667 0  1.685217391304348 0.01666666666666667 0  1.701739130434782 0.01666666666666667 0  1.718260869565217 0.01666666666666667 0  1.734782608695652 0.01666666666666667 0  1.751304347826087 0.01666666666666667 0  1.767826086956522 0.01666666666666667 0  1.784347826086957 0.01666666666666667 0  1.800869565217391 0.0166666666666666
[...]
<PointData  Scalars="rho"> 
<DataArray  type="Float64"  Name="rho"  format="ascii">3.3170718074696093e-01  3.4692200314352861e-01  3.4615916043087130e-01  3.4529898380625440e-01  3.4448504823020137e-01  3.4377117868844126e-01  3.4315761908783898e-01  3.4262255645759832e-01  3.4213945450546307e-01  3.4168461145257328e-01  3.4123963616787251e-01  3.4079145407806660e-01  3.4033149363497994e-01  3.3985457114709350e-01  3.3935799270343087e-01  3.3884073224674593e-01  3.3830290753576892e-01  3.3774531309131728e-01  3.3716916746655140e-01  3.3657586693277308e-01  3.3596689642405075e-01  3.3534369407292608e-01  3.3470764736782371e-01  3.3406002580217509e-01  3.3340202214405157e-01  3.3273471902260532e-01  3.3205913680244625e-01  3.3137621358388153e-01  3.3068685990213420e-01  3.2999192989306703e-01  3.2929227703544861e-01  3.2858872932623506e-01  3.2788214415880557e-01  3.2717337708832589e-01  3.2646332588871968e-01  3.2575289460348944e-01  3.2504303458168549e-01  3.2433469443200630e-01  3.2362885144925624e-01  3.2292646419159404e-01  3.2222850179528667e-01  3.2153589122605963e-01  3.2084954298634460e-01  3.2017029954902720e-01  3.1949896572353287e-01  3.1883625061398146e-01  3.1818279562983781e-01  3.1753912640130083e-01  3.1690568568659805e-01  3.1628278629728507e-01  3.1567064591775290e-01  3.1506934601510939e-01  3.1447887536207214e-01  3.1389908587068360e-01  3.1332973650359547e-01  3.1277046127691482e-01  3.1222081955335690e-01  3.1168026585555791e-01  3.1114820208646088e-01  3.1062395243971680e-01  3.1010682242827464e-01  3.0959606768692233e-01  3.0909094886804772e-01  3.0859070719563214e-01  3.0809461983564085e-01  3.0760197044863924e-01  3.0711209907911263e-01  3.0662437030504874e-01  3.0613822562924037e-01  3.0565313821455042e-01  3.0516865941814075e-01  3.0468437426219497e-01  3.0419994920354143e-01  3.0371507552923294e-01  3.0322951768515499e-01  3.0274305355280723e-01  3.0225552859203053e-01  3.0176678546343982e-01  3.0127672204538614e-01  3.0078522644200095e-01  3.0029223901290886e-01  2.9979769511216547e-01  2.9930157305000565e-01  2.9880384335745652e-01  2.9830451618859238e-01  2.9780359285480673e-01  2.9730110595461134e-01  2.9679707504540159e-01  2.9629155036012705e-01  2.9578456372604650e-01  2.9527616810620089e-01  2.9476639746484956e-01  2.9425530774545744e-01  2.9374293438893928e-01  2.9322933227087850e-01  2.9271453579404222e-01  2.9219860339042025e-01  2.9168157040083548e-01  2.9116348989278418e-01  2.9064439328463976e-01  2.9012433262281317e-01  2.8960333879915262e-01  2.8908146199248702e-01  2.8855873191971620e-01  2.8803520270642402e-01  2.8751090597898776e-01  2.8698589181005113e-01  2.8646018933837125e-01  2.8593384905996766e-01  2.8540690099170418e-01  2.8487939510757082e-01  2.8435136148616169e-01  2.8382285517950762e-01  2.8329390931155152e-01  2.8276457604429711e-01  2.8223488710166189e-01  2.8170489602218246e-01  2.8117463618193178e-01  2.8064416112326029e-01  2.8011350458497891e-01  2.7958272591130851e-01  2.7905186368524476e-01  2.7852097733065106e-01  2.7799010725803031e-01  2.7745931860180001e-01  2.7692865634371266e-01  2.7639818847683961e-01  2.7586796265609109e-01  2.7533805487146601e-01  2.7480851809392437e-01  2.7427943028180524e-01  2.7375084443682940e-01  2.7322284092423388e-01  2.7269546979102183e-01  2.7216880484524547e-01  2.7164289042933171e-01  2.7111779767225536e-01  2.7059357666178196e-01  2.7007030241116881e-01  2.6954802970540165e-01  2.6902684084494138e-01  2.6850679712106496e-01  2.6798798160683579e-01  2.6747045743753012e-01  2.6695431149114057e-01  2.6643961180937231e-01  2.6592644789673026e-01  2.6541489071949731e-01  2.6490503669746396e-01  2.6439696115789008e-01  2.6389075917158589e-01  2.6338650651018752e-01  2.6288430103928073e-01  2.6238422117977106e-01  2.6188636567787665e-01  2.6139081401423658e-01  2.6089767041421258e-01  2.6040701801205157e-01  2.5991895956073435e-01  2.5943357852230425e-01  2.5895098026825764e-01  2.5847125067045740e-01  2.5799449552192499e-01  2.5752080093352481e-01  2.5705027709702671e-01  2.5658301275667189e-01  2.5611911559363548e-01  2.5565867339868936e-01  2.5520179528530640e-01  2.5474857050293503e-01  2.5429910766802477e-01  2.5385349457062678e-01  2.5341184347066087e-01  2.5297424290064585e-01  2.5254080220865388e-01  2.5211160690858353e-01  2.5168676672816359e-01  2.5126636218191262e-01  2.5085049654515440e-01  2.5043924085346897e-01  2.5003269207922851e-01  2.4963090883147246e-01  2.4923397298281982e-01  2.4884192792589696e-01  2.4845484098477957e-01  2.4807274894991688e-01  2.4769570722853090e-01  2.4732374201771906e-01  2.4695689847796198e-01  2.4659519617922207e-01  2.4623867056197576e-01  2.4588733273421592e-01  2.4554121440572096e-01  2.4520032485776883e-01  2.4486469310115663e-01  2.4453433296146376e-01  2.4420928564967820e-01  2.4388958320736281e-01  2.4357529087216145e-01  2.4326647330511053e-01  2.4296324158053198e-01  2.4266571446020838e-01  2.4237406300528985e-01  2.4208847769372360e-01  2.4180921165892316e-01  2.4153654356738016e-01  2.4127081663680627e-01  2.4101239961767595e-01  2.4076172532852680e-01  2.4051924119086635e-01  2.4028543921532949e-01  2.4006080616897627e-01  2.3984584667754064e-01  2.3964102498469111e-01  2.3944678176431042e-01  2.3926347476166793e-01  2.3909139964027770e-01  2.3893072933458132e-01  2.3878154110775529e-01  2.3864377589975419e-01  2.3851728583682485e-01  2.3840181812041827e-01  2.3829709333448942e-01  2.3820283224891201e-01  2.3811889153469989e-01  2.3804534643936817e-01  2.3798266379617758e-01  2.3793180385700571e-01  2.3789436560822172e-01  2.3787244622338294e-01  2.4568182098562028e-01  3.4552912339705971e-01  3.7096792073963331e-01  3.7042090230455249e-01  3.6969926602065234e-01  3.6896272871601066e-01  3.6828787704699356e-01  3.6769098347991291e-01  3.6716043452592406e-01  3.6667561623197215e-01  3.6621621130837495e-01  3.6576555643636771e-01  3.6531143202157268e-01  3.6484553073857284e-01  3.6436271763620931e-01  3.6386012169176962e-01  3.6333654015761974e-01  3.6279182533123083e-01  3.6222657129635455e-01  3.6164175170216040e-01  3.6103859648984765e-01  3.6041838802562282e-01  3.5978244643098484e-01  3.5913199761502829e-01  3.5846822211163770e-01  3.5779218326411283e-01  3.5710489807366780e-01  3.5640728158903678e-01  3.5570022362458320e-01  3.5498454544609287e-01  3.5426107577575666e-01  3.5353059489293953e-01  3.5279391733923371e-01  3.5205184519166122e-01  3.5130524237924393e-01  3.5055497325567248e-01  3.4980197232912069e-01  3.4904718313866023e-01  3.4829161765597538e-01  3.4753627595865938e-01  3.4678220381287433e-01  3.4603042167253673e-01  3.4528197390562432e-01  3.4453784657810205e-01  3.4379902010439772e-01  3.4306639301029634e-01  3.4234083233775398e-01  3.4162308519795914e-01  3.4091383486302401e-01  3.4021362957659623e-01  3.3952293725953736e-01  3.3884206936893885e-01  3.3817124474469873e-01  3.3751052467372772e-01  3.3685987881722673e-01  3.3621911178731628e-01  3.3558793803004500e-01  3.3496592854276347e-01  3.3435258612540175e-01  3.3374728798347375e-01  3.3314937005639261e-01  3.3255807984978897e-01  3.3197266004017756e-01  3.3139228826962369e-01  3.3081616403083258e-01  3.3024346261486914e-01  3.2967341503043851e-01  3.2910524844905004e-01  3.2853826763907401e-01  3.2797179747520050e-01  3.2740526036655315e-01  3.2683809563156530e-01  3.2626984138943588e-01  3.2570005768567845e-01  3.2512840612777599e-01  3.2455455226090396e-01  3.2397825467031782e-01  3.2339926502186828e-01  3.2281742208505038e-01  3.2223253529016915e-01  3.2164448860098477e-01  3.2105314179168326e-01  3.2045842866187002e-01  3.1986025830985537e-01  3.1925859947886004e-01  3.1865340116473140e-01  3.1804466829433409e-01  3.1743237875993302e-01  3.1681655692995458e-01  3.1619720247194222e-01  3.1557435905845055e-01  3.1494803335328164e-01  3.1431826658664996e-01  3.1368506961137982e-01  3.1304848900493804e-01  3.1240853395305246e-01  3.1176524828277363e-01  3.1111864462007266e-01  3.1046877350381269e-01  3.0981564385772126e-01  3.0915929609950388e-01  3.0849973801702663e-01  3.0783701251806433e-01  3.0717112458689250e-01  3.0650211408960620e-01  3.0582998987473903e-01  3.0515479958569880e-01  3.0447654992056211e-01  3.0379528010460205e-01  3.0311099748718368e-01  3.0242374559864943e-01  3.0173353075427989e-01  3.0104039513472880e-01  3.0034435057728220e-01  2.9964544869077508e-01  2.9894370078030030e-01  2.9823915156602143e-01  2.9753181448653382e-01  2.9682173996828554e-01  2.9610894142691763e-01  2.9539346854643783e-01  2.9467534143848423e-01  2.9395462179572324e-01  2.9323133275309166e-01  2.9250553459326850e-01  2.9177725778231278e-01  2.9104657470265161e-01  2.9031352023897217e-01  2.8957817057121132e-01  2.8884056974864802e-01  2.8810080961537654e-01  2.8735893842686561e-01  2.8661504911090974e-01  2.8586919218969598e-01  2.8512146493174023e-01  2.8437191139533946e-01  2.8362061788138626e-01  2.8286762878871746e-01  2.8211303707503893e-01  2.8135689751929133e-01  2.8059930931825872e-01  2.7984034053988777e-01  2.7908010494085134e-01  2.7831867813945149e-01  2.7755617450394232e-01  2.7679267891160764e-01  2.7602831774720749e-01  2.7526318368024411e-01  2.7449740927062755e-01  2.7373109981556337e-01  2.7296440318984033e-01  2.7219743004569213e-01  2.7143032759958308e-01  2.7066321483446404e-01  2.6989625024423092e-01  2.6912955848488934e-01  2.6836330307957523e-01  2.6759762024244621e-01  2.6683268884880951e-01  2.6606865136364316e-01  2.6530568718610104e-01  2.6454394809970877e-01  2.6378362564147306e-01  2.6302487786978862e-01  2.6226790139378403e-01  2.6151286550618852e-01  2.6075998168434283e-01  2.6000942483761519e-01  2.5926140601425557e-01  2.5851610853756868e-01  2.5777375523348017e-01  2.5703453479372385e-01  2.5629867408255108e-01  2.5556637081936351e-01  2.5483786670850278e-01  2.5411336258278899e-01  2.5339309999002535e-01  2.5267728274463852e-01  2.5196615929294225e-01  2.5125992731738012e-01  2.5055882778011523e-01  2.4986304832345810e-01  2.4917282283117329e-01  2.4848831931143478e-01  2.4780974681884876e-01  2.4713725814382126e-01  2.4647104924739377e-01  2.4581126325840724e-01  2.4515807614892393e-01  2.4451162004999757e-01  2.4387206030960026e-01  2.4323951725404250e-01  2.4261414114548602e-01  2.4199604643153802e-01  2.4138538341993249e-01  2.4078226598088862e-01  2.4018684658306369e-01  2.3959925933515316e-01  2.3901969020426764e-01  2.3844831456006468e-01  2.3788537394661771e-01  2.3733112178267290e-01  2.3678589906252467e-01  2.3625006950463665e-01  2.3572409792206162e-01  2.3520849639121091e-01  2.3470389330536198e-01  2.3421096730361798e-01  2.3373051420255750e-01  2.3326337946228162e-01  2.3281051346241843e-01  2.3237288216877300e-01  2.3195151318771579e-01  2.3154740641342975e-01  2.3116156240891103e-01  2.3079487636493801e-01  2.3044816494508494e-01  2.3012206622345763e-01  2.2981707118469324e-01  2.2953342768570581e-01  2.2927119903782511e-01  2.2903021567091925e-01  2.2881017319951269e-01  2.2861063032206630e-01  2.2843117508655067e-01  2.2827152390117753e-01  2.2813177461898729e-01  2.2801255836051079e-01  2.2791534335049141e-01  2.2784251497285996e-01  2.2779729948610822e-01  2.3786882623387706e-01  3.4160423667064044e-01  3.6755318172607504e-01  3.6731813043131945e-01  3.6689777228754566e-01  3.6639288977485368e-01  3.6587429276836508e-01  3.6537207274999561e-01  3.6489138093175100e-01  3.6442623376917455e-01  3.6396735075633874e-01  3.6350595968175731e-01  3.6303510558795721e-01  3.6254994354953418e-01  3.6204742160467135e-01  3.6152595804433540e-01  3.6098497763940479e-01  3.6042466492634845e-01  3.5984564861573765e-01  3.5924887541031897e-01  3.5863540716438497e-01  3.5800638862830736e-01  3.5736292828710453e-01  3.5670611755133597e-01  3.5603694795032476e-01  3.5535636657666375e-01  3.5466523568853070e-01  3.5396438932161217e-01  3.5325459557247768e-01  3.5253661960976651e-01  3.5181119271404621e-01  3.5107907306689062e-01  3.5034100058415873e-01  3.4959776474031590e-01  3.4885016888763198e-01  3.4809908280622409e-01  3.4734539332326991e-01  3.4659005321281011e-01  3.4583403358229320e-01  3.4507835983697882e-01  3.4432404351859358e-01  3.4357212560046629e-01  3.4282361730963112e-01  3.4207953326924728e-01  3.4134082432063334e-01  3.4060841343261389e-01  3.3988313784839375e-01  3.3916577954504018e-01  3.3845699375027971e-01  3.3775735476391117e-01  3.3706730065011264e-01  3.3638717481538949e-01  3.3571716807398405e-01  3.3505736788352319e-01  3.3440771422810378e-01  3.3376804698761819e-01  3.3313805126901624e-01  3.3251732298046921e-01  3.3190533254959098e-01  3.3130148718835667e-01  3.3070509203362586e-01  3.3011541892480922e-01  3.2953167911801312e-01  3.2895308555653996e-01  3.2837880911925132e-01  3.2780805264911650e-01  3.2724001834172711e-01  3.2667396981484342e-01  3.2610918602795047e-01  3.2554502472254382e-01  3.2498088055411722e-01  3.2441623974652312e-01  3.2385061047936309e-01  3.2328359350753200e-01  3.2271481461724594e-01  3.2214399283512202e-01  3.2157084646602280e-01  3.2099517622918167e-01  3.2041677520598422e-01  3.1983551047958420e-01  3.1925122267825640e-01  3.1866381769894236e-01  3.1807318891362424e-01  3.1747929109331663e-01  3.1688205884095322e-01  3.1628147509064602e-01  3.1567751092369967e-01  3.1507018050648206e-01  3.1445947797940454e-01  3.1384543199926690e-01  3.1322805563729478e-01  3.1260739338821464e-01  3.1198345786717951e-01  3.1135628810344340e-01  3.1072590002686434e-01  3.1009233714349910e-01  3.0945561479429096e-01  3.0881577422176731e-01  3.0817283637963405e-01  3.0752684910064698e-01  3.0687782467324642e-01  3.0622580012641321e-01  3.0557078831044499e-01  3.0491282954492360e-01  3.0425193577553195e-01  3.0358814536856699e-01  3.0292147691110638e-01  3.0225197678155202e-01  3.0157965650762125e-01  3.0090455334344207e-01  3.0022668110803091e-01  2.9954608203674649e-01  2.9886277066042921e-01  2.9817678878962395e-01  2.9748815913461768e-01  2.9679693303685500e-01  2.9610312758126295e-01  2.9540678638571710e-01  2.9470793021417085e-01  2.9400660884771085e-01  2.9330284447953558e-01  2.9259668726664267e-01  2.9188816969585540e-01  2.9117735484402879e-01  2.9046427391488916e-01  2.8974898843948027e-01  2.8903153852377117e-01  2.8831199943379321e-01  2.8759041505167210e-01  2.8686686394957539e-01  2.8614140146635730e-01  2.8541412188246573e-01  2.8468507841893542e-01  2.8395436232964172e-01  2.8322202790299905e-01  2.8248816915514607e-01  2.8175283283618191e-01  2.8101610326051246e-01  2.8027803542652119e-01  2.7953872410617187e-01  2.7879823425710404e-01  2.7805666625433506e-01  2.7731409925478645e-01  2.7657064769667711e-01  2.7582639403826292e-01  2.7508145196817663e-01  2.7433591461441853e-01  2.7358990779231990e-01  2.7284353304584569e-01  2.7209692194677321e-01  2.7135018945005362e-01  2.7060348174539478e-01  2.6985691377789656e-01  2.6911062966068122e-01  2.6836475310617652e-01  2.6761943912059005e-01  2.6687481780250899e-01  2.6613104902318580e-01  2.6538827620867039e-01  2.6464667438358119e-01  2.6390638792699855e-01  2.6316759075276847e-01  2.6243043678305650e-01  2.6169511119701466e-01  2.6096177426746020e-01  2.6023061556430194e-01  2.5950180812455020e-01  2.5877555588142320e-01  2.5805203188208042e-01  2.5733143808445497e-01  2.5661395666273251e-01  2.5589980090450309e-01  2.5518915739289155e-01  2.5448224244515683e-01  2.5377925358805115e-01  2.5308042256420044e-01  2.5238594353770888e-01  2.5169604511712373e-01  2.5101092312886791e-01  2.5033081344455926e-01  2.4965590114394548e-01  2.4898640946266362e-01  2.4832251337842204e-01  2.4766442679980125e-01  2.4701230488793549e-01  2.4636633792186155e-01  2.4572667438780746e-01  2.4509349698353916e-01  2.4446694374699932e-01  2.4384717819655752e-01  2.4323433173789727e-01  2.4262856082542197e-01  2.4202998805081727e-01  2.4143875891991223e-01  2.4085499700460211e-01  2.4027885531777787e-01  2.3971046043127203e-01  2.3914997406651406e-01  2.3859755026735105e-01  2.3805339047992441e-01  2.3751769630760755e-01  2.3699072817334213e-01  2.3647276841535672e-01  2.3596417471899803e-01  2.3546532771395354e-01  2.3497669317020711e-01  2.3449877779185679e-01  2.3403217871186427e-01  2.3357752785032188e-01  2.3313553720669497e-01  2.3270694525030869e-01  2.3229254844055608e-01  2.3189312432339890e-01  2.3150946498396688e-01  2.3114230408115868e-01  2.3079233757036863e-01  2.3046014424310993e-01  2.3014621286382347e-01  2.2985088207264490e-01  2.2957437851464019e-01  2.2931676550456115e-01  2.2907802084214759e-01  2.2885803383573039e-01  2.2865671311652985e-01  2.2847403206794725e-01  2.2831019522337018e-01  2.2816577837815613e-01  2.2804194116682738e-01  2.2794055586503106e-01  2.2786438981072388e-01  2.2781683357547911e-01  2.3787688906411206e-01  3.3613759858373260e-01  3.6241260928973479e-01  3.6246313811811814e-01  3.6240009132276080e-01  3.6221754966692576e-01  3.6194309270033909e-01  3.6160514937773153e-01  3.6122320435330996e-01  3.6080848448936198e-01  3.6036694946456455e-01  3.5990165172262534e-01  3.5941426647545982e-01  3.5890585827004545e-01  3.5837734120873926e-01  3.5782959476618953e-01  3.5726357398442515e-01  3.5668024665112164e-01  3.5608064022757174e-01  3.5546576595190454e-01  3.5483663713526109e-01  3.5419419741426339e-01  3.5353936119963630e-01  3.5287296345468744e-01  3.5219579672869689e-01  3.5150857100910077e-01  3.5081197094950817e-01  3.5010663756922616e-01  3.4939320740765534e-01  3.4867229069678629e-01  3.4794452450969643e-01  3.4721055090384650e-01  3.4647105841545445e-01  3.4572674831755729e-01  3.4497838808250225e-01  3.4422678605425527e-01  3.4347281737629892e-01  3.4271738881288183e-01  3.4196147003506278e-01  3.4120605367353724e-01  3.4045216990275307e-01  3.3970083066259343e-01  3.3895306185105489e-01  3.3820985759643252e-01  3.3747219118947591e-01  3.3674096616299987e-01  3.3601703897557400e-01  3.3530117376533181e-01  3.3459405577042889e-01  3.3389623724816736e-01  3.3320817592901497e-01  3.3253019688244362e-01  3.3186251444042869e-01  3.3120519536620624e-01  3.3055819670154524e-01  3.2992133627868309e-01  3.2929432432439298e-01  3.2867672785221697e-01  3.2806802978168165e-01  3.2746761087893261e-01  3.2687479239100486e-01  3.2628881857659370e-01  3.2570891278879294e-01  3.2513426320384270e-01  3.2456406641435831e-01  3.2399750006171862e-01  3.2343378612381529e-01  3.2287217105146904e-01  3.2231196439445309e-01  3.2175250884372097e-01  3.2119322810476703e-01  3.2063359330796609e-01  3.2007315841823536e-01  3.1951150143261459e-01  3.1894828891502042e-01  3.1838321338547987e-01  3.1781604755462334e-01  3.1724655837395138e-01  3.1667458588382408e-01  3.1609996424388875e-01  3.1552258629882002e-01  3.1494232510734643e-01  3.1435911227323077e-01  3.1377287625338374e-01  3.1318359056583001e-01  3.1259121170054488e-01  3.1199573557974181e-01  3.1139715601505152e-01  3.1079549395035133e-01  3.1019075680122676e-01  3.0958297865864909e-01  3.0897218458926912e-01  3.0835841798140617e-01  3.0774169433554144e-01  3.0712205012848154e-01  3.0649951006784976e-01  3.0587411517546825e-01  3.0524588709243078e-01  3.0461486783144753e-01  3.0398108664689993e-01  3.0334458796703956e-01  3.0270538612421299e-01  3.0206351576110679e-01  3.0141899928063487e-01  3.0077187555798807e-01  3.0012216422609095e-01  2.9946990596364004e-01  2.9881512930584081e-01  2.9815787881401556e-01  2.9749816964273035e-01  2.9683603813877729e-01  2.9617150909886247e-01  2.9550462457945215e-01  2.9483540801330060e-01  2.9416390461317610e-01  2.9349014804212847e-01  2.9281418866709191e-01  2.9213604803658028e-01  2.9145576970806697e-01  2.9077338599380836e-01  2.9008894708397698e-01  2.8940248498310656e-01  2.8871405404058126e-01  2.8802369928205085e-01  2.8733148446102152e-01  2.8663744718751177e-01  2.8594165197912474e-01  2.8524415139886716e-01  2.8454502358404754e-01  2.8384432098195339e-01  2.8314212655519677e-01  2.8243850549589938e-01  2.8173355107308590e-01  2.8102731818229826e-01  2.8031989654208495e-01  2.7961134586748271e-01  2.7890175651689242e-01  2.7819117956878325e-0