<?xml version="1.0"?>
<VTKFile type="UnstructuredGrid"  version="0.1"  >
<UnstructuredGrid>
<Piece  NumberOfPoints="7161" NumberOfCells="13800">
<Points>
<DataArray  type="Float64"  NumberOfComponents="3"  format="ascii">0 0 0  0.01652173913043478 0 0  0.03304347826086956 0 0  0.04956521739130434 0 0  0.06608695652173913 0 0  0.08260869565217391 0 0  0.09913043478260869 0 0  0.1156521739130435 0 0  0.1321739130434783 0 0  0.148695652173913 0 0  0.1652173913043478 0 0  0.1817391304347826 0 0  0.1982608695652174 0 0  0.2147826086956522 0 0  0.2313043478260869 0 0  0.2478260869565218 0 0  0.2643478260869565 0 0  0.2808695652173913 0 0  0.2973913043478261 0 0  0.3139130434782609 0 0  0.3304347826086956 0 0  0.3469565217391304 0 0  0.3634782608695652 0 0  0.3799999999999999 0 0  0.3965217391304348 0 0  0.4130434782608696 0 0  0.4295652173913043 0 0  0.4460869565217391 0 0  0.4626086956521739 0 0  0.4791304347826086 0 0  0.4956521739130435 0 0  0.5121739130434783 0 0  0.528695652173913 0 0  0.5452173913043478 0 0  0.5617391304347825 0 0  0.5782608695652174 0 0  0.5947826086956521 0 0  0.6113043478260869 0 0  0.6278260869565218 0 0  0.6443478260869565 0 0  0.6608695652173913 0 0  0.677391304347826 0 0  0.6939130434782609 0 0  0.7104347826086956 0 0  0.7269565217391304 0 0  0.7434782608695653 0 0  0.7599999999999999 0 0  0.7765217391304348 0 0  0.7930434782608695 0 0  0.8095652173913043 0 0  0.8260869565217391 0 0  0.8426086956521739 0 0  0.8591304347826086 0 0  0.8756521739130434 0 0  0.8921739130434783 0 0  0.908695652173913 0 0  0.9252173913043478 0 0  0.9417391304347826 0 0  0.9582608695652173 0 0  0.9747826086956521 0 0  0.991304347826087 0 0  1.007826086956522 0 0  1.024347826086957 0 0  1.040869565217391 0 0  1.057391304347826 0 0  1.073913043478261 0 0  1.090434782608696 0 0  1.10695652173913 0 0  1.123478260869565 0 0  1.14 0 0  1.156521739130435 0 0  1.17304347826087 0 0  1.189565217391304 0 0  1.206086956521739 0 0  1.222608695652174 0 0  1.239130434782609 0 0  1.255652173913044 0 0  1.272173913043478 0 0  1.288695652173913 0 0  1.305217391304348 0 0  1.321739130434783 0 0  1.338260869565217 0 0  1.354782608695652 0 0  1.371304347826087 0 0  1.387826086956522 0 0  1.404347826086957 0 0  1.420869565217391 0 0  1.437391304347826 0 0  1.453913043478261 0 0  1.470434782608696 0 0  1.486956521739131 0 0  1.503478260869565 0 0  1.52 0 0  1.536521739130435 0 0  1.55304347826087 0 0  1.569565217391304 0 0  1.586086956521739 0 0  1.602608695652174 0 0  1.619130434782609 0 0  1.635652173913043 0 0  1.652173913043478 0 0  1.668695652173913 0 0  1.685217391304348 0 0  1.701739130434782 0 0  1.718260869565217 0 0  1.734782608695652 0 0  1.751304347826087 0 0  1.767826086956522 0 0  1.784347826086957 0 0  1.800869565217391 0 0  1.817391304347826 0 0  1.833913043478261 0 0  1.850434782608696 0 0  1.86695652173913 0 0  1.883478260869565 0 0  1.9 0 0  1.916521739130435 0 0  1.933043478260869 0 0  1.949565217391304 0 0  1.966086956521739 0 0  1.982608695652174 0 0  1.999130434782608 0 0  2.015652173913043 0 0  2.032173913043478 0 0  2.048695652173913 0 0  2.065217391304348 0 0  2.081739130434782 0 0  2.098260869565217 0 0  2.114782608695652 0 0  2.131304347826087 0 0  2.147826086956522 0 0  2.164347826086956 0 0  2.180869565217391 0 0  2.197391304347826 0 0  2.213913043478261 0 0  2.230434782608695 0 0  2.24695652173913 0 0  2.263478260869565 0 0  2.28 0 0  2.296521739130434 0 0  2.31304347826087 0 0  2.329565217391304 0 0  2.346086956521739 0 0  2.362608695652174 0 0  2.379130434782609 0 0  2.395652173913044 0 0  2.412173913043478 0 0  2.428695652173913 0 0  2.445217391304348 0 0  2.461739130434782 0 0  2.478260869565217 0 0  2.494782608695652 0 0  2.511304347826087 0 0  2.527826086956522 0 0  2.544347826086956 0 0  2.560869565217391 0 0  2.577391304347826 0 0  2.593913043478261 0 0  2.610434782608696 0 0  2.62695652173913 0 0  2.643478260869565 0 0  2.66 0 0  2.676521739130435 0 0  2.693043478260869 0 0  2.709565217391304 0 0  2.726086956521739 0 0  2.742608695652174 0 0  2.759130434782609 0 0  2.775652173913044 0 0  2.792173913043478 0 0  2.808695652173913 0 0  2.825217391304347 0 0  2.841739130434783 0 0  2.858260869565217 0 0  2.874782608695652 0 0  2.891304347826087 0 0  2.907826086956522 0 0  2.924347826086957 0 0  2.940869565217391 0 0  2.957391304347826 0 0  2.973913043478261 0 0  2.990434782608696 0 0  3.006956521739131 0 0  3.023478260869565 0 0  3.04 0 0  3.056521739130435 0 0  3.073043478260869 0 0  3.089565217391304 0 0  3.106086956521739 0 0  3.122608695652174 0 0  3.139130434782609 0 0  3.155652173913043 0 0  3.172173913043478 0 0  3.188695652173913 0 0  3.205217391304347 0 0  3.221739130434782 0 0  3.238260869565217 0 0  3.254782608695652 0 0  3.271304347826087 0 0  3.287826086956521 0 0  3.304347826086957 0 0  3.320869565217391 0 0  3.337391304347826 0 0  3.353913043478261 0 0  3.370434782608696 0 0  3.386956521739131 0 0  3.403478260869565 0 0  3.419999999999999 0 0  3.436521739130435 0 0  3.453043478260869 0 0  3.469565217391304 0 0  3.486086956521739 0 0  3.502608695652174 0 0  3.519130434782609 0 0  3.535652173913043 0 0  3.552173913043478 0 0  3.568695652173913 0 0  3.585217391304347 0 0  3.601739130434782 0 0  3.618260869565217 0 0  3.634782608695652 0 0  3.651304347826087 0 0  3.667826086956521 0 0  3.684347826086956 0 0  3.700869565217391 0 0  3.717391304347826 0 0  3.733913043478261 0 0  3.750434782608695 0 0  3.766956521739131 0 0  3.783478260869565 0 0  3.8 0 0  0 0.01666666666666667 0  0.01652173913043478 0.01666666666666667 0  0.03304347826086956 0.01666666666666667 0  0.04956521739130434 0.01666666666666667 0  0.06608695652173913 0.01666666666666667 0  0.08260869565217391 0.01666666666666667 0  0.09913043478260869 0.01666666666666667 0  0.1156521739130435 0.01666666666666667 0  0.1321739130434783 0.01666666666666667 0  0.148695652173913 0.01666666666666667 0  0.1652173913043478 0.01666666666666667 0  0.1817391304347826 0.01666666666666667 0  0.1982608695652174 0.01666666666666667 0  0.2147826086956522 0.01666666666666667 0  0.2313043478260869 0.01666666666666667 0  0.2478260869565218 0.01666666666666667 0  0.2643478260869565 0.01666666666666667 0  0.2808695652173913 0.01666666666666667 0  0.2973913043478261 0.01666666666666667 0  0.3139130434782609 0.01666666666666667 0  0.3304347826086956 0.01666666666666667 0  0.3469565217391304 0.01666666666666667 0  0.3634782608695652 0.01666666666666667 0  0.3799999999999999 0.01666666666666667 0  0.3965217391304348 0.01666666666666667 0  0.4130434782608696 0.01666666666666667 0  0.4295652173913043 0.01666666666666667 0  0.4460869565217391 0.01666666666666667 0  0.4626086956521739 0.01666666666666667 0  0.4791304347826086 0.01666666666666667 0  0.4956521739130435 0.01666666666666667 0  0.5121739130434783 0.01666666666666667 0  0.528695652173913 0.01666666666666667 0  0.5452173913043478 0.01666666666666667 0  0.5617391304347825 0.01666666666666667 0  0.5782608695652174 0.01666666666666667 0  0.5947826086956521 0.01666666666666667 0  0.6113043478260869 0.01666666666666667 0  0.6278260869565218 0.01666666666666667 0  0.6443478260869565 0.01666666666666667 0  0.6608695652173913 0.01666666666666667 0  0.677391304347826 0.01666666666666667 0  0.6939130434782609 0.01666666666666667 0  0.7104347826086956 0.01666666666666667 0  0.7269565217391304 0.01666666666666667 0  0.7434782608695653 0.01666666666666667 0  0.7599999999999999 0.01666666666666667 0  0.7765217391304348 0.01666666666666667 0  0.7930434782608695 0.01666666666666667 0  0.8095652173913043 0.01666666666666667 0  0.8260869565217391 0.01666666666666667 0  0.8426086956521739 0.01666666666666667 0  0.8591304347826086 0.01666666666666667 0  0.8756521739130434 0.01666666666666667 0  0.8921739130434783 0.01666666666666667 0  0.908695652173913 0.01666666666666667 0  0.9252173913043478 0.01666666666666667 0  0.9417391304347826 0.01666666666666667 0  0.9582608695652173 0.01666666666666667 0  0.9747826086956521 0.01666666666666667 0  0.991304347826087 0.01666666666666667 0  1.007826086956522 0.01666666666666667 0  1.024347826086957 0.01666666666666667 0  1.040869565217391 0.01666666666666667 0  1.057391304347826 0.01666666666666667 0  1.073913043478261 0.01666666666666667 0  1.090434782608696 0.01666666666666667 0  1.10695652173913 0.01666666666666667 0  1.123478260869565 0.01666666666666667 0  1.14 0.01666666666666667 0  1.156521739130435 0.01666666666666667 0  1.17304347826087 0.01666666666666667 0  1.189565217391304 0.01666666666666667 0  1.206086956521739 0.01666666666666667 0  1.222608695652174 0.01666666666666667 0  1.239130434782609 0.01666666666666667 0  1.255652173913044 0.01666666666666667 0  1.272173913043478 0.01666666666666667 0  1.288695652173913 0.01666666666666667 0  1.305217391304348 0.01666666666666667 0  1.321739130434783 0.01666666666666667 0  1.338260869565217 0.01666666666666667 0  1.354782608695652 0.01666666666666667 0  1.371304347826087 0.01666666666666667 0  1.387826086956522 0.01666666666666667 0  1.404347826086957 0.01666666666666667 0  1.420869565217391 0.01666666666666667 0  1.437391304347826 0.01666666666666667 0  1.453913043478261 0.01666666666666667 0  1.470434782608696 0.01666666666666667 0  1.486956521739131 0.01666666666666667 0  1.503478260869565 0.01666666666666667 0  1.52 0.01666666666666667 0  1.536521739130435 0.01666666666666667 0  1.55304347826087 0.01666666666666667 0  1.569565217391304 0.01666666666666667 0  1.586086956521739 0.01666666666666667 0  1.602608695652174 0.01666666666666667 0  1.619130434782609 0.01666666666666667 0  1.635652173913043 0.01666666666666667 0  1.652173913043478 0.01666666666666667 0  1.668695652173913 0.01666666666666667 0  1.685217391304348 0.01666666666666667 0  1.701739130434782 0.01666666666666667 0  1.718260869565217 0.01666666666666667 0  1.734782608695652 0.01666666666666667 0  1.751304347826087 0.01666666666666667 0  1.767826086956522 0.01666666666666667 0  1.784347826086957 0.01666666666666667 0  1.800869565217391 0.0166666666666666
[...]
<PointData  Scalars="rho"> 
<DataArray  type="Float64"  Name="rho"  format="ascii">9.9892823043614953e-01  9.9822655261304494e-01  9.9782839499096998e-01  9.9716110005269920e-01  9.9589458630614014e-01  9.9410575893378939e-01  9.9169110837902208e-01  9.8857250195398005e-01  9.8475818558618311e-01  9.8041846724172232e-01  9.7594774204737789e-01  9.7201823642772833e-01  9.6947591138661326e-01  9.6892336674156598e-01  9.7034411479270766e-01  9.7317234150362397e-01  9.7665811804401004e-01  9.8019874706455490e-01  9.8346706113665971e-01  9.8635904517114048e-01  9.8887175070272137e-01  9.9098140834793647e-01  9.9253960957287146e-01  9.8594772898951133e-01  3.4062439262538041e-01  8.0770489332524037e-02  6.0304715959068156e-01  9.7592830387797036e-01  9.6772884958092920e-01  9.6114474205027178e-01  9.5765937544277702e-01  9.5757024192070073e-01  9.6013966350270408e-01  9.6413052598300863e-01  9.6833069901097679e-01  9.7187145597594193e-01  9.7433124863698217e-01  9.7568799279627272e-01  9.7617736403763422e-01  9.7611574669756318e-01  9.7576887323528783e-01  9.7531073453159656e-01  9.7483638093139069e-01  9.7438673387739538e-01  9.7396842976269393e-01  9.7356895756102246e-01  9.7317049662065258e-01  9.7276277695887370e-01  9.7235499148343996e-01  9.7197741976570973e-01  9.7166261456207981e-01  9.7141648548632942e-01  9.7120392649869269e-01  9.7097264306800246e-01  9.7069753526343661e-01  9.7039598324594800e-01  9.7010650297424350e-01  9.6985219533169864e-01  9.6962102269930950e-01  9.6938319780245585e-01  9.6912744717433508e-01  9.6886837407817583e-01  9.6862100646857197e-01  9.6838397534174225e-01  9.6814863760856618e-01  9.6791192371761392e-01  9.6767575511422788e-01  9.6743624685821428e-01  9.6717391379631612e-01  9.6685841009554285e-01  9.6647386707970184e-01  9.6604218899992411e-01  9.6561830320624109e-01  9.6526438303954454e-01  9.6502784604847058e-01  9.6491058384150818e-01  9.6485497708625878e-01  9.6478620000511772e-01  9.6465102051345497e-01  9.6441501250811912e-01  9.6403638883221487e-01  9.6343522878515675e-01  9.6247016478799896e-01  9.6095148714749301e-01  9.5871143574220086e-01  9.5568984945919988e-01  9.5201864233680766e-01  9.4812443549903902e-01  9.4486024383964817e-01  9.4365142271204538e-01  9.5520060366565851e-01  9.6193098549323397e-01  9.7248848679976918e-01  9.8630995497618112e-01  9.9350661685689889e-01  9.9814136017693156e-01  9.9524178066905578e-01  9.9031148357456156e-01  9.8022044887551696e-01  9.7145494447140568e-01  9.6454823929608002e-01  9.6147021354043216e-01  9.6348306586540111e-01  9.7503853266660157e-01  9.8040156318635219e-01  9.1693393490904163e-01  9.0309657651548525e-01  8.8716579837401843e-01  8.9425686875966193e-01  9.0263546178107834e-01  9.6684798616669110e-01  9.5345312486918044e-01  9.5093881926037083e-01  9.5227286015066814e-01  9.5571301985219137e-01  9.5186446404000669e-01  9.5622677370244502e-01  9.5954874582710703e-01  9.6173278842854493e-01  9.6299166687288140e-01  9.6360584662527238e-01  9.6377645486043517e-01  9.6360915394225000e-01  9.6318538513859897e-01  9.6262798294192997e-01  9.6210105632660370e-01  9.6177433291295644e-01  9.6177653924339079e-01  9.6215329615241296e-01  9.6284833070772968e-01  9.6371130748571543e-01  9.6453837336337045e-01  9.6512309473666913e-01  9.6528068887872764e-01  9.6483411344855496e-01  9.6355472036582146e-01  9.6111776734890808e-01  9.6403484716722843e-01  9.5916659985097197e-01  9.5326415638516615e-01  9.4753498370547484e-01  9.4405440463069790e-01  9.4515685100656699e-01  9.5474591900250716e-01  9.1562753626934701e-01  8.9188335386028716e-01  8.9564360237431917e-01  8.8683932761975548e-01  8.8007583088522268e-01  8.7478459921194029e-01  8.7757762042707999e-01  8.8531157098576441e-01  8.9942508651778152e-01  9.6452807434029142e-01  9.6577382970703696e-01  9.7211752912741256e-01  9.8289783539372211e-01  9.8932602330366426e-01  9.9376291879894019e-01  9.9529208228678179e-01  9.9413517166642507e-01  9.9220475547888054e-01  9.9009607340440908e-01  9.8831416850735920e-01  9.8700801743692634e-01  9.8612374113178991e-01  9.8555850613710383e-01  9.8524776857843899e-01  9.8516969785850472e-01  9.8530435492466983e-01  9.8559899325633971e-01  9.8597539232071107e-01  9.8638343074342860e-01  9.8686389146315889e-01  9.8756088751635362e-01  9.8864964925347298e-01  9.9020371014068997e-01  9.9206750729273729e-01  9.9380735570856860e-01  9.9477449239512916e-01  9.9426362411923142e-01  9.9165582251873696e-01  9.8676913897300822e-01  9.8227308902880339e-01  9.7450686691623811e-01  9.6341399033277086e-01  9.0658048042073580e-01  8.8768500752785751e-01  5.8772413701128401e-01  4.6146973268352992e-01  4.1703498874957606e-01  3.5145556716271242e-01  2.5007273400832936e-01  0.0000000000000000e+00  4.1189900118157206e-03  3.9358367552587347e-03  5.9548413258076393e-03  6.3774207302117322e-03  5.7924664361042764e-03  3.8281691857762461e-03  2.9169385074931395e-03  2.0987384545975755e-03  1.4457266186854551e-03  9.6356450853910382e-04  6.2654237062438004e-04  4.0132257551320054e-04  2.5543611373730722e-04  1.6066463866251573e-04  9.9852456263517926e-05  8.0688639466546959e-05  4.9573247544856989e-05  2.9441188031295037e-05  1.7685862084885623e-05  9.2462538826693848e-06  2.5144339494848859e-06  4.8359207549020174e-08  0.0000000000000000e+00  0.0000000000000000e+00  0.0000000000000000e+00  0.0000000000000000e+00  0.0000000000000000e+00  0.0000000000000000e+00  0.0000000000000000e+00  0.0000000000000000e+00  0.0000000000000000e+00  0.0000000000000000e+00  0.0000000000000000e+00  0.0000000000000000e+00  0.0000000000000000e+00  0.0000000000000000e+00  0.0000000000000000e+00  9.9818282231047106e-01  9.9622182145550819e-01  9.9547511667252553e-01  9.9417216449878398e-01  9.9152803055140459e-01  9.8775027061508003e-01  9.8259115840066180e-01  9.7582855929845880e-01  9.6741167978528730e-01  9.5764931850641266e-01  9.4733585260690556e-01  9.3797965104106296e-01  9.3171638343317253e-01  9.3017354496000249e-01  9.3335066320758697e-01  9.3982908687001210e-01  9.4776336614431078e-01  9.5572663948465364e-01  9.6300320055145194e-01  9.6942479304309126e-01  9.7507052576003017e-01  9.7998728883665742e-01  9.8393946079045291e-01  9.8529271456717393e-01  6.2884902550200283e-01  1.9607651246424621e-02  1.4880981758033118e-01  9.3586610732144271e-01  9.3524475733273615e-01  9.2030043036426334e-01  9.1185299421501842e-01  9.1078084843099560e-01  9.1558836482707018e-01  9.2362946870376994e-01  9.3228073522224597e-01  9.3963856008430646e-01  9.4474608318452569e-01  9.4751022325643497e-01  9.4842533437020216e-01  9.4818660804168953e-01  9.4737121971001803e-01  9.4634513099467277e-01  9.4530283509944835e-01  9.4432720062561459e-01  9.4343038156459735e-01  9.4258260433137908e-01  9.4174063496419314e-01  9.4087262604948629e-01  9.3998731408480496e-01  9.3914978006088701e-01  9.3844572660890235e-01  9.3790995044651126e-01  9.3747072895470629e-01  9.3699368993936527e-01  9.3640469612206234e-01  9.3573791620740077e-01  9.3509107831373472e-01  9.3453434048007855e-01  9.3404556171016917e-01  9.3354127455286118e-01  9.3298264518677532e-01  9.3240960161973163e-01  9.3186802581299455e-01  9.3135487015962748e-01  9.3084430197803381e-01  9.3032708128475805e-01  9.2981238783957654e-01  9.2930275211992652e-01  9.2876474470192083e-01  9.2812563638251155e-01  9.2733152768396920e-01  9.2641518438161774e-01  9.2549245877726960e-01  9.2469707506242227e-01  9.2414860080980610e-01  9.2388007629874158e-01  9.2376820293490192e-01  9.2364288844691345e-01  9.2339599486293711e-01  9.2297458733790694e-01  9.2232335159029033e-01  9.2132088924256361e-01  9.1971799296807899e-01  9.1713768920591221e-01  9.1322560741038628e-01  9.0782868083297286e-01  9.0115253248436678e-01  8.9395422158322513e-01  8.8779337492559107e-01  8.8533575545887278e-01  9.0838377016255012e-01  9.2164369657263401e-01  9.4362626801208527e-01  9.7313952633808432e-01  9.8922563170242972e-01  9.9824617470959143e-01  9.9390321837918105e-01  9.8331405384896242e-01  9.6208245442381413e-01  9.4265132209431934e-01  9.2695400848864229e-01  9.1928220041998188e-01  9.2264956442958590e-01  9.4714068683140185e-01  9.5668974555345854e-01  8.9544790918451489e-01  9.2079081326538215e-01  8.5808975942777432e-01  8.2447353013339042e-01  8.1637992466548004e-01  8.4655104746032672e-01  9.1504784604286626e-01  9.0701601417739675e-01  9.0675194315615448e-01  9.1112341683246700e-01  9.0106953987808169e-01  9.0823857390278939e-01  9.1399674951827559e-01  9.1792841614188803e-01  9.2026837961202856e-01  9.2146277919254294e-01  9.2187266391054501e-01  9.2170600718364160e-01  9.2108442320357897e-01  9.2017443189603476e-01  9.1925765961874439e-01  9.1864923219235173e-01  9.1860290157126012e-01  9.1922617905106441e-01  9.2045685626071572e-01  9.2205729144247817e-01  9.2365661206740612e-01  9.2487695359966160e-01  9.2539662938915546e-01  9.2491061806978603e-01  9.2305545427382518e-01  9.1933889995459583e-01  9.2716047871342788e-01  9.1932264053048685e-01  9.0963892698117010e-01  9.0002176521446164e-01  8.9403760840569391e-01  8.4821275654031525e-01  8.2533536166508015e-01  8.4249962765495356e-01  8.7186535974860191e-01  8.7991413557797271e-01  8.7750990438422194e-01  8.6934010210115054e-01  8.4831969402938789e-01  8.3998296014420593e-01  8.4448110815963862e-01  8.4216232605991492e-01  8.6128007115620298e-01  8.9676650820943904e-01  9.4401502942738458e-01  9.5446509607265839e-01  9.7035053479757971e-01  9.7702284728021171e-01  9.8068760542311173e-01  9.7774429014839559e-01  9.7518571358866901e-01  9.7202168460507110e-01  9.6922840043392211e-01  9.6717432915147139e-01  9.6583378290006017e-01  9.6504571639516057e-01  9.6469001456256120e-01  9.6472386440306535e-01  9.6512350065482622e-01  9.6581709617643785e-01  9.6667712706319475e-01  9.6759475434228870e-01  9.6859050432926663e-01  9.6986440739048752e-01  9.7170600958316511e-01  9.7428116968717593e-01  9.7739878642349798e-01  9.8039947619967183e-01  9.8224117210996387e-01  9.8176745348591088e-01  9.7916212903610322e-01  9.7056209552711870e-01  9.6549623506587301e-01  8.2965832367274972e-01  7.8606969564970475e-01  5.8406371068463869e-01  8.2245531001798455e-01  6.5817606615036073e-01  5.4016817089295444e-01  4.7993165341374178e-01  4.4475716127924719e-01  3.4623647631916010e-01  5.3602218840072241e-02  3.8344241969432404e-02  8.9883058657564199e-03  1.2314733798778990e-02  1.3182739663841876e-02  1.2186195013894195e-02  8.2330803736403863e-03  6.3659529943071134e-03  4.6279598590865207e-03  3.2094026433481171e-03  2.1479217792792840e-03  1.4004577690511738e-03  9.0412382825072609e-04  5.7670555741249165e-04  3.6395847518836137e-04  2.2737557861434389e-04  1.8514383847948967e-04  1.1493218809089388e-04  6.9404662771565550e-05  4.2581768635320063e-05  2.2935448070658413e-05  1.0614850802786191e-05  1.9039406207276526e-06  0.0000000000000000e+00  0.0000000000000000e+00  0.0000000000000000e+00  0.0000000000000000e+00  0.0000000000000000e+00  0.0000000000000000e+00  0.0000000000000000e+00  0.0000000000000000e+00  0.0000000000000000e+00  0.0000000000000000e+00  0.0000000000000000e+00  0.0000000000000000e+00  0.0000000000000000e+00  0.0000000000000000e+00  0.0000000000000000e+00  9.9762530259928850e-01  9.9514424325870843e-01  9.9422530695093725e-01  9.9206027282017384e-01  9.8902560468616552e-01  9.8386325115908702e-01  9.7669638052724883e-01  9.6707137535178689e-01  9.5480482987945881e-01  9.4041711832292674e-01  9.2511916835733277e-01  9.1112163539586466e-01  9.0182848824995598e-01  8.9987737791702016e-01  9.0517213205235403e-01  9.1540990260893618e-01  9.2753516684844783e-01  9.3917973346084749e-01  9.4938934164045174e-01  9.5821820058096585e-01  9.6607272742009820e-01  9.7328405092282722e-01  9.7972211524313801e-01  9.8319037760416450e-01  8.5284759140415778e-01  7.3433279742597812e-01  2.9601438969749089e-01  3.0857087188591925e-01  4.6886621440846238e-01  8.4788439605718635e-01  8.8130143297499619e-01  8.7998931964606042e-01  8.8697197207550882e-01  8.9808848147464182e-01  9.0962395147163266e-01  9.1909223578362786e-01  9.2534534423577863e-01  9.2839116996861792e-01  9.2906020692470248e-01  9.2841826173096709e-01  9.2722010711349523e-01  9.2587017531889415e-01  9.2456180338302651e-01  9.2337253463496571e-01  9.2230197574746664e-01  9.2130156614445513e-01  9.2030605844592683e-01  9.1924392855892045e-01  9.1809608023669742e-01  9.1697080644990669e-01  9.1606035336899383e-01  9.1546689574082696e-01  9.1504164227466056e-01  9.1450464895261130e-01  9.1372469025599590e-01  9.1278793316788043e-01  9.1192178982458483e-01  9.1127479053694216e-01  9.1075101503718825e-01  9.1013020215672924e-01  9.0937041483532877e-01  9.0861588836070295e-01  9.0795405374449456e-01  9.0733662569541695e-01  9.0669413323724624e-01  9.0601433591859171e-01  9.0534476366887440e-01  9.0473681314542886e-01  9.0414620557352021e-01  9.0341305997796606e-01  9.0242423455168508e-01  9.0122724331005344e-01  8.9997214498343869e-01  8.9887395494676325e-01  8.9819921766317024e-01  8.9797343737167667e-01  8.9790924191379684e-01  8.9775762575421858e-01  8.9741425578180689e-01  8.9687081137123148e-01  8.9614754796512242e-01  8.9517680551585710e-01  8.9364462446825954e-01  8.9101516397765623e-01  8.8681171759517430e-01  8.8079669304576180e-01  8.7315477770714034e-01  8.6474416775392171e-01  8.5744109213849851e-01  8.5457293733152706e-01  5.9168657521642809e-01  2.8954110566483898e-01  2.2971276535131482e-01  5.5724028414603843e-01  9.8557044281720341e-01  1.0000000000000000e+00  9.9936033256609969e-01  9.8370125779884743e-01  9.5378484332625879e-01  8.6722841613189539e-01  7.2947730075884776e-01  6.7978414412208399e-01  6.7299300808756157e-01  7.4578223331124860e-01  8.2908554884380048e-01  9.1021195187420911e-01  9.4164110454532624e-01  8.1735318324078665e-01  4.3844734588434536e-01  3.2137884085514920e-02  4.2716887856879680e-02  3.2459490472138225e-01  4.7310547021747756e-01  5.6993073030041852e-01  6.4398004599626568e-01  6.7116075329064584e-01  5.4036441211525887e-01  6.7862096804511796e-01  6.6481109565265173e-01  7.1211219778843704e-01  7.2091522063131142e-01  7.4397416931044213e-01  5.9512603735250624e-01  7.3692542750040924e-01  7.0151842482141735e-01  7.0340942011237406e-01  7.0954365997061830e-01  7.2692271830611088e-01  7.7688287609018492e-01  6.8008196122435483e-01  7.1004493001893776e-01  7.1354222816041524e-01  7.1398683601940993e-01  6.2505271301725285e-01  7.8658947703067528e-01  7.1507697560417116e-01  7.0127760570219899e-01  7.0788341775100971e-01  5.6875947674037408e-01  6.3881393335838199e-01  5.7369072926363429e-01  4.7490644823365580e-01  5.1957740015170417e-01  4.9896882994867958e-01  7.1515223762120994e-01  8.3641673017861196e-01  7.0442906145336848e-01  6.3875942413272269e-01  6.1436649198240434e-01  5.6320232440082785e-01  5.2926205296734619e-01  4.6219516512991121e-01  4.0675436335468795e-01  1.8037755986474974e-01  1.7949172054113527e-01  1.8616936412354371e-01  2.5422531592024367e-01  2.9913646933648402e-01  3.4715184673177829e-01  4.0193029055408491e-01  4.7612880383625839e-01  4.8401410431101938e-01  4.7457714507092008e-01  4.8066580832413036e-01  4.6883820335407561e-01  4.6293546063558400e-01  4.6951171785565132e-01  4.7954076216262692e-01  4.8661934059425765e-01  4.9263466457484251e-01  4.8975049746453103e-01  4.8394855848196272e-01  4.7492193283343115e-01  4.8129990044724863e-01  4.9151437052240121e-01  5.1095679052343401e-01  5.3021838165624491e-01  5.0305864951354873e-01  5.1522385760404454e-01  4.3853234092546828e-01  4.7824671067795382e-01  4.8633521391808854e-01  4.4749751632874329e-01  4.1878855548688870e-01  3.8797049078893442e-01  3.2457917511695844e-01  3.2775450857805405e-01  3.4339323366250291e-01  3.7149333527690082e-01  4.4605900509753454e-01  4.6468780650992331e-01  4.7636825568737529e-01  5.2590263157347039e-01  5.0272717865889860e-01  4.2458961364599473e-01  1.4621280599408196e-01  2.1332542290718709e-02  2.0202568955756839e-02  1.4182989598046624e-02  1.1273853590898511e-02  8.3539645402623455e-03  5.8551254935564024e-03  3.9343304926723281e-03  2.5836876986313779e-03  1.6670674967893006e-03  1.0626148704742115e-03  6.7278421561534714e-04  4.2422793995480686e-04  3.4829313286645152e-04  2.2174137837188373e-04  1.3976117171881066e-04  8.6355710037284958e-05  5.4645129055633838e-05  3.1195020984081879e-05  1.5582564233296272e-05  7.4707995781988466e-06  0.0000000000000000e+00  0.0000000000000000e+00  0.0000000000000000e+00  0.0000000000000000e+00  0.0000000000000000e+00  0.0000000000000000e+00  0.0000000000000000e+00  0.0000000000000000e+00  0.0000000000000000e+00  0.0000000000000000e+00  0.0000000000000000e+00  0.0000000000000000e+00  0.0000000000000000e+00  0.0000000000000000e+00  0.0000000000000000e+00  9.9663749359356790e-01  9.9318839151299598e-01  9.9150153559926246e-01  9.8884876367200503e-01  9.8462785944952869e-01  9.7713166521838668e-01  9.6686030928854394e-01  9.5328842388580581e-01  9.3635033088482067e-01  9.1737251822417443e-01  8.9847281514994892e-01  6.0265220636352801e-01  2.2673434141891152e-01  5.0611703090090158e-02  1.2286165551774618e-01  3.4863373566730954e-01  7.3293539070043878e-01  9.1493074927791007e-01  9.2770158689104210e-01  9.3903975211546187e-01  9.4971972054769782e-01  9.6059250132856855e-01  9.7175029293432780e-01  9.7916952885932673e-01  9.7865509622294999e-01  9.0894371954381326e-01  6.2880820635516133e-01  1.0070689494690808e-04  0.0000000000000000e+00  0.0000000000000000e+00  0.0000000000000000e+00  0.0000000000000000e+00  0.0000000000000000e+00  0.0000000000000000e+00  0.0000000000000000e+00  0.0000000000000000e+00  0.0000000000000000e+00  0.0000000000000000e+00  1.5632003688755527e-01  1.1675896185594080e-01  9.9698755010015391e-02  9.6916363739353251e-02  1.0165533212076681e-01  1.1073462650937378e-01  9.4196264049888540e-02  1.0673765917173854e-01  1.0699068347334909e-01  7.3008637253416622e-02  8.0573368410168295e-02  9.1868423755759668e-02  1.5605927284179227e-01  1.6226061741587960e-01  2.7260770060065980e-02  8.0120024759609929e-02  4.7407265749240597e-02  9.5270734100879328e-02  1.4306269872795072e-01  1.5027552653161011e-01  3.2740858770569120e-02  1.7395180361312292e-02  1.0828510524796481e-01  1.3438041887964777e-01  7.1259771255831328e-02  6.7483274683269756e-02  6.6009192883480949e-02  7.0403684614858172e-02  7.8047468258006542e-02  1.2528546351216394e-01  5.9470700703393178e-02  3.4682404699892699e-02  3.5940496266310205e-02  1.1734506436953683e-01  0.0000000000000000e+00  9.4000641087317774e-02  2.3406567032240475e-01  0.0000000000000000e+00  4.6152512458004523e-02  4.3370462632384178e-02  4.4713976751044195e-02  4.6651616947061277e-02  6.7176329884002350e-02  1.2027512026936087e-01  0.0000000000000000e+00  5.8762987429415159e-03  0.0000000000000000e+00  0.0000000000000000e+00  0.0000000000000000e+00  0.0000000000000000e+00  0.0000000000000000e+00  0.0000000000000000e+00  0.0000000000000000e+00  0.0000000000000000e+00  0.0000000000000000e+00  1.1489325779719462e-03  6.9945968775202139e-01  8.9416540359226526e-01  1.0000000000000000e+00  6.3231645517344137e-01  0.0000000000000000e+00  0.0000000000000000e+00  0.0000000000000000e+00  0.0000000000000000e+00  0.0000000000000000e+00  0.0000000000000000e+00  0.0000000000000000e+00  3.6306696988573955e-01  4.8689967862341887e-01  4.9811778588824218e-01  5.3690589426784868e-02  2.1276439163835984e-02  0.0000000000000000e+00  0.0000000000000000e+00  0.0000000000000000e+00  0.0000000000000000e+00  0.0000000000000000e+00  0.0000000000000000e+00  0.0000000000000000e+00  0.0000000000000000e+00  0.0000000000000000e+00  0.0000000000000000e+00  0.0000000000000000e+00  0.0000000000000000e+00  0.0000000000000000e+00  0.0000000000000000e+00  0.0000000000000000e+00  0.0000000000000000e+00  0.0000000000000000e+00  0.0000000000000000e+00  0.0000000000000000e+00  0.0000000000000000e+00  0.0000000000000000e+00  0.0000000000000000e+00  0.0000000000000000e+00  0.0000000000000000e+00  0.0000000000000000e+00  0.0000000000000000e+00  0.0000000000000000e+0