<?xml version="1.0"?>
<VTKFile type="UnstructuredGrid"  version="0.1"  >
<UnstructuredGrid>
<Piece  NumberOfPoints="7161" NumberOfCells="13800">
<Points>
<DataArray  type="Float64"  NumberOfComponents="3"  format="ascii">0 0 0  0.01652173913043478 0 0  0.03304347826086956 0 0  0.04956521739130434 0 0  0.06608695652173913 0 0  0.08260869565217391 0 0  0.09913043478260869 0 0  0.1156521739130435 0 0  0.1321739130434783 0 0  0.148695652173913 0 0  0.1652173913043478 0 0  0.1817391304347826 0 0  0.1982608695652174 0 0  0.2147826086956522 0 0  0.2313043478260869 0 0  0.2478260869565218 0 0  0.2643478260869565 0 0  0.2808695652173913 0 0  0.2973913043478261 0 0  0.3139130434782609 0 0  0.3304347826086956 0 0  0.3469565217391304 0 0  0.3634782608695652 0 0  0.3799999999999999 0 0  0.3965217391304348 0 0  0.4130434782608696 0 0  0.4295652173913043 0 0  0.4460869565217391 0 0  0.4626086956521739 0 0  0.4791304347826086 0 0  0.4956521739130435 0 0  0.5121739130434783 0 0  0.528695652173913 0 0  0.5452173913043478 0 0  0.5617391304347825 0 0  0.5782608695652174 0 0  0.5947826086956521 0 0  0.6113043478260869 0 0  0.6278260869565218 0 0  0.6443478260869565 0 0  0.6608695652173913 0 0  0.677391304347826 0 0  0.6939130434782609 0 0  0.7104347826086956 0 0  0.7269565217391304 0 0  0.7434782608695653 0 0  0.7599999999999999 0 0  0.7765217391304348 0 0  0.7930434782608695 0 0  0.8095652173913043 0 0  0.8260869565217391 0 0  0.8426086956521739 0 0  0.8591304347826086 0 0  0.8756521739130434 0 0  0.8921739130434783 0 0  0.908695652173913 0 0  0.9252173913043478 0 0  0.9417391304347826 0 0  0.9582608695652173 0 0  0.9747826086956521 0 0  0.991304347826087 0 0  1.007826086956522 0 0  1.024347826086957 0 0  1.040869565217391 0 0  1.057391304347826 0 0  1.073913043478261 0 0  1.090434782608696 0 0  1.10695652173913 0 0  1.123478260869565 0 0  1.14 0 0  1.156521739130435 0 0  1.17304347826087 0 0  1.189565217391304 0 0  1.206086956521739 0 0  1.222608695652174 0 0  1.239130434782609 0 0  1.255652173913044 0 0  1.272173913043478 0 0  1.288695652173913 0 0  1.305217391304348 0 0  1.321739130434783 0 0  1.338260869565217 0 0  1.354782608695652 0 0  1.371304347826087 0 0  1.387826086956522 0 0  1.404347826086957 0 0  1.420869565217391 0 0  1.437391304347826 0 0  1.453913043478261 0 0  1.470434782608696 0 0  1.486956521739131 0 0  1.503478260869565 0 0  1.52 0 0  1.536521739130435 0 0  1.55304347826087 0 0  1.569565217391304 0 0  1.586086956521739 0 0  1.602608695652174 0 0  1.619130434782609 0 0  1.635652173913043 0 0  1.652173913043478 0 0  1.668695652173913 0 0  1.685217391304348 0 0  1.701739130434782 0 0  1.718260869565217 0 0  1.734782608695652 0 0  1.751304347826087 0 0  1.767826086956522 0 0  1.784347826086957 0 0  1.800869565217391 0 0  1.817391304347826 0 0  1.833913043478261 0 0  1.850434782608696 0 0  1.86695652173913 0 0  1.883478260869565 0 0  1.9 0 0  1.916521739130435 0 0  1.933043478260869 0 0  1.949565217391304 0 0  1.966086956521739 0 0  1.982608695652174 0 0  1.999130434782608 0 0  2.015652173913043 0 0  2.032173913043478 0 0  2.048695652173913 0 0  2.065217391304348 0 0  2.081739130434782 0 0  2.098260869565217 0 0  2.114782608695652 0 0  2.131304347826087 0 0  2.147826086956522 0 0  2.164347826086956 0 0  2.180869565217391 0 0  2.197391304347826 0 0  2.213913043478261 0 0  2.230434782608695 0 0  2.24695652173913 0 0  2.263478260869565 0 0  2.28 0 0  2.296521739130434 0 0  2.31304347826087 0 0  2.329565217391304 0 0  2.346086956521739 0 0  2.362608695652174 0 0  2.379130434782609 0 0  2.395652173913044 0 0  2.412173913043478 0 0  2.428695652173913 0 0  2.445217391304348 0 0  2.461739130434782 0 0  2.478260869565217 0 0  2.494782608695652 0 0  2.511304347826087 0 0  2.527826086956522 0 0  2.544347826086956 0 0  2.560869565217391 0 0  2.577391304347826 0 0  2.593913043478261 0 0  2.610434782608696 0 0  2.62695652173913 0 0  2.643478260869565 0 0  2.66 0 0  2.676521739130435 0 0  2.693043478260869 0 0  2.709565217391304 0 0  2.726086956521739 0 0  2.742608695652174 0 0  2.759130434782609 0 0  2.775652173913044 0 0  2.792173913043478 0 0  2.808695652173913 0 0  2.825217391304347 0 0  2.841739130434783 0 0  2.858260869565217 0 0  2.874782608695652 0 0  2.891304347826087 0 0  2.907826086956522 0 0  2.924347826086957 0 0  2.940869565217391 0 0  2.957391304347826 0 0  2.973913043478261 0 0  2.990434782608696 0 0  3.006956521739131 0 0  3.023478260869565 0 0  3.04 0 0  3.056521739130435 0 0  3.073043478260869 0 0  3.089565217391304 0 0  3.106086956521739 0 0  3.122608695652174 0 0  3.139130434782609 0 0  3.155652173913043 0 0  3.172173913043478 0 0  3.188695652173913 0 0  3.205217391304347 0 0  3.221739130434782 0 0  3.238260869565217 0 0  3.254782608695652 0 0  3.271304347826087 0 0  3.287826086956521 0 0  3.304347826086957 0 0  3.320869565217391 0 0  3.337391304347826 0 0  3.353913043478261 0 0  3.370434782608696 0 0  3.386956521739131 0 0  3.403478260869565 0 0  3.419999999999999 0 0  3.436521739130435 0 0  3.453043478260869 0 0  3.469565217391304 0 0  3.486086956521739 0 0  3.502608695652174 0 0  3.519130434782609 0 0  3.535652173913043 0 0  3.552173913043478 0 0  3.568695652173913 0 0  3.585217391304347 0 0  3.601739130434782 0 0  3.618260869565217 0 0  3.634782608695652 0 0  3.651304347826087 0 0  3.667826086956521 0 0  3.684347826086956 0 0  3.700869565217391 0 0  3.717391304347826 0 0  3.733913043478261 0 0  3.750434782608695 0 0  3.766956521739131 0 0  3.783478260869565 0 0  3.8 0 0  0 0.01666666666666667 0  0.01652173913043478 0.01666666666666667 0  0.03304347826086956 0.01666666666666667 0  0.04956521739130434 0.01666666666666667 0  0.06608695652173913 0.01666666666666667 0  0.08260869565217391 0.01666666666666667 0  0.09913043478260869 0.01666666666666667 0  0.1156521739130435 0.01666666666666667 0  0.1321739130434783 0.01666666666666667 0  0.148695652173913 0.01666666666666667 0  0.1652173913043478 0.01666666666666667 0  0.1817391304347826 0.01666666666666667 0  0.1982608695652174 0.01666666666666667 0  0.2147826086956522 0.01666666666666667 0  0.2313043478260869 0.01666666666666667 0  0.2478260869565218 0.01666666666666667 0  0.2643478260869565 0.01666666666666667 0  0.2808695652173913 0.01666666666666667 0  0.2973913043478261 0.01666666666666667 0  0.3139130434782609 0.01666666666666667 0  0.3304347826086956 0.01666666666666667 0  0.3469565217391304 0.01666666666666667 0  0.3634782608695652 0.01666666666666667 0  0.3799999999999999 0.01666666666666667 0  0.3965217391304348 0.01666666666666667 0  0.4130434782608696 0.01666666666666667 0  0.4295652173913043 0.01666666666666667 0  0.4460869565217391 0.01666666666666667 0  0.4626086956521739 0.01666666666666667 0  0.4791304347826086 0.01666666666666667 0  0.4956521739130435 0.01666666666666667 0  0.5121739130434783 0.01666666666666667 0  0.528695652173913 0.01666666666666667 0  0.5452173913043478 0.01666666666666667 0  0.5617391304347825 0.01666666666666667 0  0.5782608695652174 0.01666666666666667 0  0.5947826086956521 0.01666666666666667 0  0.6113043478260869 0.01666666666666667 0  0.6278260869565218 0.01666666666666667 0  0.6443478260869565 0.01666666666666667 0  0.6608695652173913 0.01666666666666667 0  0.677391304347826 0.01666666666666667 0  0.6939130434782609 0.01666666666666667 0  0.7104347826086956 0.01666666666666667 0  0.7269565217391304 0.01666666666666667 0  0.7434782608695653 0.01666666666666667 0  0.7599999999999999 0.01666666666666667 0  0.7765217391304348 0.01666666666666667 0  0.7930434782608695 0.01666666666666667 0  0.8095652173913043 0.01666666666666667 0  0.8260869565217391 0.01666666666666667 0  0.8426086956521739 0.01666666666666667 0  0.8591304347826086 0.01666666666666667 0  0.8756521739130434 0.01666666666666667 0  0.8921739130434783 0.01666666666666667 0  0.908695652173913 0.01666666666666667 0  0.9252173913043478 0.01666666666666667 0  0.9417391304347826 0.01666666666666667 0  0.9582608695652173 0.01666666666666667 0  0.9747826086956521 0.01666666666666667 0  0.991304347826087 0.01666666666666667 0  1.007826086956522 0.01666666666666667 0  1.024347826086957 0.01666666666666667 0  1.040869565217391 0.01666666666666667 0  1.057391304347826 0.01666666666666667 0  1.073913043478261 0.01666666666666667 0  1.090434782608696 0.01666666666666667 0  1.10695652173913 0.01666666666666667 0  1.123478260869565 0.01666666666666667 0  1.14 0.01666666666666667 0  1.156521739130435 0.01666666666666667 0  1.17304347826087 0.01666666666666667 0  1.189565217391304 0.01666666666666667 0  1.206086956521739 0.01666666666666667 0  1.222608695652174 0.01666666666666667 0  1.239130434782609 0.01666666666666667 0  1.255652173913044 0.01666666666666667 0  1.272173913043478 0.01666666666666667 0  1.288695652173913 0.01666666666666667 0  1.305217391304348 0.01666666666666667 0  1.321739130434783 0.01666666666666667 0  1.338260869565217 0.01666666666666667 0  1.354782608695652 0.01666666666666667 0  1.371304347826087 0.01666666666666667 0  1.387826086956522 0.01666666666666667 0  1.404347826086957 0.01666666666666667 0  1.420869565217391 0.01666666666666667 0  1.437391304347826 0.01666666666666667 0  1.453913043478261 0.01666666666666667 0  1.470434782608696 0.01666666666666667 0  1.486956521739131 0.01666666666666667 0  1.503478260869565 0.01666666666666667 0  1.52 0.01666666666666667 0  1.536521739130435 0.01666666666666667 0  1.55304347826087 0.01666666666666667 0  1.569565217391304 0.01666666666666667 0  1.586086956521739 0.01666666666666667 0  1.602608695652174 0.01666666666666667 0  1.619130434782609 0.01666666666666667 0  1.635652173913043 0.01666666666666667 0  1.652173913043478 0.01666666666666667 0  1.668695652173913 0.01666666666666667 0  1.685217391304348 0.01666666666666667 0  1.701739130434782 0.01666666666666667 0  1.718260869565217 0.01666666666666667 0  1.734782608695652 0.01666666666666667 0  1.751304347826087 0.01666666666666667 0  1.767826086956522 0.01666666666666667 0  1.784347826086957 0.01666666666666667 0  1.800869565217391 0.0166666666666666
[...]
<PointData  Scalars="rho"> 
<DataArray  type="Float64"  Name="rho"  format="ascii">9.9659280648000315e-01  9.9479520899871565e-01  9.9395190254492227e-01  9.9286593979688420e-01  9.9132195333041895e-01  9.8915920742842522e-01  9.6558216203860414e-01  9.5699947388733908e-01  9.4472812126086891e-01  9.3338720917755991e-01  9.2455839268608264e-01  9.2595935496680792e-01  9.2742084345876841e-01  9.3245251299286092e-01  9.7431646913407988e-01  9.7438637614356260e-01  9.7917320333077928e-01  9.8201685750558199e-01  9.8344394595591822e-01  9.8501075574511143e-01  9.8611617705352761e-01  9.8618478979086888e-01  9.8559702577561803e-01  9.8318097060959275e-01  4.4622563376548158e-01  2.1184354406033745e-01  7.3755862520887339e-01  9.5672526564692095e-01  9.5439123065953335e-01  9.5609637159505223e-01  9.7137037673324678e-01  9.7563676845437564e-01  9.7634667636589900e-01  9.7394529443005884e-01  9.6970877401492006e-01  9.6502031283408840e-01  9.6096249147883106e-01  9.5822529938647671e-01  9.6373544405286171e-01  9.6335784137844727e-01  9.6410931787286980e-01  9.7126057180804148e-01  9.6611500479885137e-01  9.6659387189963153e-01  9.6521120580897835e-01  9.6533940106227012e-01  9.6550775080587758e-01  9.6445346845517221e-01  9.6375868658240404e-01  9.6309787281334958e-01  9.6255341808425787e-01  9.6212393483018666e-01  9.6176200930621525e-01  9.6141347439154057e-01  9.6104378083661646e-01  9.6064257592709112e-01  9.6021549842727238e-01  9.5977417726563075e-01  9.5932990550108965e-01  9.5889176804729936e-01  9.5846774684078195e-01  9.1579262992780874e-01  9.1511620284184891e-01  9.1446887574922808e-01  9.1384268091135390e-01  9.1321900622503682e-01  9.1258347434053111e-01  9.1193908243797006e-01  9.1129397913740640e-01  9.1064476156357377e-01  9.0998190353595176e-01  9.0928968925739895e-01  9.0853192059213650e-01  9.0765966468820469e-01  8.9886755252878603e-01  8.9700935022404682e-01  8.9461792664769835e-01  8.9272644534823287e-01  9.0466578311040624e-01  9.0272711310775389e-01  9.0110442568150451e-01  8.9994170620267577e-01  8.9967002917858530e-01  9.0051302849983106e-01  9.0133904968482992e-01  9.0095132989295590e-01  9.0021214796346172e-01  8.9833295440816407e-01  8.9442836054384989e-01  8.8539146270006996e-01  8.9120691059703894e-01  8.8719584294658904e-01  8.1422917211005519e-01  8.8860218555932313e-01  9.2012117637441393e-01  9.6689666049459255e-01  9.6568187957296514e-01  9.2635966443278828e-01  9.0890519867933239e-01  8.9289260728327624e-01  8.8274466411203756e-01  9.2258130097726265e-01  9.3013812560570552e-01  8.8123338470519408e-01  9.1955978572394748e-01  8.7843852745549156e-01  8.8406970884791669e-01  8.6395455548558719e-01  8.5005428113905757e-01  8.6047329466649736e-01  9.4021538650619740e-01  9.4183393287967543e-01  9.4326832834455054e-01  9.4121679201542696e-01  9.3624848191244714e-01  9.2696829929707636e-01  9.1860465828357263e-01  9.0987553329122217e-01  9.0130864510379238e-01  8.9347784015939014e-01  8.8679471335908855e-01  8.8178257637002611e-01  8.7878920789388748e-01  8.7798295578310270e-01  8.6528698878127608e-01  8.6500126450648862e-01  8.6443209380195585e-01  8.6514486908479371e-01  8.7378279567234962e-01  8.8612492182131530e-01  9.1404606592073345e-01  9.1446176768014786e-01  9.1521622273713665e-01  9.1587374158361634e-01  9.1600318481436993e-01  9.1516448193936084e-01  9.1307036093591021e-01  9.0957791101898355e-01  9.0480959404562056e-01  8.9927360476185314e-01  8.9392898349275629e-01  8.9018820557955702e-01  8.8941579780620339e-01  8.9217551112979754e-01  8.9787700734419840e-01  8.9665230908803351e-01  9.0846173970764799e-01  8.9385771570990091e-01  8.7821183525640689e-01  8.2865353608413761e-01  8.0004516178297014e-01  7.8769640114215655e-01  7.7318683455037052e-01  8.3896662124663135e-01  8.5161549192946917e-01  8.8926643005187400e-01  9.3598275807748088e-01  9.5800998507122104e-01  9.6098194370112322e-01  9.6797413697419743e-01  9.7600010584798647e-01  9.8308071952679055e-01  9.8858096246181348e-01  9.9253545985292235e-01  9.9523257154987721e-01  9.9700477377709462e-01  9.9813986260947085e-01  9.9885510851192449e-01  9.9930087273262747e-01  9.9957607447856989e-01  9.9974456964812908e-01  9.9984710388531195e-01  9.9990929401651818e-01  9.9257315312137118e-01  9.8142611856137107e-01  9.7089796744102563e-01  9.6274664858040382e-01  9.5658482262323807e-01  9.5359304416145418e-01  9.5352997837877906e-01  9.4335781369415717e-01  9.7089553555243058e-01  9.7764956769121303e-01  9.7756815635310801e-01  9.7732629526707326e-01  9.8805852032891284e-01  9.4292687030567135e-01  8.8013903888627443e-01  5.7738599488716191e-01  4.4756966266419412e-01  3.9427503635464434e-01  3.0979918361556791e-01  2.0417364773427080e-01  7.1099500594446786e-03  6.3465319988845218e-03  5.7450452481328258e-03  5.3805165005840353e-03  1.0646950113632264e-02  1.2468062719082252e-02  1.2126742721825363e-02  1.3735654984982347e-02  1.2479513346142808e-02  1.5579224369761693e-02  1.8917523698406661e-02  1.5467501082462254e-02  8.5576968896088554e-03  6.6726431564388096e-03  5.1103966621803545e-03  3.8557931219797615e-03  2.3942232562120017e-03  1.7655476141319240e-03  1.2907656463234292e-03  9.3691353514344610e-04  6.7594603114179126e-04  4.8506752927442431e-04  3.4635967445063013e-04  2.4609748470157182e-04  2.0875083070309085e-04  1.4674250984276596e-04  8.5440662477353772e-05  5.9301614622494196e-05  4.0862972977593672e-05  2.7940456624867404e-05  1.8951225932623073e-05  1.2753568518263440e-05  8.5286386982503723e-06  3.9873237690754046e-06  2.6963008802664996e-06  1.9074647459477692e-06  1.5043856313156992e-06  4.6796818391696521e-07  9.9427411918463715e-01  9.8964149435219206e-01  9.8811273315245540e-01  9.8637421168639017e-01  9.8362131475727910e-01  9.7997438190157959e-01  9.3914011313753265e-01  9.2553695857426099e-01  9.0827769461382513e-01  8.8361738182308402e-01  8.6625734973116708e-01  8.7097656803624779e-01  8.7355776591511813e-01  8.8259917199788940e-01  9.4160416670731895e-01  9.5122856716157045e-01  9.6108415997909380e-01  9.6620881688549987e-01  9.6974955730451218e-01  9.7180026543335196e-01  9.7413331863527231e-01  9.7455226426048314e-01  9.7415515175369138e-01  9.7071495267043717e-01  7.8605592418230608e-01  1.9447608646442985e-01  3.0115380033993988e-01  9.2228439032411969e-01  8.4602561773981577e-01  8.8994315759590126e-01  9.5479914305983427e-01  9.6477688287495544e-01  9.6563592134221499e-01  9.5900249563961704e-01  9.4837576893462217e-01  9.3715671097834385e-01  9.2769009687647386e-01  9.2128078799534741e-01  9.3340444635914388e-01  9.3211155658136691e-01  9.3332401961240152e-01  9.4969662033841729e-01  9.3728051332137552e-01  9.3814737331537801e-01  9.3476305781321223e-01  9.3508131174824216e-01  9.3548114207842481e-01  9.3308922780379933e-01  9.3161130019745741e-01  9.3029311767186096e-01  9.2929214108023228e-01  9.2855923109033767e-01  9.2794940126661118e-01  9.2732708869827341e-01  9.2662296475764516e-01  9.2582941345573089e-01  9.2497247381809988e-01  9.2408719672560180e-01  9.2320431418360849e-01  9.2234668074646819e-01  9.2153158832982618e-01  8.5500221697803669e-01  8.5392975358850443e-01  8.5293256249392480e-01  8.5199467284708574e-01  8.5106633156347333e-01  8.5010467692082248e-01  8.4912855633465234e-01  8.4817996615346314e-01  8.4725999591000301e-01  8.4636098510243896e-01  8.4548047364050993e-01  8.4455513193214748e-01  8.4344924153299816e-01  8.2439776150953070e-01  8.2112648923505283e-01  8.1645538852536803e-01  8.1264674491871514e-01  8.3990049258955091e-01  8.3586599234984127e-01  8.3252570976383500e-01  8.3015695378904197e-01  8.2977116874562007e-01  8.3213482266546035e-01  8.3600063030495742e-01  8.3684403829026155e-01  8.3818331648827404e-01  8.3850821747004811e-01  8.3603026319533991e-01  8.2253970482829852e-01  8.3738992837993986e-01  7.1168551617437037e-01  6.3173828925315256e-01  7.6049469944459358e-01  8.3685863339196220e-01  9.5141228935868483e-01  9.4883981287250174e-01  8.8929240335154069e-01  8.1350404441067625e-01  7.9957494848735555e-01  7.8147528099727714e-01  7.6552439834837605e-01  6.7186592145085033e-01  7.2857785622770133e-01  7.7397652136543171e-01  8.1736363030088555e-01  8.8815714521588662e-01  8.1955046571770052e-01  7.0422431970799948e-01  6.5048861007328684e-01  7.1427754821737266e-01  8.6151247144770637e-01  8.9527729555901281e-01  8.9532741174936248e-01  8.9105061307568434e-01  8.7816965654020362e-01  8.6762929180109449e-01  8.5548491471776311e-01  8.4289766717722903e-01  8.2740459811077782e-01  8.2262516771265404e-01  8.1657524434676143e-01  8.1400736295062248e-01  8.1679876855779654e-01  7.8964222969923692e-01  7.9162727028436874e-01  7.9271930076741459e-01  7.8987075047464428e-01  7.9881744821361500e-01  8.1151785475798677e-01  8.3346449986323023e-01  8.7329037290781486e-01  8.7108938610811948e-01  8.6948111485651691e-01  8.6791578301418049e-01  8.6568509846667763e-01  8.6232398048793613e-01  8.5751030861560695e-01  8.5127328660570667e-01  8.4414641283638425e-01  8.3720778551233033e-01  8.3225295426755397e-01  7.6310918456755084e-01  6.3970657566364175e-01  7.4986830821741168e-01  8.4605198425641870e-01  8.8196417052796294e-01  8.7872172106461321e-01  8.6366011827928590e-01  7.7819630936845940e-01  7.3378767977921722e-01  6.9779629080871275e-01  5.8247611800092836e-01  6.2871188957971225e-01  6.8023060904567578e-01  8.0117458241421502e-01  8.4316062365751721e-01  8.9791012034085538e-01  9.1762420437677006e-01  9.3172545511798210e-01  9.5076093038934251e-01  9.6447613371619634e-01  9.7556419308984088e-01  9.8380350547132711e-01  9.8955968309094733e-01  9.9340266723974857e-01  9.9588845677762738e-01  9.9746492061214231e-01  9.9845173758982853e-01  9.9906214543495631e-01  9.8823450207603480e-01  9.7702563363769346e-01  9.6639297498412757e-01  9.5601293478646421e-01  9.4403654128277548e-01  9.3210413070197307e-01  9.2214622068758123e-01  9.1607078423203592e-01  9.1467352030089688e-01  8.9962291784128490e-01  9.0064537556857949e-01  9.3969785424649233e-01  9.5262273956029908e-01  9.5178455560235709e-01  8.4082862239270639e-01  8.0001116236358749e-01  5.6215571169181267e-01  7.9907083624035213e-01  6.3921486120930504e-01  5.2359242371358916e-01  4.5295562378442439e-01  3.9302799922660869e-01  2.8457677408509863e-01  6.2068606868467815e-03  6.6627122200195576e-03  6.2072217026484999e-03  6.0809234760633123e-03  1.2739542444902659e-02  1.5883627689751344e-02  1.6481048295316127e-02  1.9929136689348148e-02  1.9332480808691231e-02  2.5736797363922977e-02  3.3217484390818126e-02  2.8711810284612834e-02  1.6675259949834226e-02  1.3541866954057211e-02  1.0717683913361281e-02  8.2967916257799465e-03  5.2533575080215894e-03  3.9305128697874787e-03  2.9041148225768662e-03  2.1240976340549693e-03  1.5407878304761857e-03  1.1099072761096814e-03  7.9460076570118379e-04  5.6555489346231532e-04  4.8022063482940108e-04  3.3772983660848284e-04  1.9664348976068839e-04  1.3643078093098708e-04  9.3940891571511184e-05  6.4163719616878987e-05  4.3457633485125197e-05  2.9188191847482473e-05  1.9463925252173276e-05  9.0578467230179631e-06  6.0740925667731093e-06  4.2283310989280980e-06  3.2388546041957016e-06  1.4496873144239963e-06  9.9227028296368891e-01  9.8679329273172200e-01  9.8570621560016258e-01  9.8368290345880738e-01  9.7967212440077189e-01  9.7539726687039885e-01  9.6964647974332219e-01  9.1048293865715746e-01  8.0518301234761325e-01  6.5366191162668541e-01  5.2769442821929591e-01  5.1058247305577975e-01  6.5154469153715799e-01  8.5815293427673867e-01  9.2537695542343645e-01  9.4317883326500862e-01  9.5281091411055963e-01  9.5742347266434680e-01  9.6270485362655089e-01  9.6552552459554275e-01  9.6848553921114122e-01  9.6920467282666733e-01  9.6879931369659289e-01  9.6672649676119227e-01  9.5888558914067812e-01  7.9622836208637238e-01  2.7933324022977785e-01  2.0022213541788658e-01  4.2539529225249763e-02  3.4211035880956742e-01  4.2610017698443126e-01  6.2645635229074015e-01  8.7598155754577056e-01  8.3481662281444868e-01  9.3807799555926497e-01  9.2195454860468851e-01  9.0770507968163960e-01  8.8165147295943669e-01  8.6958726218567328e-01  8.8254401176439912e-01  8.8507730117187156e-01  9.0739782270732994e-01  8.9373529432658150e-01  8.9087140195144332e-01  8.9237048505773930e-01  8.9172054696778658e-01  8.9744963411212331e-01  8.9585832950835742e-01  8.9881118293703621e-01  9.1033634485311499e-01  8.7700291063320179e-01  8.5520202745362550e-01  8.6031021271649644e-01  8.6327761254227031e-01  8.6311831924128024e-01  8.6053790522780282e-01  8.5732939396420094e-01  8.5480701831865047e-01  8.5260079834739844e-01  8.4953410363463633e-01  8.4635443608541883e-01  7.6985522075606616e-01  7.6640637292086355e-01  7.6321149514613740e-01  7.5980517688760763e-01  7.5608184218826835e-01  7.5237443425602490e-01  7.4909772713009148e-01  7.4619069742008748e-01  7.4216362557183002e-01  7.3707163690456634e-01  7.3070501767794405e-01  7.3227593412343961e-01  7.1275575345918141e-01  7.0233874767422311e-01  6.9650889067368349e-01  6.8563551587248461e-01  6.7622947699769531e-01  7.1870367635099119e-01  6.9719252001636955e-01  6.8445167415419506e-01  6.7296864792484823e-01  6.6604582427083581e-01  6.6218515912210174e-01  6.8855315563376274e-01  7.0268039840425267e-01  7.1544210059266644e-01  6.9558226805165146e-01  6.5144707766701426e-01  5.2744504371669443e-01  2.3505699374376976e-01  1.1807640991743894e-06  7.5908913129906957e-07  1.0894217335617830e-06  9.0622465530925922e-01  9.5085580395219882e-01  9.5255326738404444e-01  8.5523017987515992e-01  7.0388531001864829e-01  5.1011939226782699e-01  1.9997052285729891e-01  1.0830405192292480e-01  1.2591996546890791e-01  2.3500359392234629e-01  5.0211843861733019e-01  8.4892371328878091e-01  9.0832496688005193e-01  7.8537662064174985e-01  3.5755369721765418e-01  6.8336858138473931e-03  3.8683598274812385e-03  1.8933207466873755e-03  2.0359080084170492e-01  3.8361318083879054e-01  4.9832281785781923e-01  5.1278970475941288e-01  3.8004319069960091e-01  4.5437779997745253e-01  4.0652984516802565e-01  4.3256541507826013e-01  4.3370176956855977e-01  4.6267618227127993e-01  3.2994376951031096e-01  4.2828401973081115e-01  3.9964867275380439e-01  4.2273391548923495e-01  3.5070650744480908e-01  3.8213892139897371e-01  4.3506392954742124e-01  3.3935782564602585e-01  4.5905079427645795e-01  5.1746470992689841e-01  4.9471598489386959e-01  4.3115120076592400e-01  6.1068099607919590e-01  5.4458721631076512e-01  5.7119901871543632e-01  6.5961438904321790e-01  5.3063318101149215e-01  6.3014746642161357e-01  4.8541598921295920e-01  3.2483859571287127e-01  2.0282768249513200e-01  2.9918500982502677e-02  6.0964638685413675e-01  8.0521111993450289e-01  7.0006164079972988e-01  6.3841034241808681e-01  6.1447961472166246e-01  5.4515420360897304e-01  4.0244180517690503e-01  3.1329420214266612e-01  1.4543061137268265e-01  0.0000000000000000e+00  0.0000000000000000e+00  0.0000000000000000e+00  1.2675833516278365e-01  1.6636032434666462e-01  3.0231878818414998e-01  3.2643658902085898e-01  4.1309222375397714e-01  4.4159767089437529e-01  4.4778580631278303e-01  4.1900236903957283e-01  4.3291633091314996e-01  4.4271076150309152e-01  4.5743738706570497e-01  4.6530395024931387e-01  4.6155872547603605e-01  4.5545824230106496e-01  4.4123974973120256e-01  4.2620231097347339e-01  4.0655813828656467e-01  3.9520563622141580e-01  3.8406535642324446e-01  3.8334577225911787e-01  3.7831802279707077e-01  3.7368705628948290e-01  3.9664750301039514e-01  3.2217058666040088e-01  3.6701736931946405e-01  4.1884718713421576e-01  4.0302867414206844e-01  3.7025409232246398e-01  3.2595232392325918e-01  2.7385902144654284e-01  2.5419992877381148e-01  2.8016726350182308e-01  3.3646089493869519e-01  4.3921838007831221e-01  4.5695347875698727e-01  4.5689448687815504e-01  4.9717043838346436e-01  4.6236815346706028e-01  3.8587727151173828e-01  1.1827556079761854e-01  1.2322344993243113e-02  1.6085535108237643e-02  1.7694163248232222e-02  2.2666867865461286e-02  2.3202923420664406e-02  6.7390729222236934e-02  4.4061031231593530e-02  3.9952293793951994e-02  2.4289485302039567e-02  2.0575938571649948e-02  1.6904707338099258e-02  1.1255792153941038e-02  8.7749025760001133e-03  6.6986806594041149e-03  5.0257656585045605e-03  3.7183317424160835e-03  2.7205905240105014e-03  1.9728167708551823e-03  1.4198745807489533e-03  1.0150816898705176e-03  8.6525683454435670e-04  6.1062795426029414e-04  3.5665658497832588e-04  2.4815309837695554e-04  1.7130524813172224e-04  1.1726270943285201e-04  7.9553172044160116e-05  5.3466334384649262e-05  3.5595923412842895e-05  1.6447862094897839e-05  1.0805331954822599e-05  7.1439060548307119e-06  4.8934726723106254e-06  3.6925119989671692e-06  1.6197566774700859e-06  9.8889050442681192e-01  9.8223886120590187e-01  9.8120118561530945e-01  9.7900237544949165e-01  9.7520092758322385e-01  9.6869416837332079e-01  9.6199493773978006e-01  8.2972526652638634e-01  5.4716308287182758e-01  2.3558117395719258e-01  9.1249345416096326e-08  4.6501061373956057e-08  5.1513314144759427e-08  5.7717248676438394e-08  3.1284720097029036e-08  3.1164221755889804e-01  8.7074589468390384e-01  9.4826137302019142e-01  9.5370692932552736e-01  9.5884294888392274e-01  9.5997936507573467e-01  9.6221168267383173e-01  9.6219756139342261e-01  9.6042750221748907e-01  9.5484797004323840e-01  9.2959103303202884e-01  5.0026460155890473e-01  9.8715524258607539e-08  3.7724370464808105e-08  2.7803550213998756e-08  2.0694136143581541e-08  2.2424968240581686e-08  1.7167603608156492e-08  1.3249941343479858e-08  1.0538189134426224e-08  8.7487022770008888e-09  7.6242449456508056e-09  6.9531946097295427e-09  6.5764540098483690e-09  6.3848545766702714e-09  6.3106670324792930e-09  6.3160514224534413e-09  5.2756520591382004e-09  4.4748756695486267e-09  4.5816434891157538e-09  4.7143216214067841e-09  4.8736692528767083e-09  5.0628596226527790e-09  5.2859050919558552e-09  5.5456475364344239e-09  5.8412823963351571e-09  6.1684049854376982e-09  6.5244667072498800e-09  6.9134161236559691e-09  7.3465008711464340e-09  7.8415211555302719e-09  8.4213154849689630e-09  9.1119160766244455e-09  9.9392962374365441e-09  1.0922826604591348e-08  1.2063916945749483e-08  2.7226957253051145e-08  3.0121294449934369e-08  3.3393142285108093e-08  3.6841792866885315e-08  3.9796572525166150e-08  4.1402661834054276e-08  4.0690352386318660e-08  3.6235625958190964e-08  2.5672645481456261e-08  5.3274801593606475e-09  0.0000000000000000e+00  0.0000000000000000e+00  0.0000000000000000e+00  0.0000000000000000e+00  0.0000000000000000e+00  0.0000000000000000e+00  0.0000000000000000e+00  0.0000000000000000e+00  0.0000000000000000e+00  0.0000000000000000e+00  0.0000000000000000e+00  0.0000000000000000e+00  0.0000000000000000e+00  0.0000000000000000e+00  0.0000000000000000e+00  0.0000000000000000e+00  0.0000000000000000e+00  2.4551252563490396e-07  5.2476781340719347e-07  7.9316701408274514e-07  6.8089010666612886e-07  1.0140977477948042e-06  1.4418257248492008e-06  6.2726670874090218e-01  8.6639105859369858e-01  9.4940541977621018e-01  5.7180636675695629e-01  1.9810342499215424e-06  1.7841755895985680e-06  1.5166620165293798e-06  1.0831526443801753e-06  1.7102732928688650e-07  0.0000000000000000e+00  1.3397669224022265e-03  2.9499134355602025e-01  5.0648949071371496e-01  5.3252375776266025e-01  1.3545867242986157e-02  1.4813557236459458e-02  1.0675107839280308e-02  6.9231623126190722e-03  3.2062460876378135e-03  0.0000000000000000e+00  1.2871731007739170e-05  3.3255052397931960e-05  6.3249885239501823e-05  1.0751054251220350e-04  1.7227952471158804e-04  2.6485015401847686e-04  3.9178184394252655e-04  5.5516711022841002e-04  7.4719179262753167e-04  9.4409429471988741e-04  1.1023934311763068e-03  1.1723983966289828e-03  1.1252472222134378e-03  9.7349380268110211e-04  7.6394911506477042e-04  6.6119138172230079e-04  4.4534866703622089e-04  2.8403675377011668e-04  1.7412435323020472e-04  1.0465947874427356e-04  6.2716087459935887e-05  1.2635855412587822e-03  1.5187703424202642e-0