<?xml version="1.0"?>
<VTKFile type="UnstructuredGrid"  version="0.1"  >
<UnstructuredGrid>
<Piece  NumberOfPoints="608" NumberOfCells="1117">
<Points>
<DataArray  type="Float64"  NumberOfComponents="3"  format="ascii">0.08260869565217391 0 0  0.09913043478260869 0 0  0.09913043478260869 0.01666666666666667 0  0.1156521739130435 0 0  0.1156521739130435 0.01666666666666667 0  0.1321739130434783 0 0  0.1321739130434783 0.01666666666666667 0  0.148695652173913 0 0  0.148695652173913 0.01666666666666667 0  0.1652173913043478 0 0  0.1652173913043478 0.01666666666666667 0  0.1817391304347826 0 0  0.1817391304347826 0.01666666666666667 0  0.1982608695652174 0 0  0.1982608695652174 0.01666666666666667 0  0.2147826086956522 0 0  0.2147826086956522 0.01666666666666667 0  0.2313043478260869 0 0  0.2313043478260869 0.01666666666666667 0  0.2478260869565218 0 0  0.2478260869565218 0.01666666666666667 0  0.2643478260869565 0 0  0.2643478260869565 0.01666666666666667 0  0.2808695652173913 0 0  0.2808695652173913 0.01666666666666667 0  0.2973913043478261 0 0  0.2973913043478261 0.01666666666666667 0  0.3139130434782609 0 0  0.3139130434782609 0.01666666666666667 0  0.3304347826086956 0 0  0.3304347826086956 0.01666666666666667 0  0.3469565217391304 0 0  0.3469565217391304 0.01666666666666667 0  0.3634782608695652 0 0  0.3634782608695652 0.01666666666666667 0  0.3799999999999999 0 0  0.3799999999999999 0.01666666666666667 0  0.3965217391304348 0 0  0.3965217391304348 0.01666666666666667 0  0.4130434782608696 0 0  0.4130434782608696 0.01666666666666667 0  0.4295652173913043 0.01666666666666667 0  0.1156521739130435 0.03333333333333333 0  0.1321739130434783 0.03333333333333333 0  0.148695652173913 0.03333333333333333 0  0.1652173913043478 0.03333333333333333 0  0.1817391304347826 0.03333333333333333 0  0.1982608695652174 0.03333333333333333 0  0.2147826086956522 0.03333333333333333 0  0.2313043478260869 0.03333333333333333 0  0.2478260869565218 0.03333333333333333 0  0.2643478260869565 0.03333333333333333 0  0.2808695652173913 0.03333333333333333 0  0.2973913043478261 0.03333333333333333 0  0.3139130434782609 0.03333333333333333 0  0.3304347826086956 0.03333333333333333 0  0.3469565217391304 0.03333333333333333 0  0.3634782608695652 0.03333333333333333 0  0.3799999999999999 0.03333333333333333 0  0.3965217391304348 0.03333333333333333 0  0.4130434782608696 0.03333333333333333 0  0.4295652173913043 0.03333333333333333 0  0.4460869565217391 0.03333333333333333 0  0.1321739130434783 0.05 0  0.148695652173913 0.05 0  0.1652173913043478 0.05 0  0.1817391304347826 0.05 0  0.1982608695652174 0.05 0  0.2147826086956522 0.05 0  0.2313043478260869 0.05 0  0.2478260869565218 0.05 0  0.2643478260869565 0.05 0  0.2808695652173913 0.05 0  0.2973913043478261 0.05 0  0.3139130434782609 0.05 0  0.3304347826086956 0.05 0  0.3469565217391304 0.05 0  0.3634782608695652 0.05 0  0.3799999999999999 0.05 0  0.3965217391304348 0.05 0  0.4130434782608696 0.05 0  0.4295652173913043 0.05 0  0.4460869565217391 0.05 0  0.4626086956521739 0.05 0  0.148695652173913 0.06666666666666667 0  0.1652173913043478 0.06666666666666667 0  0.1817391304347826 0.06666666666666667 0  0.1982608695652174 0.06666666666666667 0  0.2147826086956522 0.06666666666666667 0  0.2313043478260869 0.06666666666666667 0  0.2478260869565218 0.06666666666666667 0  0.2643478260869565 0.06666666666666667 0  0.2808695652173913 0.06666666666666667 0  0.2973913043478261 0.06666666666666667 0  0.3139130434782609 0.06666666666666667 0  0.3304347826086956 0.06666666666666667 0  0.3469565217391304 0.06666666666666667 0  0.3634782608695652 0.06666666666666667 0  0.3799999999999999 0.06666666666666667 0  0.3965217391304348 0.06666666666666667 0  0.4130434782608696 0.06666666666666667 0  0.4295652173913043 0.06666666666666667 0  0.4460869565217391 0.06666666666666667 0  0.4626086956521739 0.06666666666666667 0  0.4791304347826086 0.06666666666666667 0  0.1652173913043478 0.08333333333333333 0  0.1817391304347826 0.08333333333333333 0  0.1982608695652174 0.08333333333333333 0  0.2147826086956522 0.08333333333333333 0  0.2313043478260869 0.08333333333333333 0  0.2478260869565218 0.08333333333333333 0  0.2643478260869565 0.08333333333333333 0  0.2808695652173913 0.08333333333333333 0  0.2973913043478261 0.08333333333333333 0  0.3139130434782609 0.08333333333333333 0  0.3304347826086956 0.08333333333333333 0  0.3469565217391304 0.08333333333333333 0  0.3634782608695652 0.08333333333333333 0  0.3799999999999999 0.08333333333333333 0  0.3965217391304348 0.08333333333333333 0  0.4130434782608696 0.08333333333333333 0  0.4295652173913043 0.08333333333333333 0  0.4460869565217391 0.08333333333333333 0  0.4626086956521739 0.08333333333333333 0  0.4791304347826086 0.08333333333333333 0  0.4956521739130435 0.08333333333333333 0  0.1817391304347826 0.1 0  0.1982608695652174 0.1 0  0.2147826086956522 0.1 0  0.2313043478260869 0.1 0  0.2478260869565218 0.1 0  0.2643478260869565 0.1 0  0.2808695652173913 0.1 0  0.2973913043478261 0.1 0  0.3139130434782609 0.1 0  0.3304347826086956 0.1 0  0.3469565217391304 0.1 0  0.3634782608695652 0.1 0  0.3799999999999999 0.1 0  0.3965217391304348 0.1 0  0.4130434782608696 0.1 0  0.4295652173913043 0.1 0  0.4460869565217391 0.1 0  0.4626086956521739 0.1 0  0.4791304347826086 0.1 0  0.4956521739130435 0.1 0  0.5121739130434783 0.1 0  0.1982608695652174 0.1166666666666667 0  0.2147826086956522 0.1166666666666667 0  0.2313043478260869 0.1166666666666667 0  0.2478260869565218 0.1166666666666667 0  0.2643478260869565 0.1166666666666667 0  0.2808695652173913 0.1166666666666667 0  0.2973913043478261 0.1166666666666667 0  0.3139130434782609 0.1166666666666667 0  0.3304347826086956 0.1166666666666667 0  0.3469565217391304 0.1166666666666667 0  0.3634782608695652 0.1166666666666667 0  0.3799999999999999 0.1166666666666667 0  0.3965217391304348 0.1166666666666667 0  0.4130434782608696 0.1166666666666667 0  0.4295652173913043 0.1166666666666667 0  0.4460869565217391 0.1166666666666667 0  0.4626086956521739 0.1166666666666667 0  0.4791304347826086 0.1166666666666667 0  0.4956521739130435 0.1166666666666667 0  0.5121739130434783 0.1166666666666667 0  0.528695652173913 0.1166666666666667 0  0.2147826086956522 0.1333333333333333 0  0.2313043478260869 0.1333333333333333 0  0.2478260869565218 0.1333333333333333 0  0.2643478260869565 0.1333333333333333 0  0.2808695652173913 0.1333333333333333 0  0.2973913043478261 0.1333333333333333 0  0.3139130434782609 0.1333333333333333 0  0.3304347826086956 0.1333333333333333 0  0.3469565217391304 0.1333333333333333 0  0.3634782608695652 0.1333333333333333 0  0.3799999999999999 0.1333333333333333 0  0.3965217391304348 0.1333333333333333 0  0.4130434782608696 0.1333333333333333 0  0.4295652173913043 0.1333333333333333 0  0.4460869565217391 0.1333333333333333 0  0.4626086956521739 0.1333333333333333 0  0.4791304347826086 0.1333333333333333 0  0.4956521739130435 0.1333333333333333 0  0.5121739130434783 0.1333333333333333 0  0.528695652173913 0.1333333333333333 0  0.5452173913043478 0.1333333333333333 0  0.2313043478260869 0.15 0  0.2478260869565218 0.15 0  0.2643478260869565 0.15 0  0.2808695652173913 0.15 0  0.2973913043478261 0.15 0  0.3139130434782609 0.15 0  0.3304347826086956 0.15 0  0.3469565217391304 0.15 0  0.3634782608695652 0.15 0  0.3799999999999999 0.15 0  0.3965217391304348 0.15 0  0.4130434782608696 0.15 0  0.4295652173913043 0.15 0  0.4460869565217391 0.15 0  0.4626086956521739 0.15 0  0.4791304347826086 0.15 0  0.4956521739130435 0.15 0  0.5121739130434783 0.15 0  0.528695652173913 0.15 0  0.5452173913043478 0.15 0  0.5617391304347825 0.15 0  0.2478260869565218 0.1666666666666667 0  0.2643478260869565 0.1666666666666667 0  0.2808695652173913 0.1666666666666667 0  0.2973913043478261 0.1666666666666667 0  0.3139130434782609 0.1666666666666667 0  0.3304347826086956 0.1666666666666667 0  0.3469565217391304 0.1666666666666667 0  0.3634782608695652 0.1666666666666667 0  0.3799999999999999 0.1666666666666667 0  0.3965217391304348 0.1666666666666667 0  0.4130434782608696 0.1666666666666667 0  0.4295652173913043 0.1666666666666667 0  0.4460869565217391 0.1666666666666667 0  0.4626086956521739 0.1666666666666667 0  0.4791304347826086 0.1666666666666667 0  0.4956521739130435 0.1666666666666667 0  0.5121739130434783 0.1666666666666667 0  0.528695652173913 0.1666666666666667 0  0.5452173913043478 0.1666666666666667 0  0.5617391304347825 0.1666666666666667 0  0.5782608695652174 0.1666666666666667 0  0.2643478260869565 0.1833333333333333 0  0.2808695652173913 0.1833333333333333 0  0.2973913043478261 0.1833333333333333 0  0.3139130434782609 0.1833333333333333 0  0.3304347826086956 0.1833333333333333 0  0.3469565217391304 0.1833333333333333 0  0.3634782608695652 0.1833333333333333 0  0.3799999999999999 0.1833333333333333 0  0.3965217391304348 0.1833333333333333 0  0.4130434782608696 0.1833333333333333 0  0.4295652173913043 0.1833333333333333 0  0.4460869565217391 0.1833333333333333 0  0.4626086956521739 0.1833333333333333 0  0.4791304347826086 0.1833333333333333 0  0.4956521739130435 0.1833333333333333 0  0.5121739130434783 0.1833333333333333 0  0.528695652173913 0.1833333333333333 0  0.5452173913043478 0.1833333333333333 0  0.5617391304347825 0.1833333333333333 0  0.5782608695652174 0.1833333333333333 0  0.2808695652173913 0.2 0  0.2973913043478261 0.2 0  0.3139130434782609 0.2 0  0.3304347826086956 0.2 0  0.3469565217391304 0.2 0  0.3634782608695652 0.2 0  0.3799999999999999 0.2 0  0.3965217391304348 0.2 0  0.4130434782608696 0.2 0  0.4295652173913043 0.2 0  0.4460869565217391 0.2 0  0.4626086956521739 0.2 0  0.4791304347826086 0.2 0  0.4956521739130435 0.2 0  0.5121739130434783 0.2 0  0.528695652173913 0.2 0  0.5452173913043478 0.2 0  0.5617391304347825 0.2 0  0.5782608695652174 0.2 0  0.2973913043478261 0.2166666666666667 0  0.3139130434782609 0.2166666666666667 0  0.3304347826086956 0.2166666666666667 0  0.3469565217391304 0.2166666666666667 0  0.36347826086956
[...]
<CellData  Scalars="rho_bar"> 
<DataArray  type="Float64"  Name="rho_bar"  format="ascii">8.3584621897991518e-01   8.3099493460569762e-01   8.2734290441346969e-01   8.2566310190648251e-01   8.2198790553705403e-01   8.2000614887351331e-01   8.1624797942210892e-01   8.1418996541934918e-01   8.1029333568704087e-01   8.0838394840002015e-01   8.0429997356806848e-01   8.0274050466006064e-01   7.9843554603413369e-01   7.9738452485940292e-01   7.9283961778631995e-01   7.9241472028420079e-01   7.8762563614652903e-01   7.8787547985835471e-01   7.8286676875088557e-01   7.8373089248930283e-01   7.7855935446647306e-01   7.7988014073688372e-01   7.7461881258404020e-01   7.7619202135820276e-01   7.7091571026718941e-01   7.7253833881706291e-01   7.6731184366843852e-01   7.6885379832050360e-01   7.6370768703950387e-01   7.6516400836282294e-01   7.6009723427929388e-01   7.6149885475872914e-01   7.5652637718168447e-01   7.5785975097813985e-01   7.5300328871922695e-01   7.5428291641279022e-01   7.4953837816924718e-01   7.5080159523840029e-01   7.4617191035193342e-01   7.4287437597652806e-01   8.0282781502792222e-01   7.9664033632150844e-01   7.8050120540553369e-01   7.9012002293279082e-01   7.7354216362738970e-01   7.8346458728823265e-01   7.6639371955060798e-01   7.7688027459692854e-01   7.5928010434862059e-01   7.7055098541383693e-01   7.5241784766707487e-01   7.6462333282682782e-01   7.4598244389639135e-01   7.5922550449958559e-01   7.4012019778598981e-01   7.5443267906196876e-01   7.3494692700839526e-01   7.5021154878381102e-01   7.3047888866944888e-01   7.4644450548687669e-01   7.2661597601665628e-01   7.4297777192390146e-01   7.2319885439876985e-01   7.3966265731438841e-01   7.2006092512513875e-01   7.3641251874617419e-01   7.1707584752947362e-01   7.3325013846045739e-01   7.1422015580950515e-01   7.3022193051834472e-01   7.1154988237076400e-01   7.2731906748503372e-01   7.0907785592811345e-01   7.2453922715192631e-01   7.0677415465171767e-01   7.2189338256204505e-01   7.0463268376332822e-01   7.1928823476603876e-01   7.0259335300925452e-01   7.0046625638376359e-01   7.2526766130703202e-01   7.1693297301804437e-01   6.8388190483903311e-01   7.0856285005795649e-01   6.7479415349970540e-01   7.0043074986444520e-01   6.6593465187728174e-01   6.9279609266061448e-01   6.5760072341504749e-01   6.8585219141272402e-01   6.5003502017243575e-01   6.7976887310510226e-01   6.4342265328718617e-01   6.7467011520776055e-01   6.3792257639798045e-01   6.7053177256650576e-01   6.3357703477866978e-01   6.6720398551774251e-01   6.3026079060380824e-01   6.6449525292195233e-01   6.2777417145685266e-01   6.6222594168990667e-01   6.2591906355986104e-01   6.6028006760520197e-01   6.2454459152646624e-01   6.5865263122606621e-01   6.2359285440292533e-01   6.5738814727678452e-01   6.2309479044248106e-01   6.5646911533096253e-01   6.2305526786446952e-01   6.5583196937045296e-01   6.2340007996748670e-01   6.5540557945420752e-01   6.2402799739652404e-01   6.5503223782459585e-01   6.2478843106512338e-01   6.5444214236417353e-01   6.2541006015171086e-01   6.2557456741710216e-01   5.9177653314998069e-01   5.8172220203396308e-01   5.3214162884636451e-01   5.7221064532496013e-01   5.2225125132437655e-01   5.6356903905188449e-01   5.1324436002716267e-01   5.5604347432246060e-01   5.0541061093096995e-01   5.4982057516413396e-01   4.9894482091540360e-01   5.4504213198658646e-01   4.9400056627175198e-01   5.4168523657533163e-01   4.9062161188356201e-01   5.3957493337987505e-01   4.8867130155606869e-01   5.3849776919333325e-01   4.8793915190771908e-01   5.3826879781633041e-01   4.8823568195536665e-01   5.3876577009135529e-01   4.8942461501496093e-01   5.3995251630944052e-01   4.9144126241125174e-01   5.4183412930946528e-01   4.9427856850593765e-01   5.4436650937947284e-01   4.9790920566160396e-01   5.4742848974591829e-01   5.0222195756589660e-01   5.5083551614455994e-01   5.0702529182837375e-01   5.5430939264162615e-01   5.1204052706332015e-01   5.5746893021169464e-01   5.1687488691558492e-01   5.5993137236824664e-01   5.2108453907576568e-01   5.2432339751198376e-01   4.1866819878960915e-01   4.0965004945444400e-01   3.5780216159430839e-01   4.0174786858028771e-01   3.5022303032126245e-01   3.9519788871606137e-01   3.4391111757229648e-01   3.9014997238337301e-01   3.3901876553554861e-01   3.8670861023379904e-01   3.3564296887015543e-01   3.8485331838233322e-01   3.3381531217543431e-01   3.8443697553153966e-01   3.3344084742700930e-01   3.8529252067724612e-01   3.3437749239004888e-01   3.8729489089237923e-01   3.3651719604771135e-01   3.9037586729071166e-01   3.3980463489703777e-01   3.9452009657169007e-01   3.4423283913384511e-01   3.9972427929111204e-01   3.4981804277784867e-01   4.0593142867770293e-01   3.5654072427495292e-01   4.1299407496708368e-01   3.6429367468146195e-01   4.2065461523462389e-01   3.7285706072047547e-01   4.2853024044176452e-01   3.8188040052757932e-01   4.3612565312667223e-01   3.9088289880134380e-01   4.4291912289144836e-01   3.9930564211898451e-01   4.4853916535617283e-01   4.0666295346031361e-01   4.1268895338852013e-01   2.5952214655563888e-01   2.5402925875967070e-01   2.1581538680104784e-01   2.4967721124881284e-01   2.1186089238563849e-01   2.4656040805648913e-01   2.0896920246337755e-01   2.4473237747898846e-01   2.0719077013966938e-01   2.4419039568796833e-01   2.0654935408945527e-01   2.4486943283895873e-01   2.0701754492372043e-01   2.4670459139657672e-01   2.0855274024101858e-01   2.4967460998888619e-01   2.1114793117942682e-01   2.5380622197339392e-01   2.1484294473166943e-01   2.5916147174769105e-01   2.1971676631294532e-01   2.6579825277197117e-01   2.2586068330556816e-01   2.7371377484488313e-01   2.3332646796526368e-01   2.8280391470431743e-01   2.4207536540687252e-01   2.9283313923952076e-01   2.5194674007787038e-01   3.0341517111617344e-01   2.6263182921710776e-01   3.1403576087891616e-01   2.7367910218437819e-01   3.2411307337412565e-01   2.8453751355498963e-01   3.3315869559921280e-01   2.9466079862035882e-01   3.4089871539410593e-01   3.0366634200874648e-01   3.1135823434002713e-01   1.5162693878967590e-01   1.4923116214431884e-01   1.2625275860477883e-01   1.4762932680855420e-01   1.2476289409264749e-01   1.4685353468480541e-01   1.2395959469805587e-01   1.4691692995848310e-01   1.2386489785770313e-01   1.4781803103852853e-01   1.2448999480133111e-01   1.4956774990200161e-01   1.2585038241569685e-01   1.5221408798492730e-01   1.2799109178106721e-01   1.5584716840910443e-01   1.3099714767275264e-01   1.6059121205391924e-01   1.3499114739232940e-01   1.6657502712140990e-01   1.4011675869015483e-01   1.7387881801744601e-01   1.4649578558043241e-01   1.8248868680495242e-01   1.5417683458057171e-01   1.9226678858755353e-01   1.6310124263455145e-01   2.0293406935841768e-01   1.7308318296234010e-01   2.1408156745113979e-01   1.8380610635602854e-01   2.2521218184682482e-01   1.9484985607674873e-01   2.3584119593806693e-01   2.0574795473018589e-01   2.4560181038334714e-01   2.1608941532710826e-01   2.5424909812146007e-01   2.2556650675648965e-01   2.3394293588495663e-01   8.9521596002667486e-02   8.8749752550470920e-02   7.5630276100099536e-02   8.8467822857299483e-02   7.5295805714686040e-02   8.8696413640342156e-02   7.5388617599541213e-02   8.9458039174040868e-02   7.5931940227440847e-02   9.0790109590080492e-02   7.6958934936978793e-02   9.2758408905892042e-02   7.8525064353728677e-02   9.5463665150063465e-02   8.0716516997793100e-02   9.9040687622442114e-02   8.3652772535401709e-02   1.0364265067774278e-01   8.7480416820087240e-02   1.0940172679053449e-01   9.2347709555451074e-02   1.1638634261653238e-01   9.8364227715934255e-02   1.2457086599300747e-01   1.0556769387490461e-01   1.3382196180207567e-01   1.1390421326363902e-01   1.4389726119647500e-01   1.2322021201093375e-01   1.5446082178578469e-01   1.3326492448254068e-01   1.6513269982548845e-01   1.4371342568476766e-01   1.7554774367792908e-01   1.5421507474516927e-01   1.8537706000983378e-01   1.6442760686299529e-01   1.9432165168881599e-01   1.7402089550687894e-01   1.8267948925054672e-01   5.4958522708846956e-02   5.4886984779594535e-02   4.7225328831529322e-02   5.5132723930828763e-02   4.7371135001210082e-02   5.5723084672365163e-02   4.7808671589059396e-02   5.6698443711969290e-02   4.8572440542497243e-02   5.8119969341790825e-02   4.9713604098570285e-02   6.0075507034107758e-02   5.1306068751579600e-02   6.2681945492832083e-02   5.3450237227946243e-02   6.6080006376699765e-02   5.6272687459802691e-02   7.0413871553343013e-02   5.9916161019368870e-02   7.5803111420307420e-02   6.4517891668666505e-02   8.2316232377472418e-02   7.0186136902270463e-02   8.9949801639766597e-02   7.6976074288208116e-02   9.8614627461230606e-02   8.4869674492905292e-02   1.0813197766860332e-01   9.3762560201173517e-02   1.1824863143290322e-01   1.0346508983403258e-01   1.2866135850708221e-01   1.1371888606445965e-01   1.3903217355218389e-01   1.2421151563908668e-01   1.4899808258036210e-01   1.3458494074524038e-01   1.5818671837883114e-01   1.4444899987677132e-01   1.5340764248164818e-01   3.5243516727153805e-02   3.5470382583943916e-02   3.0804055593602789e-02   3.5931945242432616e-02   3.1158749165858646e-02   3.6665177661638064e-02   3.1745359067404395e-02   3.7722869523246876e-02   3.2608657019398489e-02   3.9178241214967081e-02   3.3811009378390058e-02   4.1128252808388839e-02   3.5436273237580980e-02   4.3693669241780926e-02   3.7592007082719245e-02   4.7012751439635785e-02   4.0408186398217437e-02   5.1229261963416810e-02   4.4030343773248021e-02   5.6475885606417905e-02   4.8608295031280675e-02   6.2848099257630588e-02   5.4274960478248882e-02   7.0373793840596416e-02   6.1113749329715090e-02   7.8997216032517609e-02   6.9131524354936316e-02   8.8578427021741971e-02   7.8249873340135459e-02   9.8897062659527912e-02   8.8305310273011917e-02   1.0965383803077687e-01   9.9047219007941154e-02   1.2047429299233067e-01   1.1013491194079310e-01   1.3092479064008589e-01   1.2114511322591708e-01   1.4054790158761235e-01   1.3159935689453564e-01   1.4101374746915404e-01   2.3622590426433134e-02   2.3995646110130969e-02   2.1037886928016437e-02   2.4571752112389645e-02   2.1508575230732876e-02   2.5396817638788555e-02   2.2193983435348060e-02   2.6533609820339969e-02   2.3148523902553734e-02   2.8065545805647119e-02   2.4445403537006891e-02   3.0099650091752070e-02   2.6180523183077821e-02   3.2767569764816186e-02   2.8475538100154019e-02   3.6223944071716002e-02   3.1479093701664441e-02   4.0638771880615113e-02   3.5363805816196296e-02   4.6173781529328606e-02   4.0311044804836278e-02   5.2943180993208182e-02   4.6476136069095439e-02   6.0986662703293490e-02   5.3951564723661610e-02   7.0261403157041144e-02   6.2751297584399346e-02   8.0634095529143690e-02   7.2802602692205648e-02   9.1867147070303218e-02   8.3929737831026738e-02   1.0360686920749210e-01   9.5834481575778285e-02   1.1538815684179390e-01   1.0808777331151434e-01   1.2666974035413289e-01   1.2015041496736298e-01   1.3689606670429175e-01   1.3142862789574208e-01   1.6656332547443840e-02   1.7130386887195617e-02   1.5197329427808968e-02   1.7806812301871800e-02   1.5768327237476266e-02   1.8741904210553887e-02   1.6565372769235805e-02   2.0011359174131504e-02   1.7655612178212217e-02   2.1715087352664482e-02   1.9128917911375696e-02   2.3982101630275702e-02   2.1103560218450616e-02   2.6974285260499192e-02   2.3731569163300548e-02   3.0883985215862657e-02   2.7200271518021929e-02   3.5914358543268486e-02   3.1720956770973058e-02   4.2240760485920091e-02   3.7497254602959967e-02   4.9978791701088938e-02   4.4687060244537447e-02   5.9170644413247070e-02   5.3382234151092826e-02   6.9768792463976867e-02   6.3594445844575423e-02   8.1607459156032180e-02   7.5226828906055337e-02   9.4372247496337755e-02   8.8036714941287467e-02   1.0758775752630448e-01   1.0160828577699182e-01   1.2064577948074537e-01   1.1536020074446506e-01   1.3287449978566249e-01   1.2860216487097917e-01   1.2567174293753139e-02   1.3148071932641099e-02   1.1863153023601589e-02   1.3955275367959409e-02   1.2559923867661466e-02   1.5060364531155015e-02   1.3520292904189683e-02   1.6560014577207995e-02   1.4831165947699588e-02   1.8583115098681401e-02   1.6609795033806763e-02   2.1297612307709182e-02   1.9011565915487284e-02   2.4910995110400160e-02   2.2234197670788620e-02   2.9653112150166732e-02   2.6508571838466014e-02   3.5741030896598802e-02   3.2069939576748835e-02   4.3348437444161475e-02   3.9123245496379813e-02   5.2589032469455448e-02   4.7822226821326037e-02   6.3493747989641761e-02   5.8250949273866932e-02   7.5969707785992088e-02   7.0386213398491659e-02   8.9751955591700544e-02   8.4044995538947093e-02   1.0437196980190258e-01   9.8838288233600718e-02   1.1917454328491331e-01   1.1416320249543252e-01   1.3338907982432816e-01   1.2925540571083854e-01   1.0432535278515270e-02   9.6760448222476102e-03   1.1159217201566379e-02   1.0309781071255299e-02   1.2162108775596182e-02   1.1189609891006209e-02   1.3536144816563300e-02   1.2400543510297011e-02   1.5410326373802347e-02   1.4058953311921127e-02   1.7956420915495340e-02   1.6321692666842410e-02   2.1391513021637325e-02   1.9392201998992820e-02   2.5962267368776926e-02   2.3512939363740420e-02   3.1912353578124435e-02   2.8938079362180128e-02   3.9455213974686112e-02   3.5901918852455930e-02   4.8757563262398718e-02   4.4599955538424864e-02   5.9912603969139132e-02   5.5168569468702321e-02   7.2890564502090582e-02   6.7642131842766531e-02   8.7476841282496082e-02   8.1890500333444055e-02   1.0322379010834803e-01   9.7558792721982521e-02   1.1945448636859665e-01   1.1404488408503738e-01   1.3533147222552591e-01   1.3054461085601712e-01   9.1328635009048763e-03   8.7916844959026550e-03   9.8109131250763478e-03   9.3882102333903410e-03   1.0752689946661145e-02   1.0221261790557623e-02   1.2051307678873847e-02   1.1373838738320123e-02   1.3834409527324310e-02   1.2960153734475467e-02   1.6273720675038190e-02   1.5135172783774400e-02   1.9589372368984205e-02   1.8101971864673331e-02   2.4035828297934020e-02   2.2106177822284578e-02   2.9869962793247988e-02   2.7409339939423055e-02   3.7325584356237333e-02   3.4257686836007370e-02   4.6598481374786838e-02   4.2864781941003377e-02   5.7819069195465055e-02   5.3392151704311760e-02   7.0999785820636693e-02   6.5905829615807890e-02   8.5966896243918192e-02   8.0311189528758778e-02   1.0230188580734373e-01   9.6286492778877464e-02   1.1933444959294576e-01   1.1325124206012156e-01   1.3620482572629419e-01   1.3040308411581950e-01   1.4681581607483296e-01   9.0122127268956135e-03   9.6655476017833107e-03   9.6314883546320049e-03   1.0576725951303071e-02   1.0444524437893338e-02   1.1836282994354998e-02   1.1571375958161403e-02   1.3568240250231687e-02   1.3122394502643683e-02   1.5939639518991335e-02   1.5246929142613786e-02   1.9166088279997412e-02   1.8141086537885542e-02   2.3500305581289037e-02   2.2044536923909175e-02   2.9199885801696367e-02   2.7215168750617445e-02   3.6499738743327043e-02   3.3895048908800116e-02   4.5598228152604565e-02   4.2291879643740822e-02   5.6632538858899240e-02   5.2562420300476781e-02   6.9628961345960513e-02   6.4773619531291210e-02   8.4436424423044984e-02   7.8842125642237984e-02   1.0066677941886770e-01   9.4471066819135086e-02   1.1768201668399689e-01   1.1111667718403652e-01   1.3464922744233634e-01   1.2801890048326525e-01   1.5064598753906164e-01   1.4429018696857285e-01   1.5903346213226077e-01   1.0704268236329506e-02   1.1613079025108216e-02   1.1911132187625127e-02   1.2867712599538150e-02   1.3045835831958234e-02   1.4586691050682487e-02   1.4600898342006259e-02   1.6928265553110014e-02   1.6717247437775931e-02   2.0096354055997738e-02   1.9578458500004000e-02   2.4332240294728524e-02   2.3409569389370163e-02   2.9882865044845757e-02   2.8454393697101673e-02   3.6967763476556399e-02   3.4937669592523660e-02   4.5763670324805286e-02   4.3041319971819397e-02   5.6385069083006924e-02   5.2890980670265028e-02   6.8842589928652317e-02   6.4525707305450195e-02   8.2986270958524788e-02   7.7848898482798204e-02   9.8453531274381806e-02   9.2576403484472825e-02   1.1465689574452828e-01   1.0820894131661915e-01   1.3083162819190947e-01   1.2405830877859066e-01   1.4612866665751559e-01   1.3932455566092253e-01   1.5972377374874608e-01   1.5319698676504412e-01   1.6495248068768611e-01   1.4068569863417283e-02   1.5360700547712649e-02   1.6096042191013678e-02   1.7117504214587430e-02   1.7709837237950585e-02   1.9486205781162752e-02   1.9882586166674342e-02   2.2653854547106025e-02   2.2782172600338591e-02   2.6841565648149861e-02   2.6612136281232365e-02   3.2275264478530651e-02   3.1592488656913852e-02   3.9146666696559515e-02   3.7920006973401268e-02   4.7593120647923148e-02   4.5737124884112690e-02   5.7683826425277807e-02   5.5119918059833427e-02   6.9390227203314864e-02   6.6059001394804154e-02   8.2544286236853309e-02   7.8425595585929958e-02   9.6801525004143213e-02   9.1936779387786924e-02   1.1163370853970180e-01   1.0613873196480048e-01   1.2636967914059741e-01   1.2043025059996189e-01   1.4027280800820568e-01   1.3412630893025815e-01   1.5263008447090531e-01   1.4653955778208652e-01   1.6283020934738510e-01   1.5705683564253373e-01   1.6519571704832062e-01   1.9828728685655429e-02   2.1701371000773715e-02   2.3110132309276030e-02   2.4191429130720928e-02   2.5443669898364170e-02   2.7466686788610094e-02   2.8505656595633849e-02   3.1721106968782824e-02   3.2473533994743953e-02   3.7149049974011951e-02   3.7533722490558627e-02   4.3904098449592394e-02   4.3844052349394820e-02   5.2073210991030031e-02   5.1497880146898684e-02   6.1667238829254935e-02   6.0511833586404280e-02   7.2604836262810224e-02   7.0817713875911986e-02   8.4688068492347515e-02   8.2245147791802670e-02   9.7583112824045248e-02   9.4504660587315020e-02   1.1082175363905390e-01   1.0718459477753686e-01   1.2383512477432106e-01   1.1977308392751396e-01   1.3601456523860855e-01   1.3170727737888227e-01   1.4677919548430499e-01   1.4243432792562621e-01   1.5563293114693508e-01   1.5146654846262522e-01   1.6220144978170756e-01   1.5841970204403549e-01   1.6303241515822911e-01   2.9353096754061132e-02   3.2117344575487795e-02   3.4678044160097787e-02   3.5681529271248229e-02   3.8103751900776028e-02   4.0205989472096984e-02   4.2440531962576675e-02   4.5840753961302057e-02   4.7829141877536299e-02   5.2688416608371716e-02   5.4372801952590588e-02   6.0777344991463506e-02   6.2104836054558417e-02   7.0055042369300616e-02   7.0977621439604344e-02   8.0383785212526940e-02   8.0862828803081252e-02   9.1532656363691678e-02   9.1548263598921445e-02   1.0317468176410173e-01   1.0273676370294776e-01   1.1489742914573796e-01   1.1405484243061166e-01   1.2623141182976688e-01   1.2507485113131081e-01   1.3669379040151611e-01   1.3535024706898161e-01   1.4583534501859577e-01   1.4445705316999069e-01   1.5327713623633527e-01   1.5202852113398052e-01   1.5873340762002108e-01   1.5777764788461948e-01   1.6202046920375390e-01   1.6150778242783329e-01   1.6311361866897403e-01   4.5178284781229754e-02   4.9314682538549787e-02   5.3969725122983772e-02   5.4425075493845551e-02   5.9025447437787391e-02   6.0595255335169511e-02   6.5111973843765075e-02   6.7856836044304744e-02   7.2252486044795228e-02   7.6168563131297287e-02   8.0402936313915499e-02   8.5413527052164706e-02   8.9447208847580617e-02   9.5402286028134595e-02   9.9202003295860777e-02   1.0587643099920251e-01   1.0942190634930297e-01   1.1651816647646629e-01   1.1980863193253431e-01   1.2696801016526396e-01   1.3002802443419922e-01   1.3684840200766452e-01   1.3973147441842743e-01   1.4579235660352785e-01   1.4857944082322089e-01   1.5347134211796917e-01   1.5626507930250685e-01   1.5961270812935219e-01   1.6253016497264658e-01   1.6401042119126358e-01   1.6717227834909532e-01   1.6653162718350301e-01   1.7005165105098680e-01   1.6711400973532720e-01   1.7109226735736946e-01   1.7027831812910940e-01   7.18993373