<?xml version="1.0"?>
<VTKFile type="UnstructuredGrid"  version="0.1"  >
<UnstructuredGrid>
<Piece  NumberOfPoints="650" NumberOfCells="1199">
<Points>
<DataArray  type="Float64"  NumberOfComponents="3"  format="ascii">3.238260869565217 0 0  3.254782608695652 0 0  3.254782608695652 0.01666666666666667 0  3.238260869565217 0.01666666666666667 0  3.271304347826087 0 0  3.271304347826087 0.01666666666666667 0  3.287826086956521 0 0  3.287826086956521 0.01666666666666667 0  3.304347826086957 0 0  3.304347826086957 0.01666666666666667 0  3.320869565217391 0 0  3.320869565217391 0.01666666666666667 0  3.337391304347826 0 0  3.337391304347826 0.01666666666666667 0  3.353913043478261 0 0  3.353913043478261 0.01666666666666667 0  3.370434782608696 0 0  3.370434782608696 0.01666666666666667 0  3.386956521739131 0 0  3.386956521739131 0.01666666666666667 0  3.403478260869565 0 0  3.403478260869565 0.01666666666666667 0  3.419999999999999 0 0  3.419999999999999 0.01666666666666667 0  3.436521739130435 0 0  3.436521739130435 0.01666666666666667 0  3.453043478260869 0 0  3.453043478260869 0.01666666666666667 0  3.469565217391304 0 0  3.469565217391304 0.01666666666666667 0  3.486086956521739 0 0  3.486086956521739 0.01666666666666667 0  3.502608695652174 0 0  3.502608695652174 0.01666666666666667 0  3.519130434782609 0 0  3.519130434782609 0.01666666666666667 0  3.535652173913043 0 0  3.535652173913043 0.01666666666666667 0  3.552173913043478 0 0  3.552173913043478 0.01666666666666667 0  3.568695652173913 0 0  3.568695652173913 0.01666666666666667 0  3.585217391304347 0 0  3.585217391304347 0.01666666666666667 0  3.601739130434782 0 0  3.601739130434782 0.01666666666666667 0  3.618260869565217 0 0  3.618260869565217 0.01666666666666667 0  3.634782608695652 0 0  3.634782608695652 0.01666666666666667 0  3.651304347826087 0 0  3.651304347826087 0.01666666666666667 0  3.667826086956521 0 0  3.667826086956521 0.01666666666666667 0  3.684347826086956 0 0  3.684347826086956 0.01666666666666667 0  3.700869565217391 0 0  3.700869565217391 0.01666666666666667 0  3.717391304347826 0 0  3.717391304347826 0.01666666666666667 0  3.733913043478261 0 0  3.733913043478261 0.01666666666666667 0  3.750434782608695 0 0  3.750434782608695 0.01666666666666667 0  3.766956521739131 0 0  3.766956521739131 0.01666666666666667 0  3.783478260869565 0 0  3.783478260869565 0.01666666666666667 0  3.8 0 0  3.8 0.01666666666666667 0  3.254782608695652 0.03333333333333333 0  3.271304347826087 0.03333333333333333 0  3.287826086956521 0.03333333333333333 0  3.304347826086957 0.03333333333333333 0  3.320869565217391 0.03333333333333333 0  3.337391304347826 0.03333333333333333 0  3.353913043478261 0.03333333333333333 0  3.370434782608696 0.03333333333333333 0  3.386956521739131 0.03333333333333333 0  3.403478260869565 0.03333333333333333 0  3.419999999999999 0.03333333333333333 0  3.436521739130435 0.03333333333333333 0  3.453043478260869 0.03333333333333333 0  3.469565217391304 0.03333333333333333 0  3.486086956521739 0.03333333333333333 0  3.502608695652174 0.03333333333333333 0  3.519130434782609 0.03333333333333333 0  3.535652173913043 0.03333333333333333 0  3.552173913043478 0.03333333333333333 0  3.568695652173913 0.03333333333333333 0  3.585217391304347 0.03333333333333333 0  3.601739130434782 0.03333333333333333 0  3.618260869565217 0.03333333333333333 0  3.634782608695652 0.03333333333333333 0  3.651304347826087 0.03333333333333333 0  3.667826086956521 0.03333333333333333 0  3.684347826086956 0.03333333333333333 0  3.700869565217391 0.03333333333333333 0  3.717391304347826 0.03333333333333333 0  3.733913043478261 0.03333333333333333 0  3.750434782608695 0.03333333333333333 0  3.766956521739131 0.03333333333333333 0  3.783478260869565 0.03333333333333333 0  3.8 0.03333333333333333 0  3.271304347826087 0.05 0  3.287826086956521 0.05 0  3.304347826086957 0.05 0  3.320869565217391 0.05 0  3.337391304347826 0.05 0  3.353913043478261 0.05 0  3.370434782608696 0.05 0  3.386956521739131 0.05 0  3.403478260869565 0.05 0  3.419999999999999 0.05 0  3.436521739130435 0.05 0  3.453043478260869 0.05 0  3.469565217391304 0.05 0  3.486086956521739 0.05 0  3.502608695652174 0.05 0  3.519130434782609 0.05 0  3.535652173913043 0.05 0  3.552173913043478 0.05 0  3.568695652173913 0.05 0  3.585217391304347 0.05 0  3.601739130434782 0.05 0  3.618260869565217 0.05 0  3.634782608695652 0.05 0  3.651304347826087 0.05 0  3.667826086956521 0.05 0  3.684347826086956 0.05 0  3.700869565217391 0.05 0  3.717391304347826 0.05 0  3.733913043478261 0.05 0  3.750434782608695 0.05 0  3.766956521739131 0.05 0  3.783478260869565 0.05 0  3.8 0.05 0  3.287826086956521 0.06666666666666667 0  3.304347826086957 0.06666666666666667 0  3.320869565217391 0.06666666666666667 0  3.337391304347826 0.06666666666666667 0  3.353913043478261 0.06666666666666667 0  3.370434782608696 0.06666666666666667 0  3.386956521739131 0.06666666666666667 0  3.403478260869565 0.06666666666666667 0  3.419999999999999 0.06666666666666667 0  3.436521739130435 0.06666666666666667 0  3.453043478260869 0.06666666666666667 0  3.469565217391304 0.06666666666666667 0  3.486086956521739 0.06666666666666667 0  3.502608695652174 0.06666666666666667 0  3.519130434782609 0.06666666666666667 0  3.535652173913043 0.06666666666666667 0  3.552173913043478 0.06666666666666667 0  3.568695652173913 0.06666666666666667 0  3.585217391304347 0.06666666666666667 0  3.601739130434782 0.06666666666666667 0  3.618260869565217 0.06666666666666667 0  3.634782608695652 0.06666666666666667 0  3.651304347826087 0.06666666666666667 0  3.667826086956521 0.06666666666666667 0  3.684347826086956 0.06666666666666667 0  3.700869565217391 0.06666666666666667 0  3.717391304347826 0.06666666666666667 0  3.733913043478261 0.06666666666666667 0  3.750434782608695 0.06666666666666667 0  3.766956521739131 0.06666666666666667 0  3.783478260869565 0.06666666666666667 0  3.8 0.06666666666666667 0  3.304347826086957 0.08333333333333333 0  3.320869565217391 0.08333333333333333 0  3.337391304347826 0.08333333333333333 0  3.353913043478261 0.08333333333333333 0  3.370434782608696 0.08333333333333333 0  3.386956521739131 0.08333333333333333 0  3.403478260869565 0.08333333333333333 0  3.419999999999999 0.08333333333333333 0  3.436521739130435 0.08333333333333333 0  3.453043478260869 0.08333333333333333 0  3.469565217391304 0.08333333333333333 0  3.486086956521739 0.08333333333333333 0  3.502608695652174 0.08333333333333333 0  3.519130434782609 0.08333333333333333 0  3.535652173913043 0.08333333333333333 0  3.552173913043478 0.08333333333333333 0  3.568695652173913 0.08333333333333333 0  3.585217391304347 0.08333333333333333 0  3.601739130434782 0.08333333333333333 0  3.618260869565217 0.08333333333333333 0  3.634782608695652 0.08333333333333333 0  3.651304347826087 0.08333333333333333 0  3.667826086956521 0.08333333333333333 0  3.684347826086956 0.08333333333333333 0  3.700869565217391 0.08333333333333333 0  3.717391304347826 0.08333333333333333 0  3.733913043478261 0.08333333333333333 0  3.750434782608695 0.08333333333333333 0  3.766956521739131 0.08333333333333333 0  3.783478260869565 0.08333333333333333 0  3.8 0.08333333333333333 0  3.320869565217391 0.1 0  3.337391304347826 0.1 0  3.353913043478261 0.1 0  3.370434782608696 0.1 0  3.386956521739131 0.1 0  3.403478260869565 0.1 0  3.419999999999999 0.1 0  3.436521739130435 0.1 0  3.453043478260869 0.1 0  3.469565217391304 0.1 0  3.486086956521739 0.1 0  3.502608695652174 0.1 0  3.519130434782609 0.1 0  3.535652173913043 0.1 0  3.552173913043478 0.1 0  3.568695652173913 0.1 0  3.585217391304347 0.1 0  3.601739130434782 0.1 0  3.618260869565217 0.1 0  3.634782608695652 0.1 0  3.651304347826087 0.1 0  3.667826086956521 0.1 0  3.684347826086956 0.1 0  3.700869565217391 0.1 0  3.717391304347826 0.1 0  3.733913043478261 0.1 0  3.750434782608695 0.1 0  3.766956521739131 0.1 0  3.783478260869565 0.1 0  3.8 0.1 0  3.337391304347826 0.1166666666666667 0  3.353913043478261 0.1166666666666667 0  3.370434782608696 0.1166666666666667 0  3.386956521739131 0.1166666666666667 0  3.403478260869565 0.1166666666666667 0  3.419999999999999 0.1166666666666667 0  3.436521739130435 0.1166666666666667 0  3.453043478260869 0.1166666666666667 0  3.469565217391304 0.1166666666666667 0  3.486086956521739 0.1166666666666667 0  3.502608695652174 0.1166666666666667 0  3.519130434782609 0.1166666666666667 0  3.535652173913043 0.1166666666666667 0  3.552173913043478 0.1166666666666667 0  3.568695652173913 0.1166666666666667 0  3.585217391304347 0.1166666666666667 0  3.601739130434782 0.1166666666666667 0  3.618260869565217 0.1166666666666667 0  3.634782608695652 0.1166666666666667 0  3.651304347826087 0.1166666666666667 0  3.667826086956521 0.1166666666666667 0  3.684347826086956 0.1166666666666667 0  3.700869565217391 0.1166666666666667 0  3.717391304347826 0.1166666666666667 0  3.733913043478261 0.1166666666666667 0  3.750434782608695 0.1166666666666667 0  3.766956521739131 0.1166666666666667 0  3.783478260869565 0.1166666666666667 0  3.8 0.1166666666666667 0  3.353913043478261 0.1333333333333333 0  3.370434782608696 0.1333333333333333 0  3.386956521739131 0.1333333333333333 0  3.403478260869565 0.1333333333333333 0  3.419999999999999 0.1333333333333333 0  3.436521739130435 0.1333333333333333 0  3.453043478260869 0.1333333333333333 0  3.469565217391304 0.1333333333333333 0  3.486086956521739 0.1333333333333333 0  3.502608695652174 0.1333333333333333 0  3.519130434782609 0.1333333333333333 0  3.535652173913043 0.1333333333333333 0  3.552173913043478 0.1333333333333333 0  3.568695652173913 0.1333333333333333 0  3.585217391304347 0.1333333333333333 0  3.601739130434782 0.1333333333333333 0  3.618260869565217 0.1333333333333333 0  3.634782608695652 0.1333333333333333 0  3.651304347826087 0.1333333333333333 0  3.667826086956521 0.1333333333333333 0  3.684347826086956 0.1333333333333333 0  3.700869565217391 0.1333333333333333 0  3.717391304347826 0.13333333
[...]
<PointData  Vectors="Displacement"> 
<DataArray  type="Float64"  Name="Displacement"  NumberOfComponents="3" format="ascii">3.9005482695998392e-04 5.0063431017198278e-03 0.0000000000000000e+00  3.9798188788920985e-04 5.0299525333861337e-03 0.0000000000000000e+00  3.7401080616863801e-04 5.0275943405988475e-03 0.0000000000000000e+00  3.6748998975067831e-04 5.0038468491721850e-03 0.0000000000000000e+00  4.0540987559722040e-04 5.0550438975867492e-03 0.0000000000000000e+00  3.8009654616998658e-04 5.0528505944044374e-03 0.0000000000000000e+00  4.1227731460773641e-04 5.0814811135986068e-03 0.0000000000000000e+00  3.8572512183036249e-04 5.0794620126388490e-03 0.0000000000000000e+00  4.1853119488649961e-04 5.1091519445475367e-03 0.0000000000000000e+00  3.9086045422086023e-04 5.1073253531680211e-03 0.0000000000000000e+00  4.2413645873330441e-04 5.1378987080357829e-03 0.0000000000000000e+00  3.9547970191538228e-04 5.1362715091645963e-03 0.0000000000000000e+00  4.2907764279963647e-04 5.1675660908147639e-03 0.0000000000000000e+00  3.9957074767979099e-04 5.1661407511211415e-03 0.0000000000000000e+00  4.3335259577173757e-04 5.1980053457655181e-03 0.0000000000000000e+00  4.0312949050113939e-04 5.1967816024338313e-03 0.0000000000000000e+00  4.3697149165170885e-04 5.2290703205350409e-03 0.0000000000000000e+00  4.0616158814367741e-04 5.2280440104582526e-03 0.0000000000000000e+00  4.3995728097032382e-04 5.2606204426225434e-03 0.0000000000000000e+00  4.0868312958772116e-04 5.2597832105216987e-03 0.0000000000000000e+00  4.4234349328861264e-04 5.2925270480831729e-03 0.0000000000000000e+00  4.1071847515781703e-04 5.2918677230800277e-03 0.0000000000000000e+00  4.4417123413543086e-04 5.3246749051800530e-03 0.0000000000000000e+00  4.1229817194546862e-04 5.3241804484915880e-03 0.0000000000000000e+00  4.4548723999522774e-04 5.3569614722093128e-03 0.0000000000000000e+00  4.1345779025206219e-04 5.3566173136314421e-03 0.0000000000000000e+00  4.4634278178039581e-04 5.3892965792894567e-03 0.0000000000000000e+00  4.1423711776604157e-04 5.3890868077417749e-03 0.0000000000000000e+00  4.4679262879636128e-04 5.4216029173869808e-03 0.0000000000000000e+00  4.1467920348841882e-04 5.4215106102904320e-03 0.0000000000000000e+00  4.4689370482774431e-04 5.4538166431265314e-03 0.0000000000000000e+00  4.1482915401143324e-04 5.4538243485739964e-03 0.0000000000000000e+00  4.4670358566938491e-04 5.4858874315102564e-03 0.0000000000000000e+00  4.1473288657363185e-04 5.4859776564883467e-03 0.0000000000000000e+00  4.4627909635491320e-04 5.5177779589105557e-03 0.0000000000000000e+00  4.1443600194134537e-04 5.5179335817355435e-03 0.0000000000000000e+00  4.4567512829094582e-04 5.5494630603017464e-03 0.0000000000000000e+00  4.1398282056312002e-04 5.5496676607198385e-03 0.0000000000000000e+00  4.4494366420248755e-04 5.5809287634839330e-03 0.0000000000000000e+00  4.1341555672289374e-04 5.5811668961058738e-03 0.0000000000000000e+00  4.4413295851663235e-04 5.6121712704031929e-03 0.0000000000000000e+00  4.1277360118798721e-04 5.6124287005149404e-03 0.0000000000000000e+00  4.4328684000328187e-04 5.6431958810587157e-03 0.0000000000000000e+00  4.1209290277270796e-04 5.6434597865783944e-03 0.0000000000000000e+00  4.4244412499626530e-04 5.6740158549330238e-03 0.0000000000000000e+00  4.1140544844269492e-04 5.6742749937978409e-03 0.0000000000000000e+00  4.4163813806042285e-04 5.7046512142258712e-03 0.0000000000000000e+00  4.1073884356237719e-04 5.7048960559539100e-03 0.0000000000000000e+00  4.4089633582098173e-04 5.7351274997799176e-03 0.0000000000000000e+00  4.1011599206699627e-04 5.7353503213474861e-03 0.0000000000000000e+00  4.4024002202879448e-04 5.7654744920288990e-03 0.0000000000000000e+00  4.0955487152449739e-04 5.7656694413347805e-03 0.0000000000000000e+00  4.3968413327752435e-04 5.7957248984301943e-03 0.0000000000000000e+00  4.0906839440645493e-04 5.7958880311535128e-03 0.0000000000000000e+00  4.3923707087301968e-04 5.8259129853865379e-03 0.0000000000000000e+00  4.0866434804912217e-04 5.8260422817911547e-03 0.0000000000000000e+00  4.3890055904068700e-04 5.8560730986556737e-03 0.0000000000000000e+00  4.0834541322526033e-04 5.8561684665802503e-03 0.0000000000000000e+00  4.3866952716378320e-04 5.8862379695402058e-03 0.0000000000000000e+00  4.0810927513124535e-04 5.8863012409988763e-03 0.0000000000000000e+00  4.3853205354270640e-04 5.9164366363929511e-03 0.0000000000000000e+00  4.0794885911636761e-04 5.9164715741550425e-03 0.0000000000000000e+00  4.3846949380368748e-04 5.9466917070350941e-03 0.0000000000000000e+00  4.0785273859611520e-04 5.9467040686067337e-03 0.0000000000000000e+00  4.3845710821508371e-04 5.9770155347606867e-03 0.0000000000000000e+00  4.0780574868632064e-04 5.9770133172092794e-03 0.0000000000000000e+00  4.3846598139488346e-04 6.0074047863652048e-03 0.0000000000000000e+00  4.0778972920113386e-04 6.0073988193008769e-03 0.0000000000000000e+00  4.3846888702597390e-04 6.0378346400850619e-03 0.0000000000000000e+00  4.0778394659786980e-04 6.0378376746282412e-03 0.0000000000000000e+00  3.5106383611187910e-04 5.0256234482400439e-03 0.0000000000000000e+00  3.5586769539307965e-04 5.0510387813855204e-03 0.0000000000000000e+00  3.6032382636096480e-04 5.0777891696843994e-03 0.0000000000000000e+00  3.6439330050960057e-04 5.1058252913923760e-03 0.0000000000000000e+00  3.6805706494855118e-04 5.1349425956316351e-03 0.0000000000000000e+00  3.7130664437974191e-04 5.1649823704183360e-03 0.0000000000000000e+00  3.7413539259731793e-04 5.1957950687612740e-03 0.0000000000000000e+00  3.7654476815227603e-04 5.2272261888670190e-03 0.0000000000000000e+00  3.7854693648129882e-04 5.2591253309769966e-03 0.0000000000000000e+00  3.8016085356935462e-04 5.2913592908208872e-03 0.0000000000000000e+00  3.8140960488111935e-04 5.3238104316383318e-03 0.0000000000000000e+00  3.8232009625369649e-04 5.3563736326440797e-03 0.0000000000000000e+00  3.8292308813044410e-04 5.3889559451115116e-03 0.0000000000000000e+00  3.8325257064823976e-04 5.4214778677018965e-03 0.0000000000000000e+00  3.8334456338965186e-04 5.4538745113642479e-03 0.0000000000000000e+00  3.8323589504009130e-04 5.4860955677919782e-03 0.0000000000000000e+00  3.8296322679736133e-04 5.5181045070177882e-03 0.0000000000000000e+00  3.8256229343561373e-04 5.5498775176915736e-03 0.0000000000000000e+00  3.8206725605705619e-04 5.5814024473429960e-03 0.0000000000000000e+00  3.8151011088780068e-04 5.6126777432698449e-03 0.0000000000000000e+00  3.8092016023798199e-04 5.6437113259502304e-03 0.0000000000000000e+00  3.8032356373374248e-04 5.6745193861680726e-03 0.0000000000000000e+00  3.7974298351305553e-04 5.7051251143029535e-03 0.0000000000000000e+00  3.7919733100286456e-04 5.7355573790091501e-03 0.0000000000000000e+00  3.7870161363326118e-04 5.7658493790729796e-03 0.0000000000000000e+00  3.7826687275841761e-04 5.7960372789854593e-03 0.0000000000000000e+00  3.7790020227383789e-04 5.8261588114670772e-03 0.0000000000000000e+00  3.7760483861222700e-04 5.8562517978063451e-03 0.0000000000000000e+00  3.7738031190487895e-04 5.8863525021128158e-03 0.0000000000000000e+00  3.7722263627222406e-04 5.9164937000927469e-03 0.0000000000000000e+00  3.7712447684127025e-04 5.9467023128478543e-03 0.0000000000000000e+00  3.7707512705438008e-04 5.9769964482850324e-03 0.0000000000000000e+00  3.7705989225889731e-04 6.0073817319526461e-03 0.0000000000000000e+00  3.7705793004442117e-04 6.0378467972949127e-03 0.0000000000000000e+00  3.3245021021411860e-04 5.0495783784278219e-03 0.0000000000000000e+00  3.3578364750716348e-04 5.0764143028142689e-03 0.0000000000000000e+00  3.3883042670419605e-04 5.1046244858852976e-03 0.0000000000000000e+00  3.4156898969382705e-04 5.1338967352766024e-03 0.0000000000000000e+00  3.4399260802553205e-04 5.1640885571737818e-03 0.0000000000000000e+00  3.4608848400955806e-04 5.1950585959946978e-03 0.0000000000000000e+00  3.4785379387991316e-04 5.2266441913347440e-03 0.0000000000000000e+00  3.4929992906582635e-04 5.2586853519862604e-03 0.0000000000000000e+00  3.5044328362494014e-04 5.2910492043211155e-03 0.0000000000000000e+00  3.5130138869085277e-04 5.3236197663975434e-03 0.0000000000000000e+00  3.5189421953632245e-04 5.3562914175157347e-03 0.0000000000000000e+00  3.5224552538886994e-04 5.3889693839680548e-03 0.0000000000000000e+00  3.5238250558606915e-04 5.4215726121414690e-03 0.0000000000000000e+00  3.5233434405793383e-04 5.4540357797336391e-03 0.0000000000000000e+00  3.5213084630188293e-04 5.4863089345660483e-03 0.0000000000000000e+00  3.5180157796835384e-04 5.5183562287331898e-03 0.0000000000000000e+00  3.5137533200131437e-04 5.5501546292196493e-03 0.0000000000000000e+00  3.5087967493229095e-04 5.5816928538595925e-03 0.0000000000000000e+00  3.5034047651481609e-04 5.6129703644913747e-03 0.0000000000000000e+00  3.4978145899355954e-04 5.6439962448832127e-03 0.0000000000000000e+00  3.4922380928138042e-04 5.6747879723424571e-03 0.0000000000000000e+00  3.4868588220302304e-04 5.7053701032125743e-03 0.0000000000000000e+00  3.4818301090889744e-04 5.7357728999248118e-03 0.0000000000000000e+00  3.4772742139889157e-04 5.7660309426247258e-03 0.0000000000000000e+00  3.4732823308949036e-04 5.7961817499543773e-03 0.0000000000000000e+00  3.4699152092268444e-04 5.8262644012363560e-03 0.0000000000000000e+00  3.4672041032156504e-04 5.8563181239514508e-03 0.0000000000000000e+00  3.4651516662253861e-04 5.8863807894113090e-03 0.0000000000000000e+00  3.4637321695045350e-04 5.9164872508774479e-03 0.0000000000000000e+00  3.4628899268285089e-04 5.9466674760107864e-03 0.0000000000000000e+00  3.4625338707431399e-04 5.9769444987470693e-03 0.0000000000000000e+00  3.4625246120806535e-04 6.0073323992468029e-03 0.0000000000000000e+00  3.4626476289349018e-04 6.0378349130407573e-03 0.0000000000000000e+00  3.1180922236500452e-04 5.0752724237196978e-03 0.0000000000000000e+00  3.1388733630157426e-04 5.1037017119436850e-03 0.0000000000000000e+00  3.1574024205834338e-04 5.1331159838047457e-03 0.0000000000000000e+00  3.1736406144674086e-04 5.1634498627391679e-03 0.0000000000000000e+00  3.1873434989723888e-04 5.1945775539001520e-03 0.0000000000000000e+00  3.1984537458193770e-04 5.2263167995872314e-03 0.0000000000000000e+00  3.2071348545731115e-04 5.2584901221721806e-03 0.0000000000000000e+00  3.2135521632491496e-04 5.2909708190420927e-03 0.0000000000000000e+00  3.2178300684463360e-04 5.3236481865657197e-03 0.0000000000000000e+00  3.2201056752289875e-04 5.3564161303952139e-03 0.0000000000000000e+00  3.2205618704842371e-04 5.3891768584088517e-03 0.0000000000000000e+00  3.2194232283606732e-04 5.4218470574078602e-03 0.0000000000000000e+00  3.2169326111819728e-04 5.4543612727007513e-03 0.0000000000000000e+00  3.2133342466208743e-04 5.4866705004317619e-03 0.0000000000000000e+00  3.2088670493003946e-04 5.5187400266643065e-03 0.0000000000000000e+00  3.2037625620941375e-04 5.5505478234672756e-03 0.0000000000000000e+00  3.1982425807894072e-04 5.5820835924303095e-03 0.0000000000000000e+00  3.1925153115503369e-04 5.6133479081019906e-03 0.0000000000000000e+00  3.1867712819505045e-04 5.6443511142001733e-03 0.0000000000000000e+00  3.1811798052312973e-04 5.6751120664015530e-03 0.0000000000000000e+00  3.1758864220067973e-04 5.7056567602810186e-03 0.0000000000000000e+00  3.1710115718261330e-04 5.7360168873258604e-03 0.0000000000000000e+00  3.1666503913933722e-04 5.7662283995289247e-03 0.0000000000000000e+00  3.1628732844743722e-04 5.7963301290618321e-03 0.0000000000000000e+00  3.1597268297645358e-04 5.8263624644597179e-03 0.0000000000000000e+00  3.1572345519134779e-04 5.8563660595034256e-03 0.0000000000000000e+00  3.1553969851097588e-04 5.8863805420122373e-03 0.0000000000000000e+00  3.1541902585723150e-04 5.9164432003246453e-03 0.0000000000000000e+00  3.1535620879954426e-04 5.9465876704560792e-03 0.0000000000000000e+00  3.1534235536367070e-04 5.9768427554937557e-03 0.0000000000000000e+00  3.1536344727623529e-04 6.0072317346146764e-03 0.0000000000000000e+00  3.1539799132842574e-04 6.0377729820361376e-03 0.0000000000000000e+00  2.8929152242099373e-04 5.1030428777937972e-03 0.0000000000000000e+00  2.9032509749542799e-04 5.1325744585977605e-03 0.0000000000000000e+00  2.9118670416127776e-04 5.1630482510393932e-03 0.0000000000000000e+00  2.9184316468119822e-04 5.1943524440030107e-03 0.0000000000000000e+00  2.9229519170162173e-04 5.2262582440248152e-03 0.0000000000000000e+00  2.9257491162196979e-04 5.2585572254203426e-03 0.0000000000000000e+00  2.9270015389895289e-04 5.2911452613716202e-03 0.0000000000000000e+00  2.9267590882509363e-04 5.3239223911175325e-03 0.0000000000000000e+00  2.9250895289824981e-04 5.3567802340090077e-03 0.0000000000000000e+00  2.9221346492760536e-04 5.3896150978648676e-03 0.0000000000000000e+00  2.9180930173470056e-04 5.4223402074606991e-03 0.0000000000000000e+00  2.9131758039336182e-04 5.4548908476317213e-03 0.0000000000000000e+00  2.9075854148300173e-04 5.4872200346775596e-03 0.0000000000000000e+00  2.9015138004661163e-04 5.5192948212139450e-03 0.0000000000000000e+00  2.8951458959573670e-04 5.5510944082507252e-03 0.0000000000000000e+00  2.8886595813269397e-04 5.5826095991906672e-03 0.0000000000000000e+00  2.8822218159286003e-04 5.6138422633718833e-03 0.0000000000000000e+00  2.8759842923580529e-04 5.6448042275913613e-03 0.0000000000000000e+00  2.8700798178141087e-04 5.6755159710612253e-03 0.0000000000000000e+00  2.8646199236135260e-04 5.7060051664004352e-03 0.0000000000000000e+00  2.8596940777338782e-04 5.7363051249761481e-03 0.0000000000000000e+00  2.8553702293248955e-04 5.7664532982547381e-03 0.0000000000000000e+00  2.8516960499760848e-04 5.7964899086040116e-03 0.0000000000000000e+00  2.8487002222818192e-04 5.8264567115714812e-03 0.0000000000000000e+00  2.8463931542535261e-04 5.8563958704210550e-03 0.0000000000000000e+00  2.8447664655799999e-04 5.8863489241130712e-03 0.0000000000000000e+00  2.8437905004253519e-04 5.9163558497556338e-03 0.0000000000000000e+00  2.8434089919367276e-04 5.9464542730732336e-03 0.0000000000000000e+00  2.8435299122780641e-04 5.9766789855602532e-03 0.0000000000000000e+00  2.8440117108554188e-04 6.0070621167861151e-03 0.0000000000000000e+00  2.8446451320147172e-04 6.0376346443825474e-03 0.0000000000000000e+00  2.6516493142317722e-04 5.1322391445426628e-03 0.0000000000000000e+00  2.6527345466650752e-04 5.1628627013420051e-03 0.0000000000000000e+00  2.6520398478328231e-04 5.1943855940950120e-03 0.0000000000000000e+00  2.6498842471176550e-04 5.2264834309508276e-03 0.0000000000000000e+00  2.6468158944211644e-04 5.2588955071052662e-03 0.0000000000000000e+00  2.6429295784924774e-04 5.2915816070566689e-03 0.0000000000000000e+00  2.6381218474466519e-04 5.3244573690080666e-03 0.0000000000000000e+00  2.6323777018101997e-04 5.3574053486000715e-03 0.0000000000000000e+00  2.6258198433861904e-04 5.3903101211745475e-03 0.0000000000000000e+00  2.6186491134866006e-04 5.4230798256237533e-03 0.0000000000000000e+00  2.6110600039627897e-04 5.4556528015203823e-03 0.0000000000000000e+00  2.6032188964236129e-04 5.4879859016212385e-03 0.0000000000000000e+00  2.5952752526810897e-04 5.5200486681780464e-03 0.0000000000000000e+00  2.5873742917948301e-04 5.5518215547613065e-03 0.0000000000000000e+00  2.5796586664264380e-04 5.5832964786998755e-03 0.0000000000000000e+00  2.5722625077653712e-04 5.6144768554024791e-03 0.0000000000000000e+00  2.5653057857532712e-04 5.6453763425015745e-03 0.0000000000000000e+00  2.5588900691119457e-04 5.6760174492653309e-03 0.0000000000000000e+00  2.5530960306037551e-04 5.7064299370596675e-03 0.0000000000000000e+00  2.5479833094121479e-04 5.7366490767138201e-03 0.0000000000000000e+00  2.5435920955960118e-04 5.7667140569853609e-03 0.0000000000000000e+00  2.5399453433534274e-04 5.7966666384340147e-03 0.0000000000000000e+00  2.5370507298819552e-04 5.8265500314136215e-03 0.0000000000000000e+00  2.5349016429826492e-04 5.8564079709760072e-03 0.0000000000000000e+00  2.5334765341393961e-04 5.8862839711345599e-03 0.0000000000000000e+00  2.5327360005610017e-04 5.9162207618268887e-03 0.0000000000000000e+00  2.5326170135880443e-04 5.9462599584116475e-03 0.0000000000000000e+00  2.5330238907465786e-04 5.9764420946673419e-03 0.0000000000000000e+00  2.5338161389461999e-04 6.0068072735215286e-03 0.0000000000000000e+00  2.5347946205524100e-04 6.0373968580733888e-03 0.0000000000000000e+00  2.3949485168293496e-04 5.1629107219841085e-03 0.0000000000000000e+00  2.3856806034098412e-04 5.1946893845738655e-03 0.0000000000000000e+00  2.3768720422042921e-04 5.2270084933299819e-03 0.0000000000000000e+00  2.3683453821400603e-04 5.2594999129149224e-03 0.0000000000000000e+00  2.3596054235470518e-04 5.2922748665443636e-03 0.0000000000000000e+00  2.3503492468489694e-04 5.3252574250177917e-03 0.0000000000000000e+00  2.3405334425670085e-04 5.3583045146656672e-03 0.0000000000000000e+00  2.3303188291765332e-04 5.3912793738857380e-03 0.0000000000000000e+00  2.3199480685105332e-04 5.4240838306505654e-03 0.0000000000000000e+00  2.3096051794654484e-04 5.4566649503028095e-03 0.0000000000000000e+00  2.2994147350671000e-04 5.4889861529309747e-03 0.0000000000000000e+00  2.2894815059203339e-04 5.5210199490500697e-03 0.0000000000000000e+00  2.2799162872885113e-04 5.5527474812111970e-03 0.0000000000000000e+00  2.2708357231052362e-04 5.5841615556413591e-03 0.0000000000000000e+00  2.2623498072162735e-04 5.6152675012740632e-03 0.0000000000000000e+00  2.2545537818447403e-04 5.6460813001714266e-03 0.0000000000000000e+00  2.2475227999661565e-04 5.6766280890071432e-03 0.0000000000000000e+00  2.2413090822533265e-04 5.7069403325372822e-03 0.0000000000000000e+00  2.2359428224933111e-04 5.7370557476951649e-03 0.0000000000000000e+00  2.2314354026794676e-04 5.7670155796274740e-03 0.0000000000000000e+00  2.2277830672052284e-04 5.7968633007388810e-03 0.0000000000000000e+00  2.2249699681352081e-04 5.8266436370225713e-03 0.0000000000000000e+00  2.2229698447638504e-04 5.8564018745866191e-03 0.0000000000000000e+00  2.2217457123110501e-04 5.8861834202915417e-03 0.0000000000000000e+00  2.2212470530434924e-04 5.9160336054604823e-03 0.0000000000000000e+00  2.2214041763010415e-04 5.9459977567338975e-03 0.0000000000000000e+00  2.2221197157786280e-04 5.9761216113883575e-03 0.0000000000000000e+00  2.2232578368430321e-04 6.0064522146164685e-03 0.0000000000000000e+00  2.2246329020182489e-04 6.0370394781364472e-03 0.0000000000000000e+00  2.1127617559131071e-04 5.1952189894391649e-03 0.0000000000000000e+00  2.1003011941965116e-04 5.2277981109153391e-03 0.0000000000000000e+00  2.0887888418166285e-04 5.2603381548394458e-03 0.0000000000000000e+00  2.0756539618874213e-04 5.2932069455844813e-03 0.0000000000000000e+00  2.0620213361164643e-04 5.3263199185638061e-03 0.0000000000000000e+00  2.0481738858992821e-04 5.3594854591634466e-03 0.0000000000000000e+00  2.0343642022654229e-04 5.3925336687750004e-03 0.0000000000000000e+00  2.0208839414115473e-04 5.4253607173453339e-03 0.0000000000000000e+00  2.0078753822751503e-04 5.4579348918183052e-03 0.0000000000000000e+00  1.9953946553585874e-04 5.4902291636124319e-03 0.0000000000000000e+00  1.9834942918418722e-04 5.5222183856681751e-03 0.0000000000000000e+00  1.9722590475882985e-04 5.5538825602355433e-03 0.0000000000000000e+00  1.9617929850375114e-04 5.5852148485181592e-03 0.0000000000000000e+00  1.9521922888158976e-04 5.6162231854520583e-03 0.0000000000000000e+00  1.9435348768227003e-04 5.6469265608709053e-03 0.0000000000000000e+00  1.9358740254374286e-04 5.6773535882775833e-03 0.0000000000000000e+00  1.9292350063832082e-04 5.7075403154849911e-03 0.0000000000000000e+00  1.9236179733543211e-04 5.7375275416768892e-03 0.0000000000000000e+00  1.9190038173258177e-04 5.7673589355052637e-03 0.0000000000000000e+00  1.9153599316102174e-04 5.7970798359674482e-03 0.0000000000000000e+00  1.9126448012888651e-04 5.8267364701500993e-03 0.0000000000000000e+00  1.9108107958314233e-04 5.8563755258179574e-03 0.0000000000000000e+00  1.9098046036466188e-04 5.8860440424359272e-03 0.0000000000000000e+00  1.9095649217408818e-04 5.9157895832706118e-03 0.0000000000000000e+00  1.9100172471583419e-04 5.9456606765521782e-03 0.0000000000000000e+