<?xml version="1.0"?>
<VTKFile type="UnstructuredGrid"  version="0.1"  >
<UnstructuredGrid>
<Piece  NumberOfPoints="621" NumberOfCells="1125">
<Points>
<DataArray  type="Float64"  NumberOfComponents="3"  format="ascii">1.883478260869565 0 0  1.9 0 0  1.9 0.01666666666666667 0  1.883478260869565 0.01666666666666667 0  1.916521739130435 0 0  1.916521739130435 0.01666666666666667 0  1.933043478260869 0 0  1.933043478260869 0.01666666666666667 0  1.949565217391304 0 0  1.949565217391304 0.01666666666666667 0  1.966086956521739 0 0  1.966086956521739 0.01666666666666667 0  1.982608695652174 0 0  1.982608695652174 0.01666666666666667 0  1.999130434782608 0 0  1.999130434782608 0.01666666666666667 0  2.015652173913043 0 0  2.015652173913043 0.01666666666666667 0  2.032173913043478 0 0  2.032173913043478 0.01666666666666667 0  2.048695652173913 0 0  2.048695652173913 0.01666666666666667 0  2.065217391304348 0 0  2.065217391304348 0.01666666666666667 0  2.081739130434782 0 0  2.081739130434782 0.01666666666666667 0  2.098260869565217 0 0  2.098260869565217 0.01666666666666667 0  2.114782608695652 0 0  2.114782608695652 0.01666666666666667 0  2.131304347826087 0 0  2.131304347826087 0.01666666666666667 0  2.147826086956522 0 0  2.147826086956522 0.01666666666666667 0  2.164347826086956 0 0  2.164347826086956 0.01666666666666667 0  2.180869565217391 0 0  2.180869565217391 0.01666666666666667 0  2.197391304347826 0 0  2.197391304347826 0.01666666666666667 0  2.213913043478261 0 0  2.213913043478261 0.01666666666666667 0  2.230434782608695 0 0  2.230434782608695 0.01666666666666667 0  2.24695652173913 0 0  2.24695652173913 0.01666666666666667 0  2.263478260869565 0 0  2.263478260869565 0.01666666666666667 0  2.28 0 0  2.28 0.01666666666666667 0  2.296521739130434 0 0  2.296521739130434 0.01666666666666667 0  2.31304347826087 0 0  2.31304347826087 0.01666666666666667 0  2.329565217391304 0 0  2.329565217391304 0.01666666666666667 0  2.346086956521739 0 0  2.346086956521739 0.01666666666666667 0  2.362608695652174 0 0  2.362608695652174 0.01666666666666667 0  2.379130434782609 0 0  2.379130434782609 0.01666666666666667 0  2.395652173913044 0 0  2.395652173913044 0.01666666666666667 0  2.412173913043478 0 0  2.412173913043478 0.01666666666666667 0  2.428695652173913 0 0  2.428695652173913 0.01666666666666667 0  2.445217391304348 0 0  2.445217391304348 0.01666666666666667 0  2.461739130434782 0 0  2.461739130434782 0.01666666666666667 0  2.478260869565217 0 0  2.478260869565217 0.01666666666666667 0  2.494782608695652 0 0  2.494782608695652 0.01666666666666667 0  2.511304347826087 0 0  2.511304347826087 0.01666666666666667 0  2.527826086956522 0 0  2.527826086956522 0.01666666666666667 0  2.544347826086956 0 0  2.544347826086956 0.01666666666666667 0  2.560869565217391 0 0  2.560869565217391 0.01666666666666667 0  2.577391304347826 0 0  2.577391304347826 0.01666666666666667 0  1.916521739130435 0.03333333333333333 0  1.933043478260869 0.03333333333333333 0  1.949565217391304 0.03333333333333333 0  1.966086956521739 0.03333333333333333 0  1.982608695652174 0.03333333333333333 0  1.999130434782608 0.03333333333333333 0  2.015652173913043 0.03333333333333333 0  2.032173913043478 0.03333333333333333 0  2.048695652173913 0.03333333333333333 0  2.065217391304348 0.03333333333333333 0  2.081739130434782 0.03333333333333333 0  2.098260869565217 0.03333333333333333 0  2.114782608695652 0.03333333333333333 0  2.131304347826087 0.03333333333333333 0  2.147826086956522 0.03333333333333333 0  2.164347826086956 0.03333333333333333 0  2.180869565217391 0.03333333333333333 0  2.197391304347826 0.03333333333333333 0  2.213913043478261 0.03333333333333333 0  2.230434782608695 0.03333333333333333 0  2.24695652173913 0.03333333333333333 0  2.263478260869565 0.03333333333333333 0  2.28 0.03333333333333333 0  2.296521739130434 0.03333333333333333 0  2.31304347826087 0.03333333333333333 0  2.329565217391304 0.03333333333333333 0  2.346086956521739 0.03333333333333333 0  2.362608695652174 0.03333333333333333 0  2.379130434782609 0.03333333333333333 0  2.395652173913044 0.03333333333333333 0  2.412173913043478 0.03333333333333333 0  2.428695652173913 0.03333333333333333 0  2.445217391304348 0.03333333333333333 0  2.461739130434782 0.03333333333333333 0  2.478260869565217 0.03333333333333333 0  2.494782608695652 0.03333333333333333 0  2.511304347826087 0.03333333333333333 0  2.527826086956522 0.03333333333333333 0  2.544347826086956 0.03333333333333333 0  2.560869565217391 0.03333333333333333 0  2.577391304347826 0.03333333333333333 0  2.593913043478261 0.03333333333333333 0  1.933043478260869 0.05 0  1.949565217391304 0.05 0  1.966086956521739 0.05 0  1.982608695652174 0.05 0  1.999130434782608 0.05 0  2.015652173913043 0.05 0  2.032173913043478 0.05 0  2.048695652173913 0.05 0  2.065217391304348 0.05 0  2.081739130434782 0.05 0  2.098260869565217 0.05 0  2.114782608695652 0.05 0  2.131304347826087 0.05 0  2.147826086956522 0.05 0  2.164347826086956 0.05 0  2.180869565217391 0.05 0  2.197391304347826 0.05 0  2.213913043478261 0.05 0  2.230434782608695 0.05 0  2.24695652173913 0.05 0  2.263478260869565 0.05 0  2.28 0.05 0  2.296521739130434 0.05 0  2.31304347826087 0.05 0  2.329565217391304 0.05 0  2.346086956521739 0.05 0  2.362608695652174 0.05 0  2.379130434782609 0.05 0  2.395652173913044 0.05 0  2.412173913043478 0.05 0  2.428695652173913 0.05 0  2.445217391304348 0.05 0  2.461739130434782 0.05 0  2.478260869565217 0.05 0  2.494782608695652 0.05 0  2.511304347826087 0.05 0  2.527826086956522 0.05 0  2.544347826086956 0.05 0  2.560869565217391 0.05 0  2.577391304347826 0.05 0  2.593913043478261 0.05 0  2.610434782608696 0.05 0  1.949565217391304 0.06666666666666667 0  1.966086956521739 0.06666666666666667 0  1.982608695652174 0.06666666666666667 0  1.999130434782608 0.06666666666666667 0  2.015652173913043 0.06666666666666667 0  2.032173913043478 0.06666666666666667 0  2.048695652173913 0.06666666666666667 0  2.065217391304348 0.06666666666666667 0  2.081739130434782 0.06666666666666667 0  2.098260869565217 0.06666666666666667 0  2.114782608695652 0.06666666666666667 0  2.131304347826087 0.06666666666666667 0  2.147826086956522 0.06666666666666667 0  2.164347826086956 0.06666666666666667 0  2.180869565217391 0.06666666666666667 0  2.197391304347826 0.06666666666666667 0  2.213913043478261 0.06666666666666667 0  2.230434782608695 0.06666666666666667 0  2.24695652173913 0.06666666666666667 0  2.263478260869565 0.06666666666666667 0  2.28 0.06666666666666667 0  2.296521739130434 0.06666666666666667 0  2.31304347826087 0.06666666666666667 0  2.329565217391304 0.06666666666666667 0  2.346086956521739 0.06666666666666667 0  2.362608695652174 0.06666666666666667 0  2.379130434782609 0.06666666666666667 0  2.395652173913044 0.06666666666666667 0  2.412173913043478 0.06666666666666667 0  2.428695652173913 0.06666666666666667 0  2.445217391304348 0.06666666666666667 0  2.461739130434782 0.06666666666666667 0  2.478260869565217 0.06666666666666667 0  2.494782608695652 0.06666666666666667 0  2.511304347826087 0.06666666666666667 0  2.527826086956522 0.06666666666666667 0  2.544347826086956 0.06666666666666667 0  2.560869565217391 0.06666666666666667 0  2.577391304347826 0.06666666666666667 0  2.593913043478261 0.06666666666666667 0  2.610434782608696 0.06666666666666667 0  2.62695652173913 0.06666666666666667 0  1.966086956521739 0.08333333333333333 0  1.982608695652174 0.08333333333333333 0  1.999130434782608 0.08333333333333333 0  2.015652173913043 0.08333333333333333 0  2.032173913043478 0.08333333333333333 0  2.048695652173913 0.08333333333333333 0  2.065217391304348 0.08333333333333333 0  2.081739130434782 0.08333333333333333 0  2.098260869565217 0.08333333333333333 0  2.114782608695652 0.08333333333333333 0  2.131304347826087 0.08333333333333333 0  2.147826086956522 0.08333333333333333 0  2.164347826086956 0.08333333333333333 0  2.180869565217391 0.08333333333333333 0  2.197391304347826 0.08333333333333333 0  2.213913043478261 0.08333333333333333 0  2.230434782608695 0.08333333333333333 0  2.24695652173913 0.08333333333333333 0  2.263478260869565 0.08333333333333333 0  2.28 0.08333333333333333 0  2.296521739130434 0.08333333333333333 0  2.31304347826087 0.08333333333333333 0  2.329565217391304 0.08333333333333333 0  2.346086956521739 0.08333333333333333 0  2.362608695652174 0.08333333333333333 0  2.379130434782609 0.08333333333333333 0  2.395652173913044 0.08333333333333333 0  2.412173913043478 0.08333333333333333 0  2.428695652173913 0.08333333333333333 0  2.445217391304348 0.08333333333333333 0  2.461739130434782 0.08333333333333333 0  2.478260869565217 0.08333333333333333 0  2.494782608695652 0.08333333333333333 0  2.511304347826087 0.08333333333333333 0  2.527826086956522 0.08333333333333333 0  2.544347826086956 0.08333333333333333 0  2.560869565217391 0.08333333333333333 0  2.577391304347826 0.08333333333333333 0  2.593913043478261 0.08333333333333333 0  2.610434782608696 0.08333333333333333 0  2.62695652173913 0.08333333333333333 0  2.643478260869565 0.08333333333333333 0  1.982608695652174 0.1 0  1.999130434782608 0.1 0  2.015652173913043 0.1 0  2.032173913043478 0.1 0  2.048695652173913 0.1 0  2.065217391304348 0.1 0  2.081739130434782 0.1 0  2.098260869565217 0.1 0  2.114782608695652 0.1 0  2.131304347826087 0.1 0  2.147826086956522 0.1 0  2.164347826086956 0.1 0  2.180869565217391 0.1 0  2.197391304347826 0.1 0  2.213913043478261 0.1 0  2.230434782608695 0.1 0  2.24695652173913 0.1 0  2.263478260869565 0.1 0  2.28 0.1 0  2.296521739130434 0.1 0  2.31304347826087 0.1 0  2.329565217391304 0.1 0  2.346086956521739 0.1 0  2.362608695652174 0.1 0  2.379130434782609 0.1 0  2.395652173913044 0.1 0  2.412173913043478 0.1 0  2.428695652173913 0.1 0  2.445217391304348 0.1 0  2.461739130434782 0.1 0  2.478260869565217 0.1 0  2.494782608695652 0.1 0  2.511304347826087 0.1 0  2.527826086956522 0.1 0  2.544347826086956 0.1 0  2.560869565217391 0.1 0  2.5773
[...]
<PointData  Vectors="Displacement"> 
<DataArray  type="Float64"  Name="Displacement"  NumberOfComponents="3" format="ascii">3.5328583708004406e-04 3.3779432951411442e-03 0.0000000000000000e+00  3.5213116003931735e-04 3.4239963137231624e-03 0.0000000000000000e+00  3.0720738815832925e-04 3.4240121605442933e-03 0.0000000000000000e+00  3.0515049993359692e-04 3.3778382622948913e-03 0.0000000000000000e+00  3.5082237628299173e-04 3.4671922692625814e-03 0.0000000000000000e+00  3.0852572604465000e-04 3.4673498447409749e-03 0.0000000000000000e+00  3.4949635506042131e-04 3.5078108104274635e-03 0.0000000000000000e+00  3.0934719794337362e-04 3.5080163016555990e-03 0.0000000000000000e+00  3.4829308676727902e-04 3.5464050753134801e-03 0.0000000000000000e+00  3.0981511450586184e-04 3.5466194433104335e-03 0.0000000000000000e+00  3.4731394202796472e-04 3.5834573110325656e-03 0.0000000000000000e+00  3.1006348798955861e-04 3.5836542326388725e-03 0.0000000000000000e+00  3.4665818623101451e-04 3.6193717136196262e-03 0.0000000000000000e+00  3.1021016289879732e-04 3.6195246206414265e-03 0.0000000000000000e+00  3.4652212735175673e-04 3.6544232706517900e-03 0.0000000000000000e+00  3.1044964216677041e-04 3.6544408004468751e-03 0.0000000000000000e+00  3.4713655145642946e-04 3.6890763561867289e-03 0.0000000000000000e+00  3.1097691386536617e-04 3.6888687464487827e-03 0.0000000000000000e+00  3.4848982802299756e-04 3.7241991938511288e-03 0.0000000000000000e+00  3.1173398031902704e-04 3.7238352233574987e-03 0.0000000000000000e+00  3.5037022039127974e-04 3.7604378456363098e-03 0.0000000000000000e+00  3.1252779172371642e-04 3.7600354339496420e-03 0.0000000000000000e+00  3.5259782600938829e-04 3.7981137285015717e-03 0.0000000000000000e+00  3.1318620895035785e-04 3.7977448895054580e-03 0.0000000000000000e+00  3.5524143701243764e-04 3.8376400433697238e-03 0.0000000000000000e+00  3.1357181923468043e-04 3.8371114707281928e-03 0.0000000000000000e+00  3.5809471689460704e-04 3.8801230652327013e-03 0.0000000000000000e+00  3.1377065208508948e-04 3.8795813186121254e-03 0.0000000000000000e+00  3.6110541799765718e-04 3.9257699583849816e-03 0.0000000000000000e+00  3.1386651909578734e-04 3.9248936118524537e-03 0.0000000000000000e+00  3.6623671716223697e-04 3.9767517203490033e-03 0.0000000000000000e+00  3.1357386950533979e-04 3.9750554647807208e-03 0.0000000000000000e+00  3.7497608715405368e-04 4.0413409298095497e-03 0.0000000000000000e+00  3.0888930677671814e-04 4.0387340915510250e-03 0.0000000000000000e+00  3.8357745019651843e-04 4.1204260569388477e-03 0.0000000000000000e+00  3.0312452138845508e-04 4.1179238573670930e-03 0.0000000000000000e+00  3.9023326269170132e-04 4.2093244164302587e-03 0.0000000000000000e+00  3.0009130453743585e-04 4.2074388032735943e-03 0.0000000000000000e+00  3.9501868329360005e-04 4.3037671017721393e-03 0.0000000000000000e+00  2.9939518390666804e-04 4.3024624638665068e-03 0.0000000000000000e+00  3.9877448077190093e-04 4.4016111937099792e-03 0.0000000000000000e+00  2.9971598151158689e-04 4.4006259665976405e-03 0.0000000000000000e+00  4.0205407527636429e-04 4.5020108511068316e-03 0.0000000000000000e+00  3.0035744972743071e-04 4.5011585083842296e-03 0.0000000000000000e+00  4.0511686030916095e-04 4.6046543622426236e-03 0.0000000000000000e+00  3.0111753384799689e-04 4.6038400540301117e-03 0.0000000000000000e+00  4.0809753935671777e-04 4.7094096053294770e-03 0.0000000000000000e+00  3.0198035999558660e-04 4.7085808052938129e-03 0.0000000000000000e+00  4.1108676302146493e-04 4.8161857045728070e-03 0.0000000000000000e+00  3.0299258649938760e-04 4.8153062701112234e-03 0.0000000000000000e+00  4.1416200743188750e-04 4.9248691569200951e-03 0.0000000000000000e+00  3.0424386875411080e-04 4.9239126454979857e-03 0.0000000000000000e+00  4.1739131478985285e-04 5.0352640079845308e-03 0.0000000000000000e+00  3.0587257706582498e-04 5.0342140554520010e-03 0.0000000000000000e+00  4.2081451836869886e-04 5.1470245772969299e-03 0.0000000000000000e+00  3.0805501251517705e-04 5.1458773880273864e-03 0.0000000000000000e+00  4.2441260488250795e-04 5.2596204217078297e-03 0.0000000000000000e+00  3.1094365380139865e-04 5.2583906988695785e-03 0.0000000000000000e+00  4.2809687501021656e-04 5.3723924177546427e-03 0.0000000000000000e+00  3.1456564741075109e-04 5.3711164132277615e-03 0.0000000000000000e+00  4.3174180852462510e-04 5.4846980944890274e-03 0.0000000000000000e+00  3.1876825691561577e-04 5.4834236569659568e-03 0.0000000000000000e+00  4.3523972731881149e-04 5.5960582060305747e-03 0.0000000000000000e+00  3.2327604790045942e-04 5.5948258590404953e-03 0.0000000000000000e+00  4.3853801397431995e-04 5.7062112102803072e-03 0.0000000000000000e+00  3.2782263415902224e-04 5.7050397562426435e-03 0.0000000000000000e+00  4.4163987036907051e-04 5.8150563765098492e-03 0.0000000000000000e+00  3.3226134088785026e-04 5.8139418197596928e-03 0.0000000000000000e+00  4.4458138769894201e-04 5.9225441406135487e-03 0.0000000000000000e+00  3.3659058988150741e-04 5.9214691851931182e-03 0.0000000000000000e+00  4.4740483260462754e-04 6.0285843042369482e-03 0.0000000000000000e+00  3.4090369126607730e-04 6.0275304717267468e-03 0.0000000000000000e+00  4.5014151663948330e-04 6.1330067604723829e-03 0.0000000000000000e+00  3.4531506037747126e-04 6.1319620147104710e-03 0.0000000000000000e+00  4.5280599240455445e-04 6.2355728375065823e-03 0.0000000000000000e+00  3.4990399103733085e-04 6.2345333192885214e-03 0.0000000000000000e+00  4.5539836992306688e-04 6.3360172978800238e-03 0.0000000000000000e+00  3.5469014077505536e-04 6.3349856592557338e-03 0.0000000000000000e+00  4.5790892433146741e-04 6.4340985981569936e-03 0.0000000000000000e+00  3.5963309458416281e-04 6.4330819958799924e-03 0.0000000000000000e+00  4.6032269705288675e-04 6.5296449644766889e-03 0.0000000000000000e+00  3.6464220843249206e-04 6.5286530580579948e-03 0.0000000000000000e+00  4.6262507205149545e-04 6.6225866637349591e-03 0.0000000000000000e+00  3.6959689098222098e-04 6.6216283986707848e-03 0.0000000000000000e+00  4.6480855498019216e-04 6.7129572876636406e-03 0.0000000000000000e+00  3.7438648412282363e-04 6.7120364278683555e-03 0.0000000000000000e+00  2.6741657958101662e-04 3.4669185935695579e-03 0.0000000000000000e+00  2.7008135755631591e-04 3.5077647352004305e-03 0.0000000000000000e+00  2.7186150169429053e-04 3.5465103933892141e-03 0.0000000000000000e+00  2.7299692302140878e-04 3.5836786697426683e-03 0.0000000000000000e+00  2.7361376628536863e-04 3.6196913868592885e-03 0.0000000000000000e+00  2.7397931138122803e-04 3.6545182110216709e-03 0.0000000000000000e+00  2.7444873807258883e-04 3.6886057520218018e-03 0.0000000000000000e+00  2.7491073950142679e-04 3.7234682744221614e-03 0.0000000000000000e+00  2.7505572737328586e-04 3.7597806746386682e-03 0.0000000000000000e+00  2.7482658852031016e-04 3.7975694396206400e-03 0.0000000000000000e+00  2.7449185146601561e-04 3.8367268068503022e-03 0.0000000000000000e+00  2.7206767126899180e-04 3.8793217716269293e-03 0.0000000000000000e+00  2.6816791139063200e-04 3.9248568428401527e-03 0.0000000000000000e+00  2.6936774297527994e-04 3.9698325197478589e-03 0.0000000000000000e+00  2.6876500902051385e-04 4.0310331550870828e-03 0.0000000000000000e+00  2.6724622486701781e-04 4.1048140088888541e-03 0.0000000000000000e+00  2.6683722128562759e-04 4.1877214294035285e-03 0.0000000000000000e+00  2.6812577943586657e-04 4.2769983978281486e-03 0.0000000000000000e+00  2.7070000293312539e-04 4.3707281860205661e-03 0.0000000000000000e+00  2.7403322675023509e-04 4.4678192404004717e-03 0.0000000000000000e+00  2.7780670037969696e-04 4.5677153296830907e-03 0.0000000000000000e+00  2.8189076184729394e-04 4.6700916212247838e-03 0.0000000000000000e+00  2.8625838915586303e-04 4.7747140834990872e-03 0.0000000000000000e+00  2.9092369934033039e-04 4.8813920594024760e-03 0.0000000000000000e+00  2.9593702724704980e-04 4.9898822571660265e-03 0.0000000000000000e+00  3.0137899822264629e-04 5.0998263621500712e-03 0.0000000000000000e+00  3.0732008590994201e-04 5.2107573753560846e-03 0.0000000000000000e+00  3.1376942266294917e-04 5.3221490871248039e-03 0.0000000000000000e+00  3.2064893799637370e-04 5.4334899065797857e-03 0.0000000000000000e+00  3.2781429919625783e-04 5.5443499208066840e-03 0.0000000000000000e+00  3.3511172983688323e-04 5.6544110966679035e-03 0.0000000000000000e+00  3.4243472219445297e-04 5.7634526236129023e-03 0.0000000000000000e+00  3.4974889705241172e-04 5.8713083708915870e-03 0.0000000000000000e+00  3.5707901784012456e-04 5.9778218570776375e-03 0.0000000000000000e+00  3.6447428647860857e-04 6.0828172464090311e-03 0.0000000000000000e+00  3.7197287961066402e-04 6.1860943770611874e-03 0.0000000000000000e+00  3.7957929460701506e-04 6.2874447729851244e-03 0.0000000000000000e+00  3.8725777145675894e-04 6.3866793090804775e-03 0.0000000000000000e+00  3.9493906311362990e-04 6.4836566223542618e-03 0.0000000000000000e+00  4.0253772463295717e-04 6.5783001391238665e-03 0.0000000000000000e+00  4.0997699066325585e-04 6.6705928476946110e-03 0.0000000000000000e+00  4.1721325222300257e-04 6.7605489289272709e-03 0.0000000000000000e+00  2.3276629116430455e-04 3.5071894261225552e-03 0.0000000000000000e+00  2.3553818320281358e-04 3.5463902278958961e-03 0.0000000000000000e+00  2.3699769911069788e-04 3.5837437434767840e-03 0.0000000000000000e+00  2.3778080219541845e-04 3.6201302726667412e-03 0.0000000000000000e+00  2.3807018094634019e-04 3.6548146972030697e-03 0.0000000000000000e+00  2.3851177252540967e-04 3.6881159242101286e-03 0.0000000000000000e+00  2.3892023488261826e-04 3.7227509032973171e-03 0.0000000000000000e+00  2.3893143165497078e-04 3.7592973439178443e-03 0.0000000000000000e+00  2.3846331351299322e-04 3.7970375157621410e-03 0.0000000000000000e+00  2.3519369056682982e-04 3.8368050399708452e-03 0.0000000000000000e+00  2.3580095086701757e-04 3.8694469797417078e-03 0.0000000000000000e+00  2.3729375129101347e-04 3.9119436344009538e-03 0.0000000000000000e+00  2.3837594506653467e-04 3.9584221403652147e-03 0.0000000000000000e+00  2.3823457448192195e-04 4.0170809785471098e-03 0.0000000000000000e+00  2.3848520942707877e-04 4.0865370840659143e-03 0.0000000000000000e+00  2.3995930517827700e-04 4.1643780134553582e-03 0.0000000000000000e+00  2.4296046756363269e-04 4.2487440367379812e-03 0.0000000000000000e+00  2.4734292149014515e-04 4.3382237040939511e-03 0.0000000000000000e+00  2.5277150106626449e-04 4.4317989951083072e-03 0.0000000000000000e+00  2.5893794038474560e-04 4.5287882312828867e-03 0.0000000000000000e+00  2.6563423011666438e-04 4.6287274436225025e-03 0.0000000000000000e+00  2.7274137557927553e-04 4.7312716831773623e-03 0.0000000000000000e+00  2.8020517430607354e-04 4.8361289170082075e-03 0.0000000000000000e+00  2.8802075904427405e-04 4.9429839250394875e-03 0.0000000000000000e+00  2.9621047411372943e-04 5.0514543554466039e-03 0.0000000000000000e+00  3.0479445271726596e-04 5.1610958433834673e-03 0.0000000000000000e+00  3.1376413295042510e-04 5.2714358860537838e-03 0.0000000000000000e+00  3.2306980766144976e-04 5.3820182623082174e-03 0.0000000000000000e+00  3.3262914476910797e-04 5.4924401916525015e-03 0.0000000000000000e+00  3.4235214407017135e-04 5.6023693558308885e-03 0.0000000000000000e+00  3.5216822330428433e-04 5.7115389631537290e-03 0.0000000000000000e+00  3.6204118293939195e-04 5.8197286789233148e-03 0.0000000000000000e+00  3.7196668130247429e-04 5.9267421483811871e-03 0.0000000000000000e+00  3.8195662592848474e-04 6.0323899608362127e-03 0.0000000000000000e+00  3.9201957504395610e-04 6.1364836111900906e-03 0.0000000000000000e+00  4.0214550643394374e-04 6.2388410977006177e-03 0.0000000000000000e+00  4.1229952153051710e-04 6.3393003821990337e-03 0.0000000000000000e+00  4.2242527048706643e-04 6.4377340691226170e-03 0.0000000000000000e+00  4.3245636182565213e-04 6.5340570605112967e-03 0.0000000000000000e+00  4.4233183186803270e-04 6.6282207922539280e-03 0.0000000000000000e+00  4.5200962039009294e-04 6.7201949190744611e-03 0.0000000000000000e+00  4.6147208737293499e-04 6.8099459402050895e-03 0.0000000000000000e+00  2.0039103713928873e-04 3.5463711031989394e-03 0.0000000000000000e+00  2.0189770283428259e-04 3.5838168725000809e-03 0.0000000000000000e+00  2.0328334611508468e-04 3.6210997289381256e-03 0.0000000000000000e+00  2.0355458549641963e-04 3.6555744029309798e-03 0.0000000000000000e+00  2.0409713825126973e-04 3.6871644270968498e-03 0.0000000000000000e+00  2.0455427321501294e-04 3.7211657907554219e-03 0.0000000000000000e+00  2.0437582824713271e-04 3.7581921845484308e-03 0.0000000000000000e+00  2.0426360930033625e-04 3.7865176320582344e-03 0.0000000000000000e+00  2.0622341143470543e-04 3.8212276982512441e-03 0.0000000000000000e+00  2.0874665161980108e-04 3.8551416178612581e-03 0.0000000000000000e+00  2.1040125900949347e-04 3.8957036797124004e-03 0.0000000000000000e+00  2.1196216099287967e-04 3.9424896203166127e-03 0.0000000000000000e+00  2.1304102469626163e-04 3.9987854751545159e-03 0.0000000000000000e+00  2.1480547047655335e-04 4.0642638169594405e-03 0.0000000000000000e+00  2.1790273621300068e-04 4.1376426718860142e-03 0.0000000000000000e+00  2.2250154977265416e-04 4.2176268601156544e-03 0.0000000000000000e+00  2.2850921535262468e-04 4.3031262238308870e-03 0.0000000000000000e+00  2.3569762830086689e-04 4.3932600383018803e-03 0.0000000000000000e+00  2.4380812791766868e-04 4.4873437941537917e-03 0.0000000000000000e+00  2.5261833322975458e-04 4.5848480432730022e-03 0.0000000000000000e+00  2.6196441435023468e-04 4.6853462573960150e-03 0.0000000000000000e+00  2.7174067656079190e-04 4.7884630148593912e-03 0.0000000000000000e+00  2.8189082894333609e-04 4.8938202539378986e-03 0.0000000000000000e+00  2.9239024749660883e-04 5.0010066808146569e-03 0.0000000000000000e+00  3.0322459660517422e-04 5.1095790643910944e-03 0.0000000000000000e+00  3.1437257639059627e-04 5.2190838621679900e-03 0.0000000000000000e+00  3.2579754163741668e-04 5.3290855629414512e-03 0.0000000000000000e+00  3.3744973131306900e-04 5.4391898658909602e-03 0.0000000000000000e+00  3.4927638963602373e-04 5.5490548462954108e-03 0.0000000000000000e+00  3.6123347080300284e-04 5.6583898459531892e-03 0.0000000000000000e+00  3.7329261217958627e-04 5.7669463353479970e-03 0.0000000000000000e+00  3.8544035672698955e-04 5.8745060026969128e-03 0.0000000000000000e+00  3.9767068084482966e-04 5.9808705398591141e-03 0.0000000000000000e+00  4.0997459287160258e-04 6.0858563666360849e-03 0.0000000000000000e+00  4.2233122545212959e-04 6.1892953307365415e-03 0.0000000000000000e+00  4.3470369498765899e-04 6.2910398571505901e-03 0.0000000000000000e+00  4.4704100253188303e-04 6.3909688524525455e-03 0.0000000000000000e+00  4.5928514459171515e-04 6.4889895615105192e-03 0.0000000000000000e+00  4.7138066207651924e-04 6.5850319742669439e-03 0.0000000000000000e+00  4.8328273463921938e-04 6.6790367281373397e-03 0.0000000000000000e+00  4.9496070149286035e-04 6.7709418450193973e-03 0.0000000000000000e+00  5.0639659440088983e-04 6.8606735629184717e-03 0.0000000000000000e+00  1.7951692656427730e-04 3.5815908888592327e-03 0.0000000000000000e+00  1.7226426189375201e-04 3.6236935515039314e-03 0.0000000000000000e+00  1.7210866451535062e-04 3.6574845118849328e-03 0.0000000000000000e+00  1.7217141636017874e-04 3.6853952875025033e-03 0.0000000000000000e+00  1.7261200211085879e-04 3.7188409058174477e-03 0.0000000000000000e+00  1.7343449505173889e-04 3.7500701346149731e-03 0.0000000000000000e+00  1.7721825958624913e-04 3.7731656502382098e-03 0.0000000000000000e+00  1.8077618572629947e-04 3.8038587071173857e-03 0.0000000000000000e+00  1.8422073320077274e-04 3.8376019927764339e-03 0.0000000000000000e+00  1.8684500076049485e-04 3.8770021803137401e-03 0.0000000000000000e+00  1.8925718186225130e-04 3.9226749169665072e-03 0.0000000000000000e+00  1.9176608357416997e-04 3.9764215956309447e-03 0.0000000000000000e+00  1.9510693322974626e-04 4.0382691921192222e-03 0.0000000000000000e+00  1.9975537996680615e-04 4.1076059114623347e-03 0.0000000000000000e+00  2.0586038834873992e-04 4.1835922708477261e-03 0.0000000000000000e+00  2.1336289351223296e-04 4.2653861388969871e-03 0.0000000000000000e+00  2.2209441274949237e-04 4.3522351832340237e-03 0.0000000000000000e+00  2.3184190338008842e-04 4.4434965505482675e-03 0.0000000000000000e+00  2.4239525384651882e-04 4.5386237844962009e-03 0.0000000000000000e+00  2.5357536531972019e-04 4.6371418197695552e-03 0.0000000000000000e+00  2.6524588732959359e-04 4.7386145301749711e-03 0.0000000000000000e+00  2.7731352613680823e-04 4.8426106383547387e-03 0.0000000000000000e+00  2.8971898006143886e-04 4.9486844967951485e-03 0.0000000000000000e+00  3.0242359875100262e-04 5.0563772060056369e-03 0.0000000000000000e+00  3.1539738181347556e-04 5.1652316807083319e-03 0.0000000000000000e+00  3.2861153630244866e-04 5.2748124352712256e-03 0.0000000000000000e+00  3.4203646302064346e-04 5.3847218838512598e-03 0.0000000000000000e+00  3.5564378543030228e-04 5.4946087344605599e-03 0.0000000000000000e+00  3.6940957818913759e-04 5.6041683859879817e-03 0.0000000000000000e+00  3.8331600849178841e-04 5.7131378781134379e-03 0.0000000000000000e+00  3.9734991889142732e-04 5.8212884660505133e-03 0.0000000000000000e+00  4.1149856147334920e-04 5.9284184373805029e-03 0.0000000000000000e+00  4.2574402086583779e-04 6.0343481122677664e-03 0.0000000000000000e+00  4.4005846786219924e-04 6.1389178258435678e-03 0.0000000000000000e+00  4.5440210483501753e-04 6.2419882495212452e-03 0.0000000000000000e+00  4.6872469218941072e-04 6.3434410833047572e-03 0.0000000000000000e+00  4.8297022351598777e-04 6.4431775388964548e-03 0.0000000000000000e+00  4.9708304267201907e-04 6.5411129447817649e-03 0.0000000000000000e+00  5.1101308408421523e-04 6.6371682028248816e-03 0.0000000000000000e+00  5.2471851406013005e-04 6.7312609709430501e-03 0.0000000000000000e+00  5.3816558155974660e-04 6.8232991883817751e-03 0.0000000000000000e+00  5.5132671631101082e-04 6.9131771299093831e-03 0.0000000000000000e+00  1.5119648147736593e-04 3.6447836175696638e-03 0.0000000000000000e+00  1.4943085918362004e-04 3.6616383643101524e-03 0.0000000000000000e+00  1.4901979375508883e-04 3.6830259698007349e-03 0.0000000000000000e+00  1.5028058054714172e-04 3.7012222610403674e-03 0.0000000000000000e+00  1.5418941901237137e-04 3.7309117929107873e-03 0.0000000000000000e+00  1.5790489386448533e-04 3.7561435569894129e-03 0.0000000000000000e+00  1.6078697182407591e-04 3.7850293379389846e-03 0.0000000000000000e+00  1.6388719701370620e-04 3.8176823808393858e-03 0.0000000000000000e+00  1.6693634024089296e-04 3.8555546757009294e-03 0.0000000000000000e+00  1.7019056181455052e-04 3.8993896693349591e-03 0.0000000000000000e+00  1.7398914381844418e-04 3.9503222718571601e-03 0.0000000000000000e+00  1.7880326171095808e-04 4.0087013411796478e-03 0.0000000000000000e+00  1.8491678096836276e-04 4.0743110378432014e-03 0.0000000000000000e+00  1.9242583166789436e-04 4.1466158226596255e-03 0.0000000000000000e+00  2.0129040129115991e-04 4.2249650319286201e-03 0.0000000000000000e+00  2.1138232792137842e-04 4.3087208542711133e-03 0.0000000000000000e+00  2.2252425229840251e-04 4.3972970963030832e-03 0.0000000000000000e+00  2.3452431427640187e-04 4.4901565368943852e-03 0.0000000000000000e+00  2.4720218866584772e-04 4.5868008388812954e-03 0.0000000000000000e+00  2.6040549493209944e-04 4.6867525031565795e-03 0.0000000000000000e+00  2.7401730933230325e-04 4.7895355038457292e-03 0.0000000000000000e+00  2.8795533702837456e-04 4.8946661011266155e-03 0.0000000000000000e+00  3.0216561906941408e-04 5.0016572457129514e-03 0.0000000000000000e+00  3.1661438253942695e-04 5.1100324332292073e-03 0.0000000000000000e+00  3.3128067181238463e-04 5.2193422913143009e-03 0.0000000000000000e+00  3.4615108313684740e-04 5.3291779033305120e-03 0.0000000000000000e+00  3.6121658188450204e-04 5.4391777630396496e-03 0.0000000000000000e+00  3.7647048886690324e-04 5.5490283733443000e-03 0.0000000000000000e+00  3.9190656217585450e-04 5.6584603446507183e-03 0.0000000000000000e+00  4.0751651711003987e-04 5.7672422306213533e-03 0.0000000000000000e+