<?xml version="1.0"?>
<VTKFile type="UnstructuredGrid"  version="0.1"  >
<UnstructuredGrid>
<Piece  NumberOfPoints="629" NumberOfCells="1162">
<Points>
<DataArray  type="Float64"  NumberOfComponents="3"  format="ascii">0.7104347826086956 0 0  0.7269565217391304 0 0  0.7269565217391304 0.01666666666666667 0  0.7104347826086956 0.01666666666666667 0  0.7434782608695653 0 0  0.7434782608695653 0.01666666666666667 0  0.7599999999999999 0 0  0.7599999999999999 0.01666666666666667 0  0.7765217391304348 0 0  0.7765217391304348 0.01666666666666667 0  0.7930434782608695 0 0  0.7930434782608695 0.01666666666666667 0  0.8095652173913043 0 0  0.8095652173913043 0.01666666666666667 0  0.8260869565217391 0 0  0.8260869565217391 0.01666666666666667 0  0.8426086956521739 0 0  0.8426086956521739 0.01666666666666667 0  0.8591304347826086 0 0  0.8591304347826086 0.01666666666666667 0  0.8756521739130434 0 0  0.8756521739130434 0.01666666666666667 0  0.8921739130434783 0 0  0.8921739130434783 0.01666666666666667 0  0.908695652173913 0 0  0.908695652173913 0.01666666666666667 0  0.9252173913043478 0 0  0.9252173913043478 0.01666666666666667 0  0.9417391304347826 0 0  0.9417391304347826 0.01666666666666667 0  0.9582608695652173 0 0  0.9582608695652173 0.01666666666666667 0  0.9747826086956521 0 0  0.9747826086956521 0.01666666666666667 0  0.991304347826087 0 0  0.991304347826087 0.01666666666666667 0  1.007826086956522 0 0  1.007826086956522 0.01666666666666667 0  1.024347826086957 0 0  1.024347826086957 0.01666666666666667 0  0.7269565217391304 0.03333333333333333 0  0.7104347826086956 0.03333333333333333 0  0.7434782608695653 0.03333333333333333 0  0.7599999999999999 0.03333333333333333 0  0.7765217391304348 0.03333333333333333 0  0.7930434782608695 0.03333333333333333 0  0.8095652173913043 0.03333333333333333 0  0.8260869565217391 0.03333333333333333 0  0.8426086956521739 0.03333333333333333 0  0.8591304347826086 0.03333333333333333 0  0.8756521739130434 0.03333333333333333 0  0.8921739130434783 0.03333333333333333 0  0.908695652173913 0.03333333333333333 0  0.9252173913043478 0.03333333333333333 0  0.9417391304347826 0.03333333333333333 0  0.9582608695652173 0.03333333333333333 0  0.9747826086956521 0.03333333333333333 0  0.991304347826087 0.03333333333333333 0  1.007826086956522 0.03333333333333333 0  1.024347826086957 0.03333333333333333 0  1.040869565217391 0.03333333333333333 0  0.7269565217391304 0.05 0  0.7434782608695653 0.05 0  0.7599999999999999 0.05 0  0.7765217391304348 0.05 0  0.7930434782608695 0.05 0  0.8095652173913043 0.05 0  0.8260869565217391 0.05 0  0.8426086956521739 0.05 0  0.8591304347826086 0.05 0  0.8756521739130434 0.05 0  0.8921739130434783 0.05 0  0.908695652173913 0.05 0  0.9252173913043478 0.05 0  0.9417391304347826 0.05 0  0.9582608695652173 0.05 0  0.9747826086956521 0.05 0  0.991304347826087 0.05 0  1.007826086956522 0.05 0  1.024347826086957 0.05 0  1.040869565217391 0.05 0  1.057391304347826 0.05 0  0.7434782608695653 0.06666666666666667 0  0.7599999999999999 0.06666666666666667 0  0.7765217391304348 0.06666666666666667 0  0.7930434782608695 0.06666666666666667 0  0.8095652173913043 0.06666666666666667 0  0.8260869565217391 0.06666666666666667 0  0.8426086956521739 0.06666666666666667 0  0.8591304347826086 0.06666666666666667 0  0.8756521739130434 0.06666666666666667 0  0.8921739130434783 0.06666666666666667 0  0.908695652173913 0.06666666666666667 0  0.9252173913043478 0.06666666666666667 0  0.9417391304347826 0.06666666666666667 0  0.9582608695652173 0.06666666666666667 0  0.9747826086956521 0.06666666666666667 0  0.991304347826087 0.06666666666666667 0  1.007826086956522 0.06666666666666667 0  1.024347826086957 0.06666666666666667 0  1.040869565217391 0.06666666666666667 0  1.057391304347826 0.06666666666666667 0  1.073913043478261 0.06666666666666667 0  0.7599999999999999 0.08333333333333333 0  0.7765217391304348 0.08333333333333333 0  0.7930434782608695 0.08333333333333333 0  0.8095652173913043 0.08333333333333333 0  0.8260869565217391 0.08333333333333333 0  0.8426086956521739 0.08333333333333333 0  0.8591304347826086 0.08333333333333333 0  0.8756521739130434 0.08333333333333333 0  0.8921739130434783 0.08333333333333333 0  0.908695652173913 0.08333333333333333 0  0.9252173913043478 0.08333333333333333 0  0.9417391304347826 0.08333333333333333 0  0.9582608695652173 0.08333333333333333 0  0.9747826086956521 0.08333333333333333 0  0.991304347826087 0.08333333333333333 0  1.007826086956522 0.08333333333333333 0  1.024347826086957 0.08333333333333333 0  1.040869565217391 0.08333333333333333 0  1.057391304347826 0.08333333333333333 0  1.073913043478261 0.08333333333333333 0  1.090434782608696 0.08333333333333333 0  0.7765217391304348 0.1 0  0.7930434782608695 0.1 0  0.8095652173913043 0.1 0  0.8260869565217391 0.1 0  0.8426086956521739 0.1 0  0.8591304347826086 0.1 0  0.8756521739130434 0.1 0  0.8921739130434783 0.1 0  0.908695652173913 0.1 0  0.9252173913043478 0.1 0  0.9417391304347826 0.1 0  0.9582608695652173 0.1 0  0.9747826086956521 0.1 0  0.991304347826087 0.1 0  1.007826086956522 0.1 0  1.024347826086957 0.1 0  1.040869565217391 0.1 0  1.057391304347826 0.1 0  1.073913043478261 0.1 0  1.090434782608696 0.1 0  1.10695652173913 0.1 0  0.7930434782608695 0.1166666666666667 0  0.8095652173913043 0.1166666666666667 0  0.8260869565217391 0.1166666666666667 0  0.8426086956521739 0.1166666666666667 0  0.8591304347826086 0.1166666666666667 0  0.8756521739130434 0.1166666666666667 0  0.8921739130434783 0.1166666666666667 0  0.908695652173913 0.1166666666666667 0  0.9252173913043478 0.1166666666666667 0  0.9417391304347826 0.1166666666666667 0  0.9582608695652173 0.1166666666666667 0  0.9747826086956521 0.1166666666666667 0  0.991304347826087 0.1166666666666667 0  1.007826086956522 0.1166666666666667 0  1.024347826086957 0.1166666666666667 0  1.040869565217391 0.1166666666666667 0  1.057391304347826 0.1166666666666667 0  1.073913043478261 0.1166666666666667 0  1.090434782608696 0.1166666666666667 0  1.10695652173913 0.1166666666666667 0  1.123478260869565 0.1166666666666667 0  0.8095652173913043 0.1333333333333333 0  0.8260869565217391 0.1333333333333333 0  0.8426086956521739 0.1333333333333333 0  0.8591304347826086 0.1333333333333333 0  0.8756521739130434 0.1333333333333333 0  0.8921739130434783 0.1333333333333333 0  0.908695652173913 0.1333333333333333 0  0.9252173913043478 0.1333333333333333 0  0.9417391304347826 0.1333333333333333 0  0.9582608695652173 0.1333333333333333 0  0.9747826086956521 0.1333333333333333 0  0.991304347826087 0.1333333333333333 0  1.007826086956522 0.1333333333333333 0  1.024347826086957 0.1333333333333333 0  1.040869565217391 0.1333333333333333 0  1.057391304347826 0.1333333333333333 0  1.073913043478261 0.1333333333333333 0  1.090434782608696 0.1333333333333333 0  1.10695652173913 0.1333333333333333 0  1.123478260869565 0.1333333333333333 0  1.14 0.1333333333333333 0  0.8260869565217391 0.15 0  0.8426086956521739 0.15 0  0.8591304347826086 0.15 0  0.8756521739130434 0.15 0  0.8921739130434783 0.15 0  0.908695652173913 0.15 0  0.9252173913043478 0.15 0  0.9417391304347826 0.15 0  0.9582608695652173 0.15 0  0.9747826086956521 0.15 0  0.991304347826087 0.15 0  1.007826086956522 0.15 0  1.024347826086957 0.15 0  1.040869565217391 0.15 0  1.057391304347826 0.15 0  1.073913043478261 0.15 0  1.090434782608696 0.15 0  1.10695652173913 0.15 0  1.123478260869565 0.15 0  1.14 0.15 0  1.156521739130435 0.15 0  0.8426086956521739 0.1666666666666667 0  0.8591304347826086 0.1666666666666667 0  0.8756521739130434 0.1666666666666667 0  0.8921739130434783 0.1666666666666667 0  0.908695652173913 0.1666666666666667 0  0.9252173913043478 0.1666666666666667 0  0.9417391304347826 0.1666666666666667 0  0.9582608695652173 0.1666666666666667 0  0.9747826086956521 0.1666666666666667 0  0.991304347826087 0.1666666666666667 0  1.007826086956522 0.1666666666666667 0  1.024347826086957 0.1666666666666667 0  1.040869565217391 0.1666666666666667 0  1.057391304347826 0.1666666666666667 0  1.073913043478261 0.1666666666666667 0  1.090434782608696 0.1666666666666667 0  1.10695652173913 0.1666666666666667 0  1.123478260869565 0.1666666666666667 0  1.14 0.1666666666666667 0  1.156521739130435 0.1666666666666667 0  1.17304347826087 0.1666666666666667 0  0.8591304347826086 0.1833333333333333 0  0.8756521739130434 0.1833333333333333 0  0.8921739130434783 0.1833333333333333 0  0.908695652173913 0.1833333333333333 0  0.9252173913043478 0.1833333333333333 0  0.9417391304347826 0.1833333333333333 0  0.9582608695652173 0.1833333333333333 0  0.9747826086956521 0.1833333333333333 0  0.991304347826087 0.1833333333333333 0  1.007826086956522 0.1833333333333333 0  1.024347826086957 0.1833333333333333 0  1.040869565217391 0.1833333333333333 0  1.057391304347826 0.1833333333333333 0  1.073913043478261 0.1833333333333333 0  1.090434782608696 0.1833333333333333 0  1.10695652173913 0.1833333333333333 0  1.123478260869565 0.1833333333333333 0  1.14 0.1833333333333333 0  1.156521739130435 0.1833333333333333 0  1.17304347826087 0.1833333333333333 0  1.189565217391304 0.1833333333333333 0  0.8756521739130434 0.2 0  0.8921739130434783 0.2 0  0.908695652173913 0.2 0  0.9252173913043478 0.2 0  0.9417391304347826 0.2 0  0.9582608695652173 0.2 0  0.9747826086956521 0.2 0  0.991304347826087 0.2 0  1.007826086956522 0.2 0  1.024347826086957 0.2 0  1.040869565217391 0.2 0  1.057391304347826 0.2 0  1.073913043478261 0.2 0  1.090434782608696 0.2 0  1.10695652173913 0.2 0  1.123478260869565 0.2 0  1.14 0.2 0  1.156521739130435 0.2 0  1.17304347826087 0.2 0  1.189565217391304 0.2 0  1.206086956521739 0.2 0  0.8921739130434783 0.2166666666666667 0  0.908695652173913 0.2166666666666667 0  0.9252173913043478 0.2166666666666667 0  0.9417391304347826 0.2166666666666667 0  0.9582608695652173 0.2166666666666667 0  0.9747826086956521 0.2166666666666667 0  0.991304347826087 0.2166666666666667 0  1.007826086956522 0.2166666666666667 0  1.02434782608
[...]
<PointData  Vectors="Displacement"> 
<DataArray  type="Float64"  Name="Displacement"  NumberOfComponents="3" format="ascii">1.0481357909155359e-04 9.4606182586028727e-04 0.0000000000000000e+00  1.0646877195866662e-04 9.6188189762808703e-04 0.0000000000000000e+00  9.0516487520653254e-05 9.6126102863132196e-04 0.0000000000000000e+00  8.7984577040198505e-05 9.4544828150106789e-04 0.0000000000000000e+00  1.0831165000013563e-04 9.7715862234842529e-04 0.0000000000000000e+00  9.2750635954063992e-05 9.7652020871724957e-04 0.0000000000000000e+00  1.1029353076268108e-04 9.9234993500347960e-04 0.0000000000000000e+00  9.4781265656056844e-05 9.9169378456922998e-04 0.0000000000000000e+00  1.1235393846346333e-04 1.0076889673648346e-03 0.0000000000000000e+00  9.6716882640266621e-05 1.0070267424411249e-03 0.0000000000000000e+00  1.1445028870302567e-04 1.0232468832472557e-03 0.0000000000000000e+00  9.8613584130966442e-05 1.0225831381260988e-03 0.0000000000000000e+00  1.1656181766724164e-04 1.0390422582395981e-03 0.0000000000000000e+00  1.0049518845356602e-04 1.0383780044431500e-03 0.0000000000000000e+00  1.1868004115238476e-04 1.0550811705528572e-03 0.0000000000000000e+00  1.0237106063682397e-04 1.0544166107445204e-03 0.0000000000000000e+00  1.2080173120553300e-04 1.0713666585686311e-03 0.0000000000000000e+00  1.0424472533706442e-04 1.0707018405949524e-03 0.0000000000000000e+00  1.2292569079690971e-04 1.0879008879338488e-03 0.0000000000000000e+00  1.0611748223735499e-04 1.0872358242561908e-03 0.0000000000000000e+00  1.2505147800057209e-04 1.1046857431838181e-03 0.0000000000000000e+00  1.0798980843107129e-04 1.1040204338823864e-03 0.0000000000000000e+00  1.2717892235690240e-04 1.1217230030664564e-03 0.0000000000000000e+00  1.0986189086891394e-04 1.1210574465206817e-03 0.0000000000000000e+00  1.2930794695920877e-04 1.1390143715484817e-03 0.0000000000000000e+00  1.1173381823109611e-04 1.1383485683195927e-03 0.0000000000000000e+00  1.3143850852225908e-04 1.1565614815912840e-03 0.0000000000000000e+00  1.1360564128663971e-04 1.1558954333954884e-03 0.0000000000000000e+00  1.3357057896748272e-04 1.1743659089110136e-03 0.0000000000000000e+00  1.1547739134473562e-04 1.1736996172238439e-03 0.0000000000000000e+00  1.3570413886044116e-04 1.1924291893411702e-03 0.0000000000000000e+00  1.1734908841722647e-04 1.1917626549676123e-03 0.0000000000000000e+00  1.3783917380152418e-04 1.2107528311400685e-03 0.0000000000000000e+00  1.1922074650748380e-04 1.2100860542749363e-03 0.0000000000000000e+00  1.3997567196987016e-04 1.2293383209516263e-03 0.0000000000000000e+00  1.2109237720946234e-04 1.2286713013173298e-03 0.0000000000000000e+00  1.4211362250814605e-04 1.2481871252819474e-03 0.0000000000000000e+00  1.2296399198087257e-04 1.2475198622260374e-03 0.0000000000000000e+00  1.4425301458329462e-04 1.2673006894518282e-03 0.0000000000000000e+00  1.2483560346341439e-04 1.2666331819013853e-03 0.0000000000000000e+00  7.5455375325982752e-05 9.6048856541867543e-04 0.0000000000000000e+00  7.1696110591616986e-05 9.4447892962732304e-04 0.0000000000000000e+00  7.7843920102178184e-05 9.7587904355177907e-04 0.0000000000000000e+00  7.9561009827421936e-05 9.9106759834640843e-04 0.0000000000000000e+00  8.1191421598196786e-05 1.0064202215556454e-03 0.0000000000000000e+00  8.2818259703046590e-05 1.0219906535952408e-03 0.0000000000000000e+00  8.4444048047077283e-05 1.0377921068534834e-03 0.0000000000000000e+00  8.6068117542033551e-05 1.0538335179055940e-03 0.0000000000000000e+00  8.7690294696472475e-05 1.0701200119970489e-03 0.0000000000000000e+00  8.9310579865730313e-05 1.0866546842965123e-03 0.0000000000000000e+00  9.0928954307212118e-05 1.1034397602509682e-03 0.0000000000000000e+00  9.2545439152605613e-05 1.1204771381657973e-03 0.0000000000000000e+00  9.4160127593860424e-05 1.1377685756674997e-03 0.0000000000000000e+00  9.5773121616676710e-05 1.1553157315709801e-03 0.0000000000000000e+00  9.7384493365244330e-05 1.1731201920333666e-03 0.0000000000000000e+00  9.8994288686755065e-05 1.1911834965743166e-03 0.0000000000000000e+00  1.0060254016180399e-04 1.2095071544073618e-03 0.0000000000000000e+00  1.0220927663805938e-04 1.2280926518623211e-03 0.0000000000000000e+00  1.0381452842227280e-04 1.2469414544077511e-03 0.0000000000000000e+00  1.0541832994391324e-04 1.2660550058720701e-03 0.0000000000000000e+00  1.0702072049017230e-04 1.2854347259570647e-03 0.0000000000000000e+00  5.8148040316653261e-05 9.5007719918173905e-04 0.0000000000000000e+00  6.1928261075415661e-05 9.6613581591845001e-04 0.0000000000000000e+00  6.4973443862152941e-05 9.8199919253784971e-04 0.0000000000000000e+00  6.7427486327126224e-05 9.9821193619463108e-04 0.0000000000000000e+00  6.9376426001219402e-05 1.0157569027318127e-03 0.0000000000000000e+00  7.0649078431460349e-05 1.0342871374791392e-03 0.0000000000000000e+00  7.1397438247657017e-05 1.0518638311917171e-03 0.0000000000000000e+00  7.2280334359345609e-05 1.0687611557015026e-03 0.0000000000000000e+00  7.3386887987425322e-05 1.0855734291000216e-03 0.0000000000000000e+00  7.4587053819928124e-05 1.1025283327456791e-03 0.0000000000000000e+00  7.5826900637554649e-05 1.1196793109940018e-03 0.0000000000000000e+00  7.7104301124942566e-05 1.1370408840202469e-03 0.0000000000000000e+00  7.8411773064478906e-05 1.1546304290643438e-03 0.0000000000000000e+00  7.9736140585705468e-05 1.1724624660067599e-03 0.0000000000000000e+00  8.1068308331943165e-05 1.1905455489878048e-03 0.0000000000000000e+00  8.2404190115149825e-05 1.2088843668538790e-03 0.0000000000000000e+00  8.3742766533427239e-05 1.2274818069667875e-03 0.0000000000000000e+00  8.5084714172791977e-05 1.2463400038366297e-03 0.0000000000000000e+00  8.6431801773629910e-05 1.2654607964683871e-03 0.0000000000000000e+00  8.7786859742575908e-05 1.2848459090901386e-03 0.0000000000000000e+00  8.9154649034960793e-05 1.3044969547721769e-03 0.0000000000000000e+00  4.7079169101646397e-05 9.5569215497686431e-04 0.0000000000000000e+00  5.1019346286959991e-05 9.7205218279924845e-04 0.0000000000000000e+00  5.4402331186327534e-05 9.8875109609353911e-04 0.0000000000000000e+00  5.7324980150881629e-05 1.0062744176038052e-03 0.0000000000000000e+00  6.0002936350222455e-05 1.0244206796495015e-03 0.0000000000000000e+00  6.2558068776899885e-05 1.0421954257730213e-03 0.0000000000000000e+00  6.4930183271305186e-05 1.0594850421153928e-03 0.0000000000000000e+00  6.7162395552467386e-05 1.0766772004523017e-03 0.0000000000000000e+00  6.9304755570183323e-05 1.0940052798333317e-03 0.0000000000000000e+00  7.1380900180466637e-05 1.1115361835848906e-03 0.0000000000000000e+00  7.3403388512567876e-05 1.1292892392514315e-03 0.0000000000000000e+00  7.5379142632159743e-05 1.1472820164796938e-03 0.0000000000000000e+00  7.7312161961966267e-05 1.1655282689478166e-03 0.0000000000000000e+00  7.9205583300779881e-05 1.1840356348665163e-03 0.0000000000000000e+00  8.1062779005812186e-05 1.2028080306591275e-03 0.0000000000000000e+00  8.2887746035508538e-05 1.2218476327947724e-03 0.0000000000000000e+00  8.4685384657952442e-05 1.2411556519173930e-03 0.0000000000000000e+00  8.6462035089635990e-05 1.2607324826940129e-03 0.0000000000000000e+00  8.8226502905722063e-05 1.2805775266125834e-03 0.0000000000000000e+00  8.9991868699742334e-05 1.3006886921007627e-03 0.0000000000000000e+00  9.1778526112348499e-05 1.3210615242901344e-03 0.0000000000000000e+00  3.7995323759021848e-05 9.6138753027329464e-04 0.0000000000000000e+00  4.2278441882492122e-05 9.7835133866775131e-04 0.0000000000000000e+00  4.6233512234537883e-05 9.9588495773002771e-04 0.0000000000000000e+00  5.0008653455026173e-05 1.0138364529005349e-03 0.0000000000000000e+00  5.3676006984121552e-05 1.0317167574129169e-03 0.0000000000000000e+00  5.7150104519346906e-05 1.0494062188361286e-03 0.0000000000000000e+00  6.0385322268768595e-05 1.0670599283331577e-03 0.0000000000000000e+00  6.3413574193740404e-05 1.0848326200193653e-03 0.0000000000000000e+00  6.6278098943147246e-05 1.1027993657461159e-03 0.0000000000000000e+00  6.9008512633965660e-05 1.1209912685994565e-03 0.0000000000000000e+00  7.1624333962044397e-05 1.1394274513400887e-03 0.0000000000000000e+00  7.4140476109051061e-05 1.1581214058478614e-03 0.0000000000000000e+00  7.6569051920522899e-05 1.1770814710074643e-03 0.0000000000000000e+00  7.8920100417780343e-05 1.1963123339313120e-03 0.0000000000000000e+00  8.1202444001421972e-05 1.2158164088513182e-03 0.0000000000000000e+00  8.3424635485762028e-05 1.2355944277512793e-03 0.0000000000000000e+00  8.5595980690249029e-05 1.2556454619292400e-03 0.0000000000000000e+00  8.7727722446696401e-05 1.2759666028615019e-03 0.0000000000000000e+00  8.9834445022225716e-05 1.2965523705556652e-03 0.0000000000000000e+00  9.1935642955981363e-05 1.3173938940462602e-03 0.0000000000000000e+00  9.4057126185243241e-05 1.3384779742173665e-03 0.0000000000000000e+00  3.0872294948046908e-05 9.6715775286230479e-04 0.0000000000000000e+00  3.5714794502560520e-05 9.8470489037159382e-04 0.0000000000000000e+00  4.0389893798538202e-05 1.0026199363861790e-03 0.0000000000000000e+00  4.4917504906804961e-05 1.0206469681587488e-03 0.0000000000000000e+00  4.9235693995494839e-05 1.0386937844322867e-03 0.0000000000000000e+00  5.3294292368391814e-05 1.0568065512599457e-03 0.0000000000000000e+00  5.7095072457052620e-05 1.0750591721212222e-03 0.0000000000000000e+00  6.0667646622094316e-05 1.0935048270367899e-03 0.0000000000000000e+00  6.4043610521160452e-05 1.1121747879893899e-03 0.0000000000000000e+00  6.7249099193033893e-05 1.1310891035015936e-03 0.0000000000000000e+00  7.0305519586021125e-05 1.1502617246016043e-03 0.0000000000000000e+00  7.3230526075065741e-05 1.1697022020056890e-03 0.0000000000000000e+00  7.6038587197055742e-05 1.1894166982715441e-03 0.0000000000000000e+00  7.8741761668421433e-05 1.2094086667605848e-03 0.0000000000000000e+00  8.1350690380258507e-05 1.2296791254563615e-03 0.0000000000000000e+00  8.3875638478295196e-05 1.2502266081649575e-03 0.0000000000000000e+00  8.6327476432508993e-05 1.2710469252037759e-03 0.0000000000000000e+00  8.8718478431751898e-05 1.2921328473129404e-03 0.0000000000000000e+00  9.1062708514158736e-05 1.3134738819876363e-03 0.0000000000000000e+00  9.3375569796981211e-05 1.3350564990071536e-03 0.0000000000000000e+00  9.5671823560232190e-05 1.3568656592151719e-03 0.0000000000000000e+00  2.5632304291616889e-05 9.7285070696245357e-04 0.0000000000000000e+00  3.1055835101179824e-05 9.9082442464144111e-04 0.0000000000000000e+00  3.6295867620777202e-05 1.0090510227690531e-03 0.0000000000000000e+00  4.1302355275537442e-05 1.0274497825879425e-03 0.0000000000000000e+00  4.6034630146806595e-05 1.0460116716611322e-03 0.0000000000000000e+00  5.0484305498166315e-05 1.0647558530638218e-03 0.0000000000000000e+00  5.4667900150879999e-05 1.0837058350392193e-03 0.0000000000000000e+00  5.8611799808965827e-05 1.1028821933502220e-03 0.0000000000000000e+00  6.2342857280681604e-05 1.1223019842358506e-03 0.0000000000000000e+00  6.5885031801153721e-05 1.1419790784033615e-03 0.0000000000000000e+00  6.9258536021421185e-05 1.1619243898232611e-03 0.0000000000000000e+00  7.2479868836418509e-05 1.1821459517531163e-03 0.0000000000000000e+00  7.5562362867827602e-05 1.2026488664574958e-03 0.0000000000000000e+00  7.8517029855834297e-05 1.2234351874971477e-03 0.0000000000000000e+00  8.1353468867067003e-05 1.2445037909126152e-03 0.0000000000000000e+00  8.4080633481604285e-05 1.2658502996660756e-03 0.0000000000000000e+00  8.6707272915703500e-05 1.2874671611688760e-03 0.0000000000000000e+00  8.9241840031626272e-05 1.3093440695998862e-03 0.0000000000000000e+00  9.1691627000059145e-05 1.3314691017362211e-03 0.0000000000000000e+00  9.4060928493274864e-05 1.3538312518665916e-03 0.0000000000000000e+00  9.6348344467794614e-05 1.3764254898764648e-03 0.0000000000000000e+00  2.1971819581947875e-05 9.7848973361998174e-04 0.0000000000000000e+00  2.7813894865802989e-05 9.9696464307887523e-04 0.0000000000000000e+00  3.3395147798171286e-05 1.0157328973997178e-03 0.0000000000000000e+00  3.8683165136633421e-05 1.0347486784582701e-03 0.0000000000000000e+00  4.3669508161010258e-05 1.0539928051995762e-03 0.0000000000000000e+00  4.8365660809216464e-05 1.0734622659334698e-03 0.0000000000000000e+00  5.2793908157519659e-05 1.0931636250613860e-03 0.0000000000000000e+00  5.6979599098382683e-05 1.1131083619485514e-03 0.0000000000000000e+00  6.0946627383589086e-05 1.1333094813784424e-03 0.0000000000000000e+00  6.4715415296076655e-05 1.1537793219038523e-03 0.0000000000000000e+00  6.8302405264716450e-05 1.1745281439192452e-03 0.0000000000000000e+00  7.1720389796257674e-05 1.1955631926037140e-03 0.0000000000000000e+00  7.4979243775991487e-05 1.2168881331614846e-03 0.0000000000000000e+00  7.8086745930524784e-05 1.2385028170210409e-03 0.0000000000000000e+00  8.1049255559592900e-05 1.2604033611332136e-03 0.0000000000000000e+00  8.3872068278482287e-05 1.2825825747141729e-03 0.0000000000000000e+00  8.6559319570784029e-05 1.3050308575272389e-03 0.0000000000000000e+00  8.9113368989291675e-05 1.3277378120457623e-03 0.0000000000000000e+00  9.1533744372798839e-05 1.3506949362493761e-03 0.0000000000000000e+00  9.3816054444463814e-05 1.3738997676626024e-03 0.0000000000000000e+00  9.5951866472484599e-05 1.3973612789507930e-03 0.0000000000000000e+00  1.9472719915846188e-05 9.8441501545965568e-04 0.0000000000000000e+00  2.5534898911761917e-05 1.0035856446215404e-03 0.0000000000000000e+00  3.1279659016969288e-05 1.0230746785477769e-03 0.0000000000000000e+00  3.6703540526683699e-05 1.0428321396305262e-03 0.0000000000000000e+00  4.1819449881869443e-05 1.0628330462729915e-03 0.0000000000000000e+00  4.6649213381562914e-05 1.0830713931920680e-03 0.0000000000000000e+00  5.1217226086578889e-05 1.1035534184359295e-03 0.0000000000000000e+00  5.5546275774733080e-05 1.1242916116482257e-03 0.0000000000000000e+00  5.9655422004056480e-05 1.1453002418291094e-03 0.0000000000000000e+00  6.3559396216226352e-05 1.1665923221081066e-03 0.0000000000000000e+00  6.7268931412197824e-05 1.1881776993298778e-03 0.0000000000000000e+00  7.0791532912445760e-05 1.2100620203626278e-03 0.0000000000000000e+00  7.4132341077096038e-05 1.2322463885121200e-03 0.0000000000000000e+00  7.7294855413347018e-05 1.2547275727352635e-03 0.0000000000000000e+00  8.0281380853326401e-05 1.2774987015488353e-03 0.0000000000000000e+00  8.3093135264024928e-05 1.3005504564691812e-03 0.0000000000000000e+00  8.5730049423598725e-05 1.3238728481930479e-03 0.0000000000000000e+00  8.8190432390028344e-05 1.3474576652200152e-03 0.0000000000000000e+00  9.0470894773621820e-05 1.3713015130231287e-03 0.0000000000000000e+00  9.2567180139609104e-05 1.3954087512733609e-03 0.0000000000000000e+00  9.4476590398338177e-05 1.4197922241454323e-03 0.0000000000000000e+00  1.7730106165569579e-05 9.9104493865494691e-04 0.0000000000000000e+00  2.3843355537039800e-05 1.0110392278337270e-03 0.0000000000000000e+00  2.9615293848605794e-05 1.0313297064114006e-03 0.0000000000000000e+00  3.5065171806255804e-05 1.0518737627429255e-03 0.0000000000000000e+00  4.0217895937777646e-05 1.0726566104989226e-03 0.0000000000000000e+00  4.5098370605634276e-05 1.0936820404439818e-03 0.0000000000000000e+00  4.9728147646745052e-05 1.1149639749594531e-03 0.0000000000000000e+00  5.4123940873797672e-05 1.1365199541226974e-03 0.0000000000000000e+00  5.8297480698573538e-05 1.1583666183790863e-03 0.0000000000000000e+00  6.2256181570882754e-05 1.1805169078385098e-03 0.0000000000000000e+00  6.6004163739259917e-05 1.2029786327752961e-03 0.0000000000000000e+00  6.9543299916896082e-05 1.2257540767414835e-03 0.0000000000000000e+00  7.2874091688358261e-05 1.2488403503557860e-03 0.0000000000000000e+00  7.5996287480450939e-05 1.2722303076638654e-03 0.0000000000000000e+00  7.8909236836148959e-05 1.2959139286034909e-03 0.0000000000000000e+00  8.1612055581616096e-05 1.3198801187033029e-03 0.0000000000000000e+00  8.4103772281799834e-05 1.3441188382447178e-03 0.0000000000000000e+00  8.6383734913489835e-05 1.3686232790896867e-03 0.0000000000000000e+00  8.8452616911359521e-05 1.3933913541532797e-03 0.0000000000000000e+00  9.0314200509213348e-05 1.4184250307682886e-03 0.0000000000000000e+00  9.1977470671295535e-05 1.4437255464706152e-03 0.0000000000000000e+00  1.6379352927463699e-05 9.9869023254768033e-04 0.0000000000000000e+00  2.2416559168856583e-05 1.0195386244028334e-03 0.0000000000000000e+00  2.8121222699782091e-05 1.0406371130708535e-03 0.0000000000000000e+00  3.3524211081987568e-05 1.0619677817062631e-03 0.0000000000000000e+00  3.8652206938911741e-05 1.0835367300992085e-03 0.0000000000000000e+00  4.3525514612213419e-05 1.1053627531706087e-03 0.0000000000000000e+00  4.8157710818808077e-05 1.1274689019113906e-03 0.0000000000000000e+00  5.2556412122668209e-05 1.1498767207667423e-03 0.0000000000000000e+00  5.6724614661273337e-05 1.1726027840999150e-03 0.0000000000000000e+00  6.0662177890158621e-05 1.1956570689639135e-03 0.0000000000000000e+00  6.4367173573988938e-05 1.2190426547014248e-03 0.0000000000000000e+00  6.7836971551109683e-05 1.2427563045899447e-03 0.0000000000000000e+00  7.1069041599429190e-05 1.2667896227136087e-03 0.0000000000000000e+00  7.4061516412412569e-05 1.2911306028384388e-03 0.0000000000000000e+00  7.6813607492529274e-05 1.3157654396632561e-03 0.0000000000000000e+00  7.9326008787063205e-05 1.3406804324004077e-03 0.0000000000000000e+00  8.1601451162961516e-05 1.3658636563868389e-03 0.0000000000000000e+00  8.3645536260540954e-05 1.3913057964401395e-03 0.0000000000000000e+00  8.5467789021214643e-05 1.4169992161221869e-03 0.0000000000000000e+00  8.7082453640072193e-05 1.4429343632042194e-03 0.0000000000000000e+00  8.8508083820275265e-05 1.4690937544321971e-03 0.0000000000000000e+00  1.5105422380426340e-05 1.0075122267136950e-03 0.0000000000000000e+00  2.0992192692305385e-05 1.0291739660921028e-03 0.0000000000000000e+00  2.6579689313470420e-05 1.0510503057747124e-03 0.0000000000000000e+00  3.1896924607124928e-05 1.0731562585734975e-03 0.0000000000000000e+00  3.6962533181803737e-05 1.0955201964817692e-03 0.0000000000000000e+00  4.1785998936948236e-05 1.1181736656339816e-03 0.0000000000000000e+00  4.6369695009463354e-05 1.1411446933462213e-03 0.0000000000000000e+00  5.0711163856680085e-05 1.1644540073456292e-03 0.0000000000000000e+00  5.4805221904140646e-05 1.1881135403438222e-03 0.0000000000000000e+00  5.8645675107093254e-05 1.2121264833773032e-03 0.0000000000000000e+00  6.2226616034422445e-05 1.2364882525871764e-03 0.0000000000000000e+00  6.5543372953668063e-05 1.2611879606141822e-03 0.0000000000000000e+00  6.8593211053297843e-05 1.2862101674199161e-03 0.0000000000000000e+00  7.1375887577932565e-05 1.3115367594190941e-03 0.0000000000000000e+00  7.3894157570844699e-05 1.3371487781003693e-03 0.0000000000000000e+00  7.6154304548405933e-05 1.3630279138726173e-03 0.0000000000000000e+00  7.8166699879891424e-05 1.3891572227036975e-03 0.0000000000000000e+00  7.9946233669623279e-05 1.4155205158936123e-03 0.0000000000000000e+00  8.1512219169448393e-05 1.4421000268598954e-03 0.0000000000000000e+00  8.2887197996095127e-05 1.4688726770538093e-03 0.0000000000000000e+00  8.4094294516378108e-05 1.4958062889395558e-03 0.0000000000000000e+00  1.3671928982900759e-05 1.0175339546557695e-03 0.0000000000000000e+00  1.9386506131897573e-05 1.0399460063846384e-03 0.0000000000000000e+00  2.4842853554998776e-05 1.0625745866408120e-03 0.0000000000000000e+00  3.0056869948294037e-05 1.0854633481362582e-03 0.0000000000000000e+00  3.5032649745647814e-05 1.1086557957941600e-03 0.0000000000000000e+00  3.9766075741226955e-05 1.1321881036905983e-03 0.0000000000000000e+00  4.4248232607505842e-05 1.1560854864071082e-03 0.0000000000000000e+00  4.8468214867638273e-05 1.1803613105820317e-03 0.0000000000000000e+00  5.2415197185400290e-05 1.2050178720700037e-03 0.0000000000000000e+00  5.6079882890001393e-05 1.2300479655994543e-03 0.0000000000000000e+00  5.9455526091734168e-05 1.2554367736302291e-03 0.0000000000000000e+00  6.2538692007613122e-05 1.2811638755419517e-03 0.0000000000000000e+00  6.5329865547499665e-05 1.3072052679779015e-03 0.0000000000000000e+