<?xml version="1.0"?>
<VTKFile type="UnstructuredGrid"  version="0.1"  >
<UnstructuredGrid>
<Piece  NumberOfPoints="640" NumberOfCells="1181">
<Points>
<DataArray  type="Float64"  NumberOfComponents="3"  format="ascii">2.973913043478261 0 0  2.990434782608696 0 0  2.990434782608696 0.01666666666666667 0  2.973913043478261 0.01666666666666667 0  3.006956521739131 0 0  3.006956521739131 0.01666666666666667 0  3.023478260869565 0 0  3.023478260869565 0.01666666666666667 0  3.04 0 0  3.04 0.01666666666666667 0  3.056521739130435 0 0  3.056521739130435 0.01666666666666667 0  3.073043478260869 0 0  3.073043478260869 0.01666666666666667 0  3.089565217391304 0 0  3.089565217391304 0.01666666666666667 0  3.106086956521739 0 0  3.106086956521739 0.01666666666666667 0  3.122608695652174 0 0  3.122608695652174 0.01666666666666667 0  3.139130434782609 0 0  3.139130434782609 0.01666666666666667 0  3.155652173913043 0 0  3.155652173913043 0.01666666666666667 0  3.172173913043478 0 0  3.172173913043478 0.01666666666666667 0  3.188695652173913 0 0  3.188695652173913 0.01666666666666667 0  3.205217391304347 0 0  3.205217391304347 0.01666666666666667 0  3.221739130434782 0 0  3.221739130434782 0.01666666666666667 0  3.238260869565217 0 0  3.238260869565217 0.01666666666666667 0  2.990434782608696 0.03333333333333333 0  2.973913043478261 0.03333333333333333 0  3.006956521739131 0.03333333333333333 0  3.023478260869565 0.03333333333333333 0  3.04 0.03333333333333333 0  3.056521739130435 0.03333333333333333 0  3.073043478260869 0.03333333333333333 0  3.089565217391304 0.03333333333333333 0  3.106086956521739 0.03333333333333333 0  3.122608695652174 0.03333333333333333 0  3.139130434782609 0.03333333333333333 0  3.155652173913043 0.03333333333333333 0  3.172173913043478 0.03333333333333333 0  3.188695652173913 0.03333333333333333 0  3.205217391304347 0.03333333333333333 0  3.221739130434782 0.03333333333333333 0  3.238260869565217 0.03333333333333333 0  3.254782608695652 0.03333333333333333 0  2.990434782608696 0.05 0  3.006956521739131 0.05 0  3.023478260869565 0.05 0  3.04 0.05 0  3.056521739130435 0.05 0  3.073043478260869 0.05 0  3.089565217391304 0.05 0  3.106086956521739 0.05 0  3.122608695652174 0.05 0  3.139130434782609 0.05 0  3.155652173913043 0.05 0  3.172173913043478 0.05 0  3.188695652173913 0.05 0  3.205217391304347 0.05 0  3.221739130434782 0.05 0  3.238260869565217 0.05 0  3.254782608695652 0.05 0  3.271304347826087 0.05 0  3.006956521739131 0.06666666666666667 0  2.990434782608696 0.06666666666666667 0  3.023478260869565 0.06666666666666667 0  3.04 0.06666666666666667 0  3.056521739130435 0.06666666666666667 0  3.073043478260869 0.06666666666666667 0  3.089565217391304 0.06666666666666667 0  3.106086956521739 0.06666666666666667 0  3.122608695652174 0.06666666666666667 0  3.139130434782609 0.06666666666666667 0  3.155652173913043 0.06666666666666667 0  3.172173913043478 0.06666666666666667 0  3.188695652173913 0.06666666666666667 0  3.205217391304347 0.06666666666666667 0  3.221739130434782 0.06666666666666667 0  3.238260869565217 0.06666666666666667 0  3.254782608695652 0.06666666666666667 0  3.271304347826087 0.06666666666666667 0  3.287826086956521 0.06666666666666667 0  3.006956521739131 0.08333333333333333 0  3.023478260869565 0.08333333333333333 0  3.04 0.08333333333333333 0  3.056521739130435 0.08333333333333333 0  3.073043478260869 0.08333333333333333 0  3.089565217391304 0.08333333333333333 0  3.106086956521739 0.08333333333333333 0  3.122608695652174 0.08333333333333333 0  3.139130434782609 0.08333333333333333 0  3.155652173913043 0.08333333333333333 0  3.172173913043478 0.08333333333333333 0  3.188695652173913 0.08333333333333333 0  3.205217391304347 0.08333333333333333 0  3.221739130434782 0.08333333333333333 0  3.238260869565217 0.08333333333333333 0  3.254782608695652 0.08333333333333333 0  3.271304347826087 0.08333333333333333 0  3.287826086956521 0.08333333333333333 0  3.304347826086957 0.08333333333333333 0  3.023478260869565 0.1 0  3.006956521739131 0.1 0  3.04 0.1 0  3.056521739130435 0.1 0  3.073043478260869 0.1 0  3.089565217391304 0.1 0  3.106086956521739 0.1 0  3.122608695652174 0.1 0  3.139130434782609 0.1 0  3.155652173913043 0.1 0  3.172173913043478 0.1 0  3.188695652173913 0.1 0  3.205217391304347 0.1 0  3.221739130434782 0.1 0  3.238260869565217 0.1 0  3.254782608695652 0.1 0  3.271304347826087 0.1 0  3.287826086956521 0.1 0  3.304347826086957 0.1 0  3.320869565217391 0.1 0  3.023478260869565 0.1166666666666667 0  3.04 0.1166666666666667 0  3.056521739130435 0.1166666666666667 0  3.073043478260869 0.1166666666666667 0  3.089565217391304 0.1166666666666667 0  3.106086956521739 0.1166666666666667 0  3.122608695652174 0.1166666666666667 0  3.139130434782609 0.1166666666666667 0  3.155652173913043 0.1166666666666667 0  3.172173913043478 0.1166666666666667 0  3.188695652173913 0.1166666666666667 0  3.205217391304347 0.1166666666666667 0  3.221739130434782 0.1166666666666667 0  3.238260869565217 0.1166666666666667 0  3.254782608695652 0.1166666666666667 0  3.271304347826087 0.1166666666666667 0  3.287826086956521 0.1166666666666667 0  3.304347826086957 0.1166666666666667 0  3.320869565217391 0.1166666666666667 0  3.337391304347826 0.1166666666666667 0  3.04 0.1333333333333333 0  3.023478260869565 0.1333333333333333 0  3.056521739130435 0.1333333333333333 0  3.073043478260869 0.1333333333333333 0  3.089565217391304 0.1333333333333333 0  3.106086956521739 0.1333333333333333 0  3.122608695652174 0.1333333333333333 0  3.139130434782609 0.1333333333333333 0  3.155652173913043 0.1333333333333333 0  3.172173913043478 0.1333333333333333 0  3.188695652173913 0.1333333333333333 0  3.205217391304347 0.1333333333333333 0  3.221739130434782 0.1333333333333333 0  3.238260869565217 0.1333333333333333 0  3.254782608695652 0.1333333333333333 0  3.271304347826087 0.1333333333333333 0  3.287826086956521 0.1333333333333333 0  3.304347826086957 0.1333333333333333 0  3.320869565217391 0.1333333333333333 0  3.337391304347826 0.1333333333333333 0  3.353913043478261 0.1333333333333333 0  3.04 0.15 0  3.056521739130435 0.15 0  3.073043478260869 0.15 0  3.089565217391304 0.15 0  3.106086956521739 0.15 0  3.122608695652174 0.15 0  3.139130434782609 0.15 0  3.155652173913043 0.15 0  3.172173913043478 0.15 0  3.188695652173913 0.15 0  3.205217391304347 0.15 0  3.221739130434782 0.15 0  3.238260869565217 0.15 0  3.254782608695652 0.15 0  3.271304347826087 0.15 0  3.287826086956521 0.15 0  3.304347826086957 0.15 0  3.320869565217391 0.15 0  3.337391304347826 0.15 0  3.353913043478261 0.15 0  3.370434782608696 0.15 0  3.056521739130435 0.1666666666666667 0  3.073043478260869 0.1666666666666667 0  3.089565217391304 0.1666666666666667 0  3.106086956521739 0.1666666666666667 0  3.122608695652174 0.1666666666666667 0  3.139130434782609 0.1666666666666667 0  3.155652173913043 0.1666666666666667 0  3.172173913043478 0.1666666666666667 0  3.188695652173913 0.1666666666666667 0  3.205217391304347 0.1666666666666667 0  3.221739130434782 0.1666666666666667 0  3.238260869565217 0.1666666666666667 0  3.254782608695652 0.1666666666666667 0  3.271304347826087 0.1666666666666667 0  3.287826086956521 0.1666666666666667 0  3.304347826086957 0.1666666666666667 0  3.320869565217391 0.1666666666666667 0  3.337391304347826 0.1666666666666667 0  3.353913043478261 0.1666666666666667 0  3.370434782608696 0.1666666666666667 0  3.386956521739131 0.1666666666666667 0  3.073043478260869 0.1833333333333333 0  3.089565217391304 0.1833333333333333 0  3.106086956521739 0.1833333333333333 0  3.122608695652174 0.1833333333333333 0  3.139130434782609 0.1833333333333333 0  3.155652173913043 0.1833333333333333 0  3.172173913043478 0.1833333333333333 0  3.188695652173913 0.1833333333333333 0  3.205217391304347 0.1833333333333333 0  3.221739130434782 0.1833333333333333 0  3.238260869565217 0.1833333333333333 0  3.254782608695652 0.1833333333333333 0  3.271304347826087 0.1833333333333333 0  3.287826086956521 0.1833333333333333 0  3.304347826086957 0.1833333333333333 0  3.320869565217391 0.1833333333333333 0  3.337391304347826 0.1833333333333333 0  3.353913043478261 0.1833333333333333 0  3.370434782608696 0.1833333333333333 0  3.386956521739131 0.1833333333333333 0  3.403478260869565 0.1833333333333333 0  3.089565217391304 0.2 0  3.106086956521739 0.2 0  3.122608695652174 0.2 0  3.139130434782609 0.2 0  3.155652173913043 0.2 0  3.172173913043478 0.2 0  3.188695652173913 0.2 0  3.205217391304347 0.2 0  3.221739130434782 0.2 0  3.238260869565217 0.2 0  3.254782608695652 0.2 0  3.271304347826087 0.2 0  3.287826086956521 0.2 0  3.304347826086957 0.2 0  3.320869565217391 0.2 0  3.337391304347826 0.2 0  3.353913043478261 0.2 0  3.370434782608696 0.2 0  3.386956521739131 0.2 0  3.403478260869565 0.2 0  3.419999999999999 0.2 0  3.106086956521739 0.2166666666666667 0  3.122608695652174 0.2166666666666667 0  3.139130434782609 0.2166666666666667 0  3.155652173913043 0.2166666666666667 0  3.172173913043478 0.2166666666666667 0  3.188695652173913 0.2166666666666667 0  3.205217391304347 0.2166666666666667 0  3.221739130434782 0.2166666666666667 0  3.238260869565217 0.2166666666666667 0  3.254782608695652 0.2166666666666667 0  3.271304347826087 0.2166666666666667 0  3.287826086956521 0.2166666666666667 0  3.304347826086957 0.2166666666666667 0  3.320869565217391 0.2166666666666667 0  3.337391304347826 0.2166666666666667 0  3.353913043478261 0.2166666666666667 0  3.370434782608696 0.2166666666666667 0  3.386956521739131 0.2166666666666667 0  3.403478260869565 0.2166666666666667 0  3.419999999999999 0.2166666666666667 0  3.436521739130435 0.2166666666666667 0  3.122608695652174 0.2333333333333333 0  3.139130434782609 0.2333333333333333 0  3.155652173913043 0.2333333333333333 0  3.172173913043478 0.2333333333333333 0  3.188695652173913 0.2333333333333333 0  3.205217391304347 0.2333333333333333 0  3.221739130434782 0.2333333333333333 0  3.238260869565217 0.2333333333333333 0  3.254782
[...]
<CellData  Scalars="sigma_m"> 
<DataArray  type="Float64"  Name="sigma_m"  format="ascii">2.0546881988196303e+06   4.7809927898411443e+06   1.8169011506940620e+06   5.0600771606459068e+06   1.4080191379756497e+06   5.0802957037962163e+06   1.2335776965152686e+06   4.5971240558539107e+06   1.3480813589630672e+06   3.8128255371839623e+06   1.6383788224472576e+06   3.1876211234328197e+06   2.1456315911154551e+06   2.8123800871081422e+06   2.3733943987087477e+06   2.5484313266729848e+06   2.0562602425278043e+06   2.3326630662702248e+06   1.3229773682670696e+06   1.9029879222642644e+06   7.1090415936012776e+05   1.0293280285807659e+06   1.8228993033492416e+00   2.3233554078366637e+03   1.0729067632110691e-08   5.7710458035468518e-06   0.0000000000000000e+00   0.0000000000000000e+00   0.0000000000000000e+00   0.0000000000000000e+00   0.0000000000000000e+00   0.0000000000000000e+00   4.8834441509102667e+06   7.9538207963782577e+06   5.1523215638488419e+06   9.2628060673907790e+06   5.2143424381729253e+06   1.0030572294807874e+07   4.7520933108764496e+06   8.4508839041951355e+06   3.8750178375676190e+06   5.2913095322983004e+06   3.1773436730759395e+06   4.7435650817561913e+06   2.8092610614040252e+06   2.8374437895299741e+06   2.7499022212430169e+06   2.7009653897343609e+06   2.6741152148068887e+06   2.9508618114101933e+06   2.6022978759675459e+06   3.2561542850876404e+06   3.2361051718856073e+06   3.7127697117001107e+06   4.1646859906888312e+03   6.7950103464521971e+06   8.9200475705552193e-05   1.4442596007153716e+01   0.0000000000000000e+00   6.0357158995701386e-06   0.0000000000000000e+00   0.0000000000000000e+00   0.0000000000000000e+00   0.0000000000000000e+00   0.0000000000000000e+00   4.2117759446676318e+03   2.0909013865117522e+03   5.8718970011447724e-01   2.2008330393848337e+03   6.5034338541342651e-01   1.1319262423583297e+04   2.5013520733491186e+00   5.5754897166206921e+05   8.1446226476170253e+01   4.5671918601731602e+06   5.7883139610098835e+04   3.1026493833116735e+06   2.5505923552861996e+06   2.9174401458187113e+06   1.7042996345050584e+06   2.8591725873949281e+06   2.7518696802905314e+06   2.8389217602185649e+06   3.0732622531476277e+06   3.0825918743425123e+06   3.7142160132712065e+06   6.2900145026538437e+06   6.1343757020032154e+06   3.3550525926287384e+06   8.1614770559901008e+06   2.1193842714749870e+01   2.9830529843133553e+06   1.0927356974395172e-04   6.4133524649919934e+01   5.9583551135201279e-10   3.1157032268102302e-04   0.0000000000000000e+00   4.1138022979698865e-10   0.0000000000000000e+00   0.0000000000000000e+00   0.0000000000000000e+00   0.0000000000000000e+00   0.0000000000000000e+00   1.0466650106287277e-09   0.0000000000000000e+00   1.5336945834407275e-06   4.7277058497529546e-10   7.7705944491848283e-02   6.6209508587270609e-06   1.5730524523828647e+05   2.8139554549234568e+01   1.9702217937814291e+06   2.9814467668725932e+06   1.9234623716994380e+06   1.8620776893394028e+06   2.1526293276162855e+06   1.7208961514724828e+06   2.5951850380585073e+06   1.9443533133737680e+06   3.6918023962498656e+06   2.9002183758496945e+06   5.8031716828997014e+06   4.4151423342118487e+06   6.1168643464347059e+06   5.4953175155838002e+06   8.3271703191013793e+06   6.6712780242222305e+06   2.6326574590002070e+05   5.6639421469293656e+06   9.1339255632324937e-02   7.2797452957411087e+05   1.2027672758567585e-08   2.4826203534949504e-01   1.3609523650375542e-08   0.0000000000000000e+00   0.0000000000000000e+00   0.0000000000000000e+00   0.0000000000000000e+00   0.0000000000000000e+00   0.0000000000000000e+00   0.0000000000000000e+00   2.9780229475062466e-06   7.2405982859912448e-08   7.4575442786281417e+02   1.4063775455929656e+01   2.3034039510537004e+06   4.4844283455553893e+06   1.3894533299502854e+06   2.0322106933760147e+06   1.4347169654057424e+06   8.5931353191901627e+05   1.6837205806569550e+06   5.4643872304589080e+05   1.9051602393048201e+06   8.5029211505905422e+05   2.7209727722989195e+06   1.8108608034246156e+06   3.8281110755575201e+06   2.7815313500804701e+06   4.6804589459402179e+06   3.7248208252612152e+06   5.7842768951477949e+06   4.9097919838768747e+06   5.8325087256864188e+06   5.6777183586527668e+06   4.0399472830780307e+06   6.3990190085513284e+06   6.2115328994369934e-01   4.2965349670765409e+06   2.6034579146208991e-01   0.0000000000000000e+00   0.0000000000000000e+00   0.0000000000000000e+00   0.0000000000000000e+00   0.0000000000000000e+00   0.0000000000000000e+00   2.1728162308058455e-03   3.6190916163120201e-04   2.7058985442463955e+05   4.1435483202069881e+05   1.1308125361207158e+06   1.1678172928735334e+06   9.3531887917392293e+05   1.2201884863959213e+06   1.3323124726447435e+06   1.3780072933823569e+06   1.4126763751139988e+06   1.8224634150512833e+06   1.2434676524951605e+06   2.2243278027710738e+06   9.2368796174376365e+05   2.3826109253009241e+06   1.1553867856970322e+06   2.2122852218756112e+06   1.8544902987062165e+06   2.1577302576761316e+06   2.7600555795330256e+06   2.8633406041040490e+06   3.6689863592713703e+06   3.3891690282025076e+06   4.4969406507919189e+06   4.1290416876779096e+06   4.9817793445415394e+06   4.9689082509772889e+06   1.5712184598947207e+06   5.6064877129188152e+06   1.1392675212155625e+06   0.0000000000000000e+00   0.0000000000000000e+00   0.0000000000000000e+00   2.9203721840278195e-05   1.9629800691058952e-05   3.1228609862374185e+04   3.2399522205047124e+04   2.0507144780409711e+06   2.3603633547514393e+06   1.0819109439588627e+06   1.8978421952109116e+06   6.2430832660123380e+05   1.4837857112484025e+06   1.2870278374975708e+06   1.9702470555496484e+06   2.0597048799527099e+06   3.8746009276940865e+06   2.5993180158641939e+06   4.8955080815368854e+06   2.8046953936009430e+06   6.0272283867903138e+06   2.4469043516566763e+06   5.2056484991447702e+06   1.7970047942537705e+06   4.6646478238800978e+06   6.4585634752995172e+05   3.1221943473005113e+06   8.4826015611638478e+05   2.2146153682953715e+06   1.8497909661132128e+06   2.2163075961514763e+06   2.9212034780825051e+06   2.9902501720644701e+06   3.8358047467825850e+06   3.8433539011079161e+06   4.3445347985338047e+06   4.8568140924797226e+06   5.2006322005712884e+06   5.0472025843470986e-05   1.1824933672575540e-04   6.5631673873800828e+04   1.4442308131735280e+05   2.8682334541437607e+06   3.0022357773221065e+06   2.2314554825123595e+06   2.4556993001072239e+06   1.6641573468755968e+06   1.7668765237318196e+06   1.7180447594201658e+06   1.2938571041495409e+06   2.5929960396423447e+06   1.6732245179112719e+06   3.7394422651711591e+06   3.8516228086865130e+06   4.8107658324406052e+05   3.0493002939608591e+03   6.6168770651018131e+04   1.2935647158478393e+01   1.9820625469608952e+06   1.1975096417601073e+02   4.8048341584030706e+06   1.5643676066990776e+05   4.1135366582193729e+06   6.0033892718010694e+06   2.5228568857829026e+06   3.2058530799278789e+06   1.1652813055066303e+06   2.4076198635533093e+06   6.1018810599490744e+05   1.6173493957798269e+06   1.6781068404240946e+06   1.9930715088903499e+06   2.7342455228016144e+06   2.7587597086302200e+06   3.5928524246490337e+06   3.4870220252304850e+06   3.5895754180211639e+06   1.7084056307218536e+06   3.4666200352053097e+06   3.7882896758356853e+06   2.6502266271560076e+06   2.7922502615995896e+06   1.8741910801603179e+06   1.8649893530933368e+06   1.4405230566597439e+06   1.1416168784671067e+06   1.1754690964703383e+06   7.4290062362386647e+05   1.1287819823623744e+06   6.6184263420894917e+05   4.3295280088198196e-01   1.3860068958431634e-01   1.6061886089537350e-07   7.9781186428975486e-09   0.0000000000000000e+00   0.0000000000000000e+00   8.6965216892405340e-09   0.0000000000000000e+00   4.0084840776145413e-05   0.0000000000000000e+00   1.0706798553022939e+01   3.0590517912297820e-06   1.6845415034799525e+06   2.1627345687901447e+00   3.8321798190560760e+06   1.8860119483181175e+06   2.2283539618316665e+06   2.5702521983602792e+06   7.3870691996413795e+05   1.1586421285421648e+06   8.5975859346473799e+05   1.2527229376201797e+06   1.9513760485876312e+06   2.1356168446837617e+06   2.6398326426555039e+06   2.7900917882281053e+06   3.7494625490207239e+06   2.9986995987643111e+06   1.9183819948338347e+06   1.7057514252307543e+06   1.2422253511186072e+06   8.8581138315349654e+05   6.8395628495002585e+05   3.2145715949415258e+05   3.7234896732076991e+05   1.6471861451683493e+05   1.0342458054449197e+00   2.0287666239665487e+00   0.0000000000000000e+00   0.0000000000000000e+00   0.0000000000000000e+00   0.0000000000000000e+00   0.0000000000000000e+00   0.0000000000000000e+00   0.0000000000000000e+00   0.0000000000000000e+00   0.0000000000000000e+00   0.0000000000000000e+00   0.0000000000000000e+00   0.0000000000000000e+00   9.8380207814978376e-09   0.0000000000000000e+00   1.0320207459119859e-01   6.2238006414145420e-09   1.0713252312284880e+06   1.4186962733502556e-01   2.3238870309311263e+06   7.2725036983055819e+05   1.0059489068248201e+06   1.1763264432340823e+06   4.8404082035104866e+05   8.7337789687661233e+05   1.3466482435299840e+06   1.5116922714513452e+06   2.1762070002861386e+06   2.2485342320841835e+06   2.7955795885875123e+06   1.0450592981207130e+06   4.6376514850747230e+05   1.7121119321596139e+05   6.4040799357563909e+05   6.0027523958127003e+05   2.4172832015364961e+02   4.9556405664634542e+02   0.0000000000000000e+00   1.1841065523254629e-09   0.0000000000000000e+00   0.0000000000000000e+00   0.0000000000000000e+00   0.0000000000000000e+00   0.0000000000000000e+00   0.0000000000000000e+00   0.0000000000000000e+00   0.0000000000000000e+00   0.0000000000000000e+00   0.0000000000000000e+00   0.0000000000000000e+00   0.0000000000000000e+00   0.0000000000000000e+00   0.0000000000000000e+00   0.0000000000000000e+00   0.0000000000000000e+00   1.0310900385427515e-08   0.0000000000000000e+00   1.9965022520441014e+00   2.2736419770570324e-08   1.9221101881487134e+06   1.4230288458401498e+01   1.0519587763068718e+06   8.1696373401256499e+05   3.8692231708707585e+05   4.5795055702155590e+05   1.0625419139111028e+06   1.2017466355283153e+06   1.7790828073619127e+06   1.8841778033551835e+06   2.2976628515670607e+06   7.8554446231606812e+05   3.4018197678646343e+03   1.6860501246589304e+03   1.3474894295037410e-08   1.4953918709121018e-08   0.0000000000000000e+00   0.0000000000000000e+00   0.0000000000000000e+00   0.0000000000000000e+00   0.0000000000000000e+00   0.0000000000000000e+00   0.0000000000000000e+00   0.0000000000000000e+00   0.0000000000000000e+00   0.0000000000000000e+00   0.0000000000000000e+00   0.0000000000000000e+00   0.0000000000000000e+00   0.0000000000000000e+00   0.0000000000000000e+00   0.0000000000000000e+00   0.0000000000000000e+00   0.0000000000000000e+00   0.0000000000000000e+00   0.0000000000000000e+00   0.0000000000000000e+00   0.0000000000000000e+00   1.2015110299156401e-05   0.0000000000000000e+00   3.5081689022953156e+04   1.2946208401058069e-04   9.1524506786519964e+05   8.2265766173002450e+05   2.8319099224828172e+05   3.2803790874947188e+05   9.7470094176868454e+05   1.0885847705458722e+06   1.5366578297298662e+06   1.6181975548746143e+06   1.9749586168629730e+06   2.6367569341852242e-09   0.0000000000000000e+00   0.0000000000000000e+00   0.0000000000000000e+00   0.0000000000000000e+00   0.0000000000000000e+00   0.0000000000000000e+00   0.0000000000000000e+00   0.0000000000000000e+00   0.0000000000000000e+00   0.0000000000000000e+00   0.0000000000000000e+00   0.0000000000000000e+00   0.0000000000000000e+00   0.0000000000000000e+00   0.0000000000000000e+00   0.0000000000000000e+00   0.0000000000000000e+00   0.0000000000000000e+00   0.0000000000000000e+00   0.0000000000000000e+00   0.0000000000000000e+00   0.0000000000000000e+00   0.0000000000000000e+00   0.0000000000000000e+00   0.0000000000000000e+00   0.0000000000000000e+00   0.0000000000000000e+00   0.0000000000000000e+00   5.3258532094716404e+00   6.6620058429555419e-09   5.5995992186685035e+05   2.0353729838033544e+02   3.4450230184715369e+05   3.0829180516122462e+05   9.2585998379865650e+05   9.8434438785822038e+05   1.3908826346302817e+06   1.4500652752708779e+06   1.8333605711029568e+06   0.0000000000000000e+00   0.0000000000000000e+00   0.0000000000000000e+00   0.0000000000000000e+00   0.0000000000000000e+00   0.0000000000000000e+00   0.0000000000000000e+00   0.0000000000000000e+00   0.0000000000000000e+00   0.0000000000000000e+00   0.0000000000000000e+00   0.0000000000000000e+00   0.0000000000000000e+00   0.0000000000000000e+00   0.0000000000000000e+00   0.0000000000000000e+00   0.0000000000000000e+00   0.0000000000000000e+00   0.0000000000000000e+00   0.0000000000000000e+00   0.0000000000000000e+00   0.0000000000000000e+00   0.0000000000000000e+00   0.0000000000000000e+00   0.0000000000000000e+00   0.0000000000000000e+00   0.0000000000000000e+00   0.0000000000000000e+00   0.0000000000000000e+00   2.0098023518833577e-03   0.0000000000000000e+00   1.7255663564944436e+05   9.2490088280987065e-02   4.4577624230684747e+05   3.7176667506800214e+05   9.2530828812055511e+05   9.7771409759056848e+05   1.3345936443813809e+06   1.3917148946530980e+06   1.6289074564469038e+06   0.0000000000000000e+00   0.0000000000000000e+00   0.0000000000000000e+00   0.0000000000000000e+00   0.0000000000000000e+00   0.0000000000000000e+00   0.0000000000000000e+00   0.0000000000000000e+00   0.0000000000000000e+00   0.0000000000000000e+00   0.0000000000000000e+00   0.0000000000000000e+00   0.0000000000000000e+00   0.0000000000000000e+00   0.0000000000000000e+00   0.0000000000000000e+00   0.0000000000000000e+00   0.0000000000000000e+00   0.0000000000000000e+00   0.0000000000000000e+00   0.0000000000000000e+00   0.0000000000000000e+00   0.0000000000000000e+00   0.0000000000000000e+00   0.0000000000000000e+00   0.0000000000000000e+00   0.0000000000000000e+00   0.0000000000000000e+00   0.0000000000000000e+00   2.1057513875769884e-06   0.0000000000000000e+00   4.1557485484667613e+03   9.4510705584455393e-05   4.8259938544740161e+05   2.0132640909831223e+05   1.0568702161310762e+06   1.0994912433419325e+06   1.4255140639325141e+06   1.4303545383908360e+06   1.4626907218495084e+06   0.0000000000000000e+00   0.0000000000000000e+00   0.0000000000000000e+00   0.0000000000000000e+00   0.0000000000000000e+00   0.0000000000000000e+00   0.0000000000000000e+00   0.0000000000000000e+00   0.0000000000000000e+00   0.0000000000000000e+00   0.0000000000000000e+00   0.0000000000000000e+00   0.0000000000000000e+00   0.0000000000000000e+00   0.0000000000000000e+00   0.0000000000000000e+00   0.0000000000000000e+00   0.0000000000000000e+00   0.0000000000000000e+00   0.0000000000000000e+00   0.0000000000000000e+00   0.0000000000000000e+00   0.0000000000000000e+00   0.0000000000000000e+00   0.0000000000000000e+00   0.0000000000000000e+00   0.0000000000000000e+00   0.0000000000000000e+00   0.0000000000000000e+00   4.8879627206735077e-09   0.0000000000000000e+00   1.8316711549818774e+02   1.7805501763927964e-07   1.0449248853185489e+06   1.3388152913875992e+04   1.5268048586623124e+06   1.4568098122138442e+06   1.5605570281231138e+06   1.5332947523703303e+06   1.4258241052629566e+06   0.0000000000000000e+00   0.0000000000000000e+00   0.0000000000000000e+00   0.0000000000000000e+00   0.0000000000000000e+00   0.0000000000000000e+00   0.0000000000000000e+00   0.0000000000000000e+00   0.0000000000000000e+00   0.0000000000000000e+00   0.0000000000000000e+00   0.0000000000000000e+00   0.0000000000000000e+00   0.0000000000000000e+00   0.0000000000000000e+00   0.0000000000000000e+00   0.0000000000000000e+00   0.0000000000000000e+00   0.0000000000000000e+00   0.0000000000000000e+00   0.0000000000000000e+00   0.0000000000000000e+00   0.0000000000000000e+00   0.0000000000000000e+00   0.0000000000000000e+00   0.0000000000000000e+00   0.0000000000000000e+00   0.0000000000000000e+00   0.0000000000000000e+00   0.0000000000000000e+00   0.0000000000000000e+00   2.8311800284163158e-01   0.0000000000000000e+00   1.2897752265738081e+06   1.4233107899396984e+01   1.7648294716643156e+06   1.5749192191961743e+06   1.7128820834594618e+06   1.6728794009003495e+06   1.5928489330077588e+06   0.0000000000000000e+00   0.0000000000000000e+00   0.0000000000000000e+00   0.0000000000000000e+00   0.0000000000000000e+00   0.0000000000000000e+00   0.0000000000000000e+00   0.0000000000000000e+00   0.0000000000000000e+00   0.0000000000000000e+00   0.0000000000000000e+00   0.0000000000000000e+00   0.0000000000000000e+00   0.0000000000000000e+00   0.0000000000000000e+00   0.0000000000000000e+00   0.0000000000000000e+00   0.0000000000000000e+00   0.0000000000000000e+00   0.0000000000000000e+00   0.0000000000000000e+00   0.0000000000000000e+00   0.0000000000000000e+00   0.0000000000000000e+00   0.0000000000000000e+00   0.0000000000000000e+00   0.0000000000000000e+00   0.0000000000000000e+00   0.0000000000000000e+00   0.0000000000000000e+00   0.0000000000000000e+00   1.7673283292773370e-04   0.0000000000000000e+00   2.6030988610600532e+05   5.9044176733049304e-03   1.8285066693153768e+06   9.7146392162964924e+05   2.0938508173690171e+06   2.1430393112826012e+06   1.8422053870601181e+06   0.0000000000000000e+00   0.0000000000000000e+00   0.0000000000000000e+00   0.0000000000000000e+00   0.0000000000000000e+00   0.0000000000000000e+00   0.0000000000000000e+00   0.0000000000000000e+00   0.0000000000000000e+00   0.0000000000000000e+00   0.0000000000000000e+00   0.0000000000000000e+00   0.0000000000000000e+00   0.0000000000000000e+00   0.0000000000000000e+00   0.0000000000000000e+00   0.0000000000000000e+00   0.0000000000000000e+00   0.0000000000000000e+00   0.0000000000000000e+00   0.0000000000000000e+00   0.0000000000000000e+00   0.0000000000000000e+00   0.0000000000000000e+00   0.0000000000000000e+00   0.0000000000000000e+00   0.0000000000000000e+00   0.0000000000000000e+00   0.0000000000000000e+00   0.0000000000000000e+00   0.0000000000000000e+00   8.2911885207247391e-08   0.0000000000000000e+00   7.4299869486073453e+02   1.5960352070764612e-06   2.9841009425647310e+06   1.9765561559400994e+04   3.0606858646623543e+06   2.8578079906017189e+06   2.1602550903057312e+06   0.0000000000000000e+00   0.0000000000000000e+00   0.0000000000000000e+00   0.0000000000000000e+00   0.0000000000000000e+00   0.0000000000000000e+00   0.0000000000000000e+00   0.0000000000000000e+00   0.0000000000000000e+00   0.0000000000000000e+00   0.0000000000000000e+00   0.0000000000000000e+00   0.0000000000000000e+00   0.0000000000000000e+00   0.0000000000000000e+00   0.0000000000000000e+00   0.0000000000000000e+00   0.0000000000000000e+00   0.0000000000000000e+00   0.0000000000000000e+00   0.0000000000000000e+00   0.0000000000000000e+00   0.0000000000000000e+00   0.0000000000000000e+00   0.0000000000000000e+00   0.0000000000000000e+00   0.0000000000000000e+00   0.0000000000000000e+00   0.0000000000000000e+00   0.0000000000000000e+00   0.0000000000000000e+00   0.0000000000000000e+00   0.0000000000000000e+00   1.0788750536346914e-01   0.0000000000000000e+00   3.0280309059447567e+06   2.6326710539394793e+00   3.2565150512877894e+06   2.8027260313183311e+06   2.3751506628477350e+06   0.0000000000000000e+00   0.0000000000000000e+00   0.0000000000000000e+00   0.0000000000000000e+00   0.0000000000000000e+00   0.0000000000000000e+00   0.0000000000000000e+00   0.0000000000000000e+00   0.0000000000000000e+00   0.0000000000000000e+00   0.0000000000000000e+00   0.0000000000000000e+00   0.0000000000000000e+00   0.0000000000000000e+00   0.0000000000000000e+00   0.0000000000000000e+00   0.0000000000000000e+00   0.0000000000000000e+00   0.0000000000000000e+00   0.0000000000000000e+00   0.0000000000000000e+00   0.0000000000000000e+00   0.0000000000000000e+00   0.0000000000000000e+00   0.0000000000000000e+00   0.0000000000000000e+00   0.0000000000000000e+00   0.0000000000000000e+00   0.0000000000000000e+00   0.0000000000000000e+00   0.0000000000000000e+00   0.0000000000000000e+00   0.00000000