<?xml version="1.0"?>
<VTKFile type="UnstructuredGrid"  version="0.1"  >
<UnstructuredGrid>
<Piece  NumberOfPoints="629" NumberOfCells="1162">
<Points>
<DataArray  type="Float64"  NumberOfComponents="3"  format="ascii">0.7104347826086956 0 0  0.7269565217391304 0 0  0.7269565217391304 0.01666666666666667 0  0.7104347826086956 0.01666666666666667 0  0.7434782608695653 0 0  0.7434782608695653 0.01666666666666667 0  0.7599999999999999 0 0  0.7599999999999999 0.01666666666666667 0  0.7765217391304348 0 0  0.7765217391304348 0.01666666666666667 0  0.7930434782608695 0 0  0.7930434782608695 0.01666666666666667 0  0.8095652173913043 0 0  0.8095652173913043 0.01666666666666667 0  0.8260869565217391 0 0  0.8260869565217391 0.01666666666666667 0  0.8426086956521739 0 0  0.8426086956521739 0.01666666666666667 0  0.8591304347826086 0 0  0.8591304347826086 0.01666666666666667 0  0.8756521739130434 0 0  0.8756521739130434 0.01666666666666667 0  0.8921739130434783 0 0  0.8921739130434783 0.01666666666666667 0  0.908695652173913 0 0  0.908695652173913 0.01666666666666667 0  0.9252173913043478 0 0  0.9252173913043478 0.01666666666666667 0  0.9417391304347826 0 0  0.9417391304347826 0.01666666666666667 0  0.9582608695652173 0 0  0.9582608695652173 0.01666666666666667 0  0.9747826086956521 0 0  0.9747826086956521 0.01666666666666667 0  0.991304347826087 0 0  0.991304347826087 0.01666666666666667 0  1.007826086956522 0 0  1.007826086956522 0.01666666666666667 0  1.024347826086957 0 0  1.024347826086957 0.01666666666666667 0  0.7269565217391304 0.03333333333333333 0  0.7104347826086956 0.03333333333333333 0  0.7434782608695653 0.03333333333333333 0  0.7599999999999999 0.03333333333333333 0  0.7765217391304348 0.03333333333333333 0  0.7930434782608695 0.03333333333333333 0  0.8095652173913043 0.03333333333333333 0  0.8260869565217391 0.03333333333333333 0  0.8426086956521739 0.03333333333333333 0  0.8591304347826086 0.03333333333333333 0  0.8756521739130434 0.03333333333333333 0  0.8921739130434783 0.03333333333333333 0  0.908695652173913 0.03333333333333333 0  0.9252173913043478 0.03333333333333333 0  0.9417391304347826 0.03333333333333333 0  0.9582608695652173 0.03333333333333333 0  0.9747826086956521 0.03333333333333333 0  0.991304347826087 0.03333333333333333 0  1.007826086956522 0.03333333333333333 0  1.024347826086957 0.03333333333333333 0  1.040869565217391 0.03333333333333333 0  0.7269565217391304 0.05 0  0.7434782608695653 0.05 0  0.7599999999999999 0.05 0  0.7765217391304348 0.05 0  0.7930434782608695 0.05 0  0.8095652173913043 0.05 0  0.8260869565217391 0.05 0  0.8426086956521739 0.05 0  0.8591304347826086 0.05 0  0.8756521739130434 0.05 0  0.8921739130434783 0.05 0  0.908695652173913 0.05 0  0.9252173913043478 0.05 0  0.9417391304347826 0.05 0  0.9582608695652173 0.05 0  0.9747826086956521 0.05 0  0.991304347826087 0.05 0  1.007826086956522 0.05 0  1.024347826086957 0.05 0  1.040869565217391 0.05 0  1.057391304347826 0.05 0  0.7434782608695653 0.06666666666666667 0  0.7599999999999999 0.06666666666666667 0  0.7765217391304348 0.06666666666666667 0  0.7930434782608695 0.06666666666666667 0  0.8095652173913043 0.06666666666666667 0  0.8260869565217391 0.06666666666666667 0  0.8426086956521739 0.06666666666666667 0  0.8591304347826086 0.06666666666666667 0  0.8756521739130434 0.06666666666666667 0  0.8921739130434783 0.06666666666666667 0  0.908695652173913 0.06666666666666667 0  0.9252173913043478 0.06666666666666667 0  0.9417391304347826 0.06666666666666667 0  0.9582608695652173 0.06666666666666667 0  0.9747826086956521 0.06666666666666667 0  0.991304347826087 0.06666666666666667 0  1.007826086956522 0.06666666666666667 0  1.024347826086957 0.06666666666666667 0  1.040869565217391 0.06666666666666667 0  1.057391304347826 0.06666666666666667 0  1.073913043478261 0.06666666666666667 0  0.7599999999999999 0.08333333333333333 0  0.7765217391304348 0.08333333333333333 0  0.7930434782608695 0.08333333333333333 0  0.8095652173913043 0.08333333333333333 0  0.8260869565217391 0.08333333333333333 0  0.8426086956521739 0.08333333333333333 0  0.8591304347826086 0.08333333333333333 0  0.8756521739130434 0.08333333333333333 0  0.8921739130434783 0.08333333333333333 0  0.908695652173913 0.08333333333333333 0  0.9252173913043478 0.08333333333333333 0  0.9417391304347826 0.08333333333333333 0  0.9582608695652173 0.08333333333333333 0  0.9747826086956521 0.08333333333333333 0  0.991304347826087 0.08333333333333333 0  1.007826086956522 0.08333333333333333 0  1.024347826086957 0.08333333333333333 0  1.040869565217391 0.08333333333333333 0  1.057391304347826 0.08333333333333333 0  1.073913043478261 0.08333333333333333 0  1.090434782608696 0.08333333333333333 0  0.7765217391304348 0.1 0  0.7930434782608695 0.1 0  0.8095652173913043 0.1 0  0.8260869565217391 0.1 0  0.8426086956521739 0.1 0  0.8591304347826086 0.1 0  0.8756521739130434 0.1 0  0.8921739130434783 0.1 0  0.908695652173913 0.1 0  0.9252173913043478 0.1 0  0.9417391304347826 0.1 0  0.9582608695652173 0.1 0  0.9747826086956521 0.1 0  0.991304347826087 0.1 0  1.007826086956522 0.1 0  1.024347826086957 0.1 0  1.040869565217391 0.1 0  1.057391304347826 0.1 0  1.073913043478261 0.1 0  1.090434782608696 0.1 0  1.10695652173913 0.1 0  0.7930434782608695 0.1166666666666667 0  0.8095652173913043 0.1166666666666667 0  0.8260869565217391 0.1166666666666667 0  0.8426086956521739 0.1166666666666667 0  0.8591304347826086 0.1166666666666667 0  0.8756521739130434 0.1166666666666667 0  0.8921739130434783 0.1166666666666667 0  0.908695652173913 0.1166666666666667 0  0.9252173913043478 0.1166666666666667 0  0.9417391304347826 0.1166666666666667 0  0.9582608695652173 0.1166666666666667 0  0.9747826086956521 0.1166666666666667 0  0.991304347826087 0.1166666666666667 0  1.007826086956522 0.1166666666666667 0  1.024347826086957 0.1166666666666667 0  1.040869565217391 0.1166666666666667 0  1.057391304347826 0.1166666666666667 0  1.073913043478261 0.1166666666666667 0  1.090434782608696 0.1166666666666667 0  1.10695652173913 0.1166666666666667 0  1.123478260869565 0.1166666666666667 0  0.8095652173913043 0.1333333333333333 0  0.8260869565217391 0.1333333333333333 0  0.8426086956521739 0.1333333333333333 0  0.8591304347826086 0.1333333333333333 0  0.8756521739130434 0.1333333333333333 0  0.8921739130434783 0.1333333333333333 0  0.908695652173913 0.1333333333333333 0  0.9252173913043478 0.1333333333333333 0  0.9417391304347826 0.1333333333333333 0  0.9582608695652173 0.1333333333333333 0  0.9747826086956521 0.1333333333333333 0  0.991304347826087 0.1333333333333333 0  1.007826086956522 0.1333333333333333 0  1.024347826086957 0.1333333333333333 0  1.040869565217391 0.1333333333333333 0  1.057391304347826 0.1333333333333333 0  1.073913043478261 0.1333333333333333 0  1.090434782608696 0.1333333333333333 0  1.10695652173913 0.1333333333333333 0  1.123478260869565 0.1333333333333333 0  1.14 0.1333333333333333 0  0.8260869565217391 0.15 0  0.8426086956521739 0.15 0  0.8591304347826086 0.15 0  0.8756521739130434 0.15 0  0.8921739130434783 0.15 0  0.908695652173913 0.15 0  0.9252173913043478 0.15 0  0.9417391304347826 0.15 0  0.9582608695652173 0.15 0  0.9747826086956521 0.15 0  0.991304347826087 0.15 0  1.007826086956522 0.15 0  1.024347826086957 0.15 0  1.040869565217391 0.15 0  1.057391304347826 0.15 0  1.073913043478261 0.15 0  1.090434782608696 0.15 0  1.10695652173913 0.15 0  1.123478260869565 0.15 0  1.14 0.15 0  1.156521739130435 0.15 0  0.8426086956521739 0.1666666666666667 0  0.8591304347826086 0.1666666666666667 0  0.8756521739130434 0.1666666666666667 0  0.8921739130434783 0.1666666666666667 0  0.908695652173913 0.1666666666666667 0  0.9252173913043478 0.1666666666666667 0  0.9417391304347826 0.1666666666666667 0  0.9582608695652173 0.1666666666666667 0  0.9747826086956521 0.1666666666666667 0  0.991304347826087 0.1666666666666667 0  1.007826086956522 0.1666666666666667 0  1.024347826086957 0.1666666666666667 0  1.040869565217391 0.1666666666666667 0  1.057391304347826 0.1666666666666667 0  1.073913043478261 0.1666666666666667 0  1.090434782608696 0.1666666666666667 0  1.10695652173913 0.1666666666666667 0  1.123478260869565 0.1666666666666667 0  1.14 0.1666666666666667 0  1.156521739130435 0.1666666666666667 0  1.17304347826087 0.1666666666666667 0  0.8591304347826086 0.1833333333333333 0  0.8756521739130434 0.1833333333333333 0  0.8921739130434783 0.1833333333333333 0  0.908695652173913 0.1833333333333333 0  0.9252173913043478 0.1833333333333333 0  0.9417391304347826 0.1833333333333333 0  0.9582608695652173 0.1833333333333333 0  0.9747826086956521 0.1833333333333333 0  0.991304347826087 0.1833333333333333 0  1.007826086956522 0.1833333333333333 0  1.024347826086957 0.1833333333333333 0  1.040869565217391 0.1833333333333333 0  1.057391304347826 0.1833333333333333 0  1.073913043478261 0.1833333333333333 0  1.090434782608696 0.1833333333333333 0  1.10695652173913 0.1833333333333333 0  1.123478260869565 0.1833333333333333 0  1.14 0.1833333333333333 0  1.156521739130435 0.1833333333333333 0  1.17304347826087 0.1833333333333333 0  1.189565217391304 0.1833333333333333 0  0.8756521739130434 0.2 0  0.8921739130434783 0.2 0  0.908695652173913 0.2 0  0.9252173913043478 0.2 0  0.9417391304347826 0.2 0  0.9582608695652173 0.2 0  0.9747826086956521 0.2 0  0.991304347826087 0.2 0  1.007826086956522 0.2 0  1.024347826086957 0.2 0  1.040869565217391 0.2 0  1.057391304347826 0.2 0  1.073913043478261 0.2 0  1.090434782608696 0.2 0  1.10695652173913 0.2 0  1.123478260869565 0.2 0  1.14 0.2 0  1.156521739130435 0.2 0  1.17304347826087 0.2 0  1.189565217391304 0.2 0  1.206086956521739 0.2 0  0.8921739130434783 0.2166666666666667 0  0.908695652173913 0.2166666666666667 0  0.9252173913043478 0.2166666666666667 0  0.9417391304347826 0.2166666666666667 0  0.9582608695652173 0.2166666666666667 0  0.9747826086956521 0.2166666666666667 0  0.991304347826087 0.2166666666666667 0  1.007826086956522 0.2166666666666667 0  1.02434782608
[...]
<PointData  Vectors="Displacement"> 
<DataArray  type="Float64"  Name="Displacement"  NumberOfComponents="3" format="ascii">9.3721391717715616e-05 7.1941598744784078e-04 0.0000000000000000e+00  9.5598008223363575e-05 7.3510607487564607e-04 0.0000000000000000e+00  7.9736852657109289e-05 7.3449488097920932e-04 0.0000000000000000e+00  7.7882075316088460e-05 7.1880122584839265e-04 0.0000000000000000e+00  9.7483792949599538e-05 7.5083680510716806e-04 0.0000000000000000e+00  8.1557120323553643e-05 7.5022462353912243e-04 0.0000000000000000e+00  9.9376557773287524e-05 7.6666125301018189e-04 0.0000000000000000e+00  8.3352327749166224e-05 7.6604915336447724e-04 0.0000000000000000e+00  1.0127200865330632e-04 7.8259823019216385e-04 0.0000000000000000e+00  8.5135620601153506e-05 7.8198626368469564e-04 0.0000000000000000e+00  1.0316634718667483e-04 7.9865554340665670e-04 0.0000000000000000e+00  8.6912656010917162e-05 7.9804418263790169e-04 0.0000000000000000e+00  1.0505627360683029e-04 8.1483392940441567e-04 0.0000000000000000e+00  8.8685840438894106e-05 8.1422372540176501e-04 0.0000000000000000e+00  1.0693941562144628e-04 8.3112917662830378e-04 0.0000000000000000e+00  9.0456488106983220e-05 8.3052046351885899e-04 0.0000000000000000e+00  1.0881434834802117e-04 8.4753454442429964e-04 0.0000000000000000e+00  9.2225347521929723e-05 8.4692749407180466e-04 0.0000000000000000e+00  1.1068035294663485e-04 8.6404215446943299e-04 0.0000000000000000e+00  9.3992829395831844e-05 8.6343681909474448e-04 0.0000000000000000e+00  1.1253712402830840e-04 8.8064378983088978e-04 0.0000000000000000e+00  9.5759152988355873e-05 8.8004016139941500e-04 0.0000000000000000e+00  1.1438449904794837e-04 8.9733120500123519e-04 0.0000000000000000e+00  9.7524426437363689e-05 8.9672928669609295e-04 0.0000000000000000e+00  1.1622232616635129e-04 9.1409602451297551e-04 0.0000000000000000e+00  9.9288710466743720e-05 9.1349584069840071e-04 0.0000000000000000e+00  1.1805045931097563e-04 9.3092963717843408e-04 0.0000000000000000e+00  1.0105205398903900e-04 9.3033121280815603e-04 0.0000000000000000e+00  1.1986878200716127e-04 9.4782322858703459e-04 0.0000000000000000e+00  1.0281449969343518e-04 9.4722657943234142e-04 0.0000000000000000e+00  1.2167721137184552e-04 9.6476785690684003e-04 0.0000000000000000e+00  1.0457608135905047e-04 9.6417299109733561e-04 0.0000000000000000e+00  1.2347568683485400e-04 9.8175450303006773e-04 0.0000000000000000e+00  1.0633682463561485e-04 9.8116142476379611e-04 0.0000000000000000e+00  1.2526415667962987e-04 9.9877408958127449e-04 0.0000000000000000e+00  1.0809675062226223e-04 9.9818280171028043e-04 0.0000000000000000e+00  1.2704256803935205e-04 1.0158174806700461e-03 0.0000000000000000e+00  1.0985587958373997e-04 1.0152279859808777e-03 0.0000000000000000e+00  1.2881086076287339e-04 1.0328754721965615e-03 0.0000000000000000e+00  1.1161423380782739e-04 1.0322877735132114e-03 0.0000000000000000e+00  6.3963622985641411e-05 7.3390503754398786e-04 0.0000000000000000e+00  6.2077140870243973e-05 7.1818205444092165e-04 0.0000000000000000e+00  6.5705398550378052e-05 7.4964809470831563e-04 0.0000000000000000e+00  6.7363491485779604e-05 7.6547478474357561e-04 0.0000000000000000e+00  6.9017429785020242e-05 7.8141261098047465e-04 0.0000000000000000e+00  7.0669611073284744e-05 7.9747120662236669e-04 0.0000000000000000e+00  7.2322046436342662e-05 8.1365119413043675e-04 0.0000000000000000e+00  7.3978007598640564e-05 8.2994784084076869e-04 0.0000000000000000e+00  7.5639666104423232e-05 8.4635436440088870e-04 0.0000000000000000e+00  7.7308123639523477e-05 8.6286289070437727e-04 0.0000000000000000e+00  7.8983779134626837e-05 8.7946521784767367e-04 0.0000000000000000e+00  8.0666793817348961e-05 8.9615322827226568e-04 0.0000000000000000e+00  8.2357386452244985e-05 9.1291863698950268e-04 0.0000000000000000e+00  8.4055817203943615e-05 9.2975283917538483e-04 0.0000000000000000e+00  8.5762298108779994e-05 9.4664700440250831e-04 0.0000000000000000e+00  8.7476972574715669e-05 9.6359218411535608e-04 0.0000000000000000e+00  8.9199939691546104e-05 9.8057935930802895e-04 0.0000000000000000e+00  9.0931282518013325e-05 9.9759945348866833e-04 0.0000000000000000e+00  9.2671087600314881e-05 1.0146433299133752e-03 0.0000000000000000e+00  9.4419456395664688e-05 1.0317017806237636e-03 0.0000000000000000e+00  9.6176512106340862e-05 1.0487655103333310e-03 0.0000000000000000e+00  4.8102887546633777e-05 7.3327680192705725e-04 0.0000000000000000e+00  4.9824978158062756e-05 7.4906820362814742e-04 0.0000000000000000e+00  5.1429398176976828e-05 7.6492322998855027e-04 0.0000000000000000e+00  5.3048888964720450e-05 7.8086609938245524e-04 0.0000000000000000e+00  5.4559877409686333e-05 7.9692586220477901e-04 0.0000000000000000e+00  5.6050084008363099e-05 8.1310422749020033e-04 0.0000000000000000e+00  5.7564046587113629e-05 8.2939913212895663e-04 0.0000000000000000e+00  5.9102919835633169e-05 8.4580350755593804e-04 0.0000000000000000e+00  6.0664425593203461e-05 8.6230966432629061e-04 0.0000000000000000e+00  6.2244695714010662e-05 8.7890951285488051e-04 0.0000000000000000e+00  6.3840066660566605e-05 8.9559484786351105e-04 0.0000000000000000e+00  6.5450786937131823e-05 9.1235742956652832e-04 0.0000000000000000e+00  6.7078489359186783e-05 9.2918872854422783e-04 0.0000000000000000e+00  6.8723903011923211e-05 9.4607993679706598e-04 0.0000000000000000e+00  7.0387039369125366e-05 9.6302211251578717e-04 0.0000000000000000e+00  7.2067771747137129e-05 9.8000624461969652e-04 0.0000000000000000e+00  7.3766041017794845e-05 9.9702326137848037e-04 0.0000000000000000e+00  7.5481879234693384e-05 1.0140640263915346e-03 0.0000000000000000e+00  7.7215390735875945e-05 1.0311193291274070e-03 0.0000000000000000e+00  7.8966724836050355e-05 1.0481798711563994e-03 0.0000000000000000e+00  8.0736011114781398e-05 1.0652362476695533e-03 0.0000000000000000e+00  4.0208029496369145e-05 7.4111632510116441e-04 0.0000000000000000e+00  4.2565230953637613e-05 7.5683367208549560e-04 0.0000000000000000e+00  4.4863802153519485e-05 7.7268794098485773e-04 0.0000000000000000e+00  4.7101831849268472e-05 7.8872129851896577e-04 0.0000000000000000e+00  4.9286552614517855e-05 8.0490547240559161e-04 0.0000000000000000e+00  5.1432645921293765e-05 8.2123751085430346e-04 0.0000000000000000e+00  5.3547784025804315e-05 8.3771377357135554e-04 0.0000000000000000e+00  5.5634521757153856e-05 8.5432361465247262e-04 0.0000000000000000e+00  5.7694168743822924e-05 8.7105484883275204e-04 0.0000000000000000e+00  5.9728220816721422e-05 8.8789498108316726e-04 0.0000000000000000e+00  6.1739072077946787e-05 9.0483158196876543e-04 0.0000000000000000e+00  6.3729766926727609e-05 9.2185321671165929e-04 0.0000000000000000e+00  6.5703231738277620e-05 9.3894936553542594e-04 0.0000000000000000e+00  6.7661844891552528e-05 9.5610993996787590e-04 0.0000000000000000e+00  6.9607384728731620e-05 9.7332504516934909e-04 0.0000000000000000e+00  7.1541098136753428e-05 9.9058487673432693e-04 0.0000000000000000e+00  7.3463789535801116e-05 1.0078796206907938e-03 0.0000000000000000e+00  7.5375921723566452e-05 1.0251993567341293e-03 0.0000000000000000e+00  7.7277723941192596e-05 1.0425339822434942e-03 0.0000000000000000e+00  7.9169297069818859e-05 1.0598731617431638e-03 0.0000000000000000e+00  8.1050714904372902e-05 1.0772062818537496e-03 0.0000000000000000e+00  3.4095190088951949e-05 7.4824827708922220e-04 0.0000000000000000e+00  3.6980090426498749e-05 7.6402446697355854e-04 0.0000000000000000e+00  3.9803925472686047e-05 7.8002910119914694e-04 0.0000000000000000e+00  4.2562136340651534e-05 7.9624147411388980e-04 0.0000000000000000e+00  4.5250492838468178e-05 8.1264582929878304e-04 0.0000000000000000e+00  4.7869084213233587e-05 8.2922956258129937e-04 0.0000000000000000e+00  5.0419874339025930e-05 8.4597709078692424e-04 0.0000000000000000e+00  5.2905616329318950e-05 8.6287134536832180e-04 0.0000000000000000e+00  5.5330003139090422e-05 8.7989547415031277e-04 0.0000000000000000e+00  5.7697463832731223e-05 8.9703368284158654e-04 0.0000000000000000e+00  6.0012688272955265e-05 9.1427193453309829e-04 0.0000000000000000e+00  6.2280159240156224e-05 9.3159792044688911e-04 0.0000000000000000e+00  6.4503747656114580e-05 9.4900051410966204e-04 0.0000000000000000e+00  6.6686472389184320e-05 9.6646924872864442e-04 0.0000000000000000e+00  6.8830458010670829e-05 9.8399394064587397e-04 0.0000000000000000e+00  7.0937033589410213e-05 1.0015644033695606e-03 0.0000000000000000e+00  7.3006909098424848e-05 1.0191702304302658e-03 0.0000000000000000e+00  7.5040385429149859e-05 1.0368006485288377e-03 0.0000000000000000e+00  7.7037566960861507e-05 1.0544444350392278e-03 0.0000000000000000e+00  7.8998555658663319e-05 1.0720898764961619e-03 0.0000000000000000e+00  8.0923613915401491e-05 1.0897247455837877e-03 0.0000000000000000e+00  2.9378078343757729e-05 7.5492280802053849e-04 0.0000000000000000e+00  3.2689793208130131e-05 7.7090943757480014e-04 0.0000000000000000e+00  3.5925495823936798e-05 7.8716608520665711e-04 0.0000000000000000e+00  3.9071745939052442e-05 8.0366650585586325e-04 0.0000000000000000e+00  4.2121464516241050e-05 8.2038618089462804e-04 0.0000000000000000e+00  4.5073146775503562e-05 8.3730077505037546e-04 0.0000000000000000e+00  4.7928940461891000e-05 8.5438660815141611e-04 0.0000000000000000e+00  5.0693321962688908e-05 8.7162175180684946e-04 0.0000000000000000e+00  5.3372038669371697e-05 8.8898683941188422e-04 0.0000000000000000e+00  5.5971168499340772e-05 9.0646542724575555e-04 0.0000000000000000e+00  5.8496419197302457e-05 9.2404371358595545e-04 0.0000000000000000e+00  6.0952647807619039e-05 9.4170982496516724e-04 0.0000000000000000e+00  6.3343586757346628e-05 9.5945303111449692e-04 0.0000000000000000e+00  6.5671789214921566e-05 9.7726307332766460e-04 0.0000000000000000e+00  6.7938759390300248e-05 9.9512964616033702e-04 0.0000000000000000e+00  7.0145200152062134e-05 1.0130420313309680e-03 0.0000000000000000e+00  7.2291312205274277e-05 1.0309888741749710e-03 0.0000000000000000e+00  7.4377092840031950e-05 1.0489580819230486e-03 0.0000000000000000e+00  7.6402596571423397e-05 1.0669368090146486e-03 0.0000000000000000e+00  7.8368132489703391e-05 1.0849114904542784e-03 0.0000000000000000e+00  8.0274384149975174e-05 1.1028678811327442e-03 0.0000000000000000e+00  2.5762552493846102e-05 7.6139996587096628e-04 0.0000000000000000e+00  2.9398101348140016e-05 7.7771857238932772e-04 0.0000000000000000e+00  3.2928537124928005e-05 7.9433699798009503e-04 0.0000000000000000e+00  3.6341549543890059e-05 8.1121798070106857e-04 0.0000000000000000e+00  3.9632400255794812e-05 8.2832632069554824e-04 0.0000000000000000e+00  4.2802122439440837e-05 8.4562990640202232e-04 0.0000000000000000e+00  4.5855525399982724e-05 8.6310076266013958e-04 0.0000000000000000e+00  4.8799370968066126e-05 8.8071559941045444e-04 0.0000000000000000e+00  5.1640896481704769e-05 8.9845570240322775e-04 0.0000000000000000e+00  5.4386778549945884e-05 9.1630618808520266e-04 0.0000000000000000e+00  5.7042505908504874e-05 9.3425490094607147e-04 0.0000000000000000e+00  5.9612093225816340e-05 9.5229126775118285e-04 0.0000000000000000e+00  6.2098077401614158e-05 9.7040529986843491e-04 0.0000000000000000e+00  6.4501729180436462e-05 9.8858682249541039e-04 0.0000000000000000e+00  6.6823399376236733e-05 1.0068249487499947e-03 0.0000000000000000e+00  6.9062919121229603e-05 1.0251077850723853e-03 0.0000000000000000e+00  7.1219985980808823e-05 1.0434223320298821e-03 0.0000000000000000e+00  7.3294485454890052e-05 1.0617545278168322e-03 0.0000000000000000e+00  7.5286714958936900e-05 1.0800893758180186e-03 0.0000000000000000e+00  7.7197492331251870e-05 1.0984110994552059e-03 0.0000000000000000e+00  7.9028141302969288e-05 1.1167032791216842e-03 0.0000000000000000e+00  2.2985573369904535e-05 7.6792729650846801e-04 0.0000000000000000e+00  2.6836323458489036e-05 7.8468794202916415e-04 0.0000000000000000e+00  3.0550988435829852e-05 8.0175623879771439e-04 0.0000000000000000e+00  3.4122624630100786e-05 8.1908453048979042e-04 0.0000000000000000e+00  3.7551765216670641e-05 8.3663080562046931e-04 0.0000000000000000e+00  4.0843913481555448e-05 8.5436019596251160e-04 0.0000000000000000e+00  4.4007043200281128e-05 8.7224530577839870e-04 0.0000000000000000e+00  4.7049576488084161e-05 8.9026547569124052e-04 0.0000000000000000e+00  4.9979016908507055e-05 9.0840534260781672e-04 0.0000000000000000e+00  5.2801195747765441e-05 9.2665312720681652e-04 0.0000000000000000e+00  5.5520009475258520e-05 9.4499898972047979e-04 0.0000000000000000e+00  5.8137521676426093e-05 9.6343364707907042e-04 0.0000000000000000e+00  6.0654313321858244e-05 9.8194733146611058e-04 0.0000000000000000e+00  6.3069973276996041e-05 1.0005291077483391e-03 0.0000000000000000e+00  6.5383629925657799e-05 1.0191665284267986e-03 0.0000000000000000e+00  6.7594441272262224e-05 1.0378455717516910e-03 0.0000000000000000e+00  6.9701984002205403e-05 1.0565507855036910e-03 0.0000000000000000e+00  7.1706505617315127e-05 1.0752655523251341e-03 0.0000000000000000e+00  7.3609023166723442e-05 1.0939723992609760e-03 0.0000000000000000e+00  7.5411266110537957e-05 1.1126532894126394e-03 0.0000000000000000e+00  7.7115472739981312e-05 1.1312898511202233e-03 0.0000000000000000e+00  2.0798373854624121e-05 7.7474394259117139e-04 0.0000000000000000e+00  2.4759375738752179e-05 7.9202869146859176e-04 0.0000000000000000e+00  2.8557575178221659e-05 8.0960465449809646e-04 0.0000000000000000e+00  3.2194202334918192e-05 8.2741850059549573e-04 0.0000000000000000e+00  3.5676461808770121e-05 8.4542789507643348e-04 0.0000000000000000e+00  3.9014209574133834e-05 8.6360154640996510e-04 0.0000000000000000e+00  4.2217354407725612e-05 8.8191757761699478e-04 0.0000000000000000e+00  4.5294208315602077e-05 9.0036109295449796e-04 0.0000000000000000e+00  4.8250686345424891e-05 9.1892162008176421e-04 0.0000000000000000e+00  5.1090149213482682e-05 9.3759082546894870e-04 0.0000000000000000e+00  5.3813687062482125e-05 9.5636068278756104e-04 0.0000000000000000e+00  5.6420677748656200e-05 9.7522214569241308e-04 0.0000000000000000e+00  5.8909479621287606e-05 9.9416432364303649e-04 0.0000000000000000e+00  6.1278136613563972e-05 1.0131741240630202e-03 0.0000000000000000e+00  6.3524997693208509e-05 1.0322362801197915e-03 0.0000000000000000e+00  6.5649185334519617e-05 1.0513336516596739e-03 0.0000000000000000e+00  6.7650879428807708e-05 1.0704476817492950e-03 0.0000000000000000e+00  6.9531406468579019e-05 1.0895589063219305e-03 0.0000000000000000e+00  7.1293138521175362e-05 1.1086474362520095e-03 0.0000000000000000e+00  7.2939217463736282e-05 1.1276933496247475e-03 0.0000000000000000e+00  7.4473133254875602e-05 1.1466769432743190e-03 0.0000000000000000e+00  1.8966658445029831e-05 7.8205996210835738e-04 0.0000000000000000e+00  2.2941595546806585e-05 7.9991450267836420e-04 0.0000000000000000e+00  2.6736794713894237e-05 8.1802173858665467e-04 0.0000000000000000e+00  3.0362754576463401e-05 8.3633161900587927e-04 0.0000000000000000e+00  3.3832317698502533e-05 8.5480977422664980e-04 0.0000000000000000e+00  3.7157416191644004e-05 8.7343445921805039e-04 0.0000000000000000e+00  4.0347230546697549e-05 8.9219270062773106e-04 0.0000000000000000e+00  4.3407484177588992e-05 9.1107663127560474e-04 0.0000000000000000e+00  4.6340522457347174e-05 9.3008043566908405e-04 0.0000000000000000e+00  4.9145884723920790e-05 9.4919802436109263e-04 0.0000000000000000e+00  5.1821156898244055e-05 9.6842142024176870e-04 0.0000000000000000e+00  5.4362935913311151e-05 9.8773982354124503e-04 0.0000000000000000e+00  5.6767757708596313e-05 1.0071393003973066e-03 0.0000000000000000e+00  5.9032873927406821e-05 1.0266029760271620e-03 0.0000000000000000e+00  6.1156810289168603e-05 1.0461115689642637e-03 0.0000000000000000e+00  6.3139682783318091e-05 1.0656441048246164e-03 0.0000000000000000e+00  6.4983274137686101e-05 1.0851786794522523e-03 0.0000000000000000e+00  6.6690884208050745e-05 1.1046931750626544e-03 0.0000000000000000e+00  6.8266973091866159e-05 1.1241658540141676e-03 0.0000000000000000e+00  6.9716623806152710e-05 1.1435757608044463e-03 0.0000000000000000e+00  7.1044867081516226e-05 1.1629028584907327e-03 0.0000000000000000e+00  1.7271393442996672e-05 7.9004111637523021e-04 0.0000000000000000e+00  2.1179315495473501e-05 8.0846923687556563e-04 0.0000000000000000e+00  2.4905061369774954e-05 8.2709912998626056e-04 0.0000000000000000e+00  2.8465997601984168e-05 8.4589509853423962e-04 0.0000000000000000e+00  3.1876774626863634e-05 8.6483777007165111e-04 0.0000000000000000e+00  3.5147490381593196e-05 8.8391822549971984e-04 0.0000000000000000e+00  3.8283310173888553e-05 9.0313295283216567e-04 0.0000000000000000e+00  4.1284968344829730e-05 9.2247993523017155e-04 0.0000000000000000e+00  4.4149762604594680e-05 9.4195582856373646e-04 0.0000000000000000e+00  4.6872802568074689e-05 9.6155408540235618e-04 0.0000000000000000e+00  4.9448325667702825e-05 9.8126396084031466e-04 0.0000000000000000e+00  5.1870901400000089e-05 1.0010703362428089e-03 0.0000000000000000e+00  5.4136389271307962e-05 1.0209541855680858e-03 0.0000000000000000e+00  5.6242589022093580e-05 1.0408934431553898e-03 0.0000000000000000e+00  5.8189581316968678e-05 1.0608640535519115e-03 0.0000000000000000e+00  5.9979783566988471e-05 1.0808410471316065e-03 0.0000000000000000e+00  6.1617746806223324e-05 1.1007995389554833e-03 0.0000000000000000e+00  6.3109712726280780e-05 1.1207155725664417e-03 0.0000000000000000e+00  6.4462948689432466e-05 1.1405667280982353e-03 0.0000000000000000e+00  6.5684888413110971e-05 1.1603323988093178e-03 0.0000000000000000e+00  6.6782132960922043e-05 1.1799936139520297e-03 0.0000000000000000e+00  1.5515426879441395e-05 7.9879057017442402e-04 0.0000000000000000e+00  1.9299520997456429e-05 8.1775856031059038e-04 0.0000000000000000e+00  2.2914107380556417e-05 8.3688219573392912e-04 0.0000000000000000e+00  2.6377259736728549e-05 8.5614796164747435e-04 0.0000000000000000e+00  2.9699882073401006e-05 8.7555396392581433e-04 0.0000000000000000e+00  3.2886018617228327e-05 8.9510329840560715e-04 0.0000000000000000e+00  3.5934018219671457e-05 9.1479929541112242e-04 0.0000000000000000e+00  3.8838097957655391e-05 9.3464227129536981e-04 0.0000000000000000e+00  4.1590095658229012e-05 9.5462744247791357e-04 0.0000000000000000e+00  4.4181225795011909e-05 9.7474394568580693e-04 0.0000000000000000e+00  4.6603613703263935e-05 9.9497492780205245e-04 0.0000000000000000e+00  4.8851446606624475e-05 1.0152984387522342e-03 0.0000000000000000e+00  5.0921699596378139e-05 1.0356887624111686e-03 0.0000000000000000e+00  5.2814478200304441e-05 1.0561178907248820e-03 0.0000000000000000e+00  5.4533039183423739e-05 1.0765569688682445e-03 0.0000000000000000e+00  5.6083531639981318e-05 1.0969776229442299e-03 0.0000000000000000e+00  5.7474473191090781e-05 1.1173531066843302e-03 0.0000000000000000e+00  5.8715961005267567e-05 1.1376591858546245e-03 0.0000000000000000e+00  5.9818618287583115e-05 1.1578746473129408e-03 0.0000000000000000e+00  6.0792306099282711e-05 1.1779812647159942e-03 0.0000000000000000e+00  6.1644688840277714e-05 1.1979630172380318e-03 0.0000000000000000e+00  1.3537346286233604e-05 8.0833899203501265e-04 0.0000000000000000e+00  1.7170917074232323e-05 8.2779523980359981e-04 0.0000000000000000e+00  2.0656743524262080e-05 8.4738383706301987e-04 0.0000000000000000e+00  2.4006024070999507e-05 8.6711382585391529e-04 0.0000000000000000e+00  2.7220793038500222e-05 8.8699764159813274e-04 0.0000000000000000e+00  3.0296005400829170e-05 9.0704572638224796e-04 0.0000000000000000e+00  3.3221789442022915e-05 9.2726303230766956e-04 0.0000000000000000e+00  3.5985801797952131e-05 9.4764678814418415e-04 0.0000000000000000e+00  3.8575521820308103e-05 9.6818562066047602e-04 0.0000000000000000e+00  4.0980167051990199e-05 9.8886010562098552e-04 0.0000000000000000e+00  4.3192024955040315e-05 1.0096443089022138e-03 0.0000000000000000e+00  4.5207206602118554e-05 1.0305077445277879e-03 0.0000000000000000e+00  4.7025944937281767e-05 1.0514173610250267e-03 0.0000000000000000e+