<?xml version="1.0"?>
<VTKFile type="UnstructuredGrid"  version="0.1"  >
<UnstructuredGrid>
<Piece  NumberOfPoints="639" NumberOfCells="1175">
<Points>
<DataArray  type="Float64"  NumberOfComponents="3"  format="ascii">1.321739130434783 0 0  1.338260869565217 0 0  1.338260869565217 0.01666666666666667 0  1.354782608695652 0 0  1.354782608695652 0.01666666666666667 0  1.371304347826087 0 0  1.371304347826087 0.01666666666666667 0  1.387826086956522 0 0  1.387826086956522 0.01666666666666667 0  1.404347826086957 0 0  1.404347826086957 0.01666666666666667 0  1.420869565217391 0 0  1.420869565217391 0.01666666666666667 0  1.437391304347826 0 0  1.437391304347826 0.01666666666666667 0  1.453913043478261 0 0  1.453913043478261 0.01666666666666667 0  1.470434782608696 0 0  1.470434782608696 0.01666666666666667 0  1.486956521739131 0 0  1.486956521739131 0.01666666666666667 0  1.503478260869565 0 0  1.503478260869565 0.01666666666666667 0  1.52 0 0  1.52 0.01666666666666667 0  1.536521739130435 0 0  1.536521739130435 0.01666666666666667 0  1.55304347826087 0 0  1.55304347826087 0.01666666666666667 0  1.569565217391304 0 0  1.569565217391304 0.01666666666666667 0  1.586086956521739 0 0  1.586086956521739 0.01666666666666667 0  1.602608695652174 0 0  1.602608695652174 0.01666666666666667 0  1.619130434782609 0 0  1.619130434782609 0.01666666666666667 0  1.635652173913043 0 0  1.635652173913043 0.01666666666666667 0  1.652173913043478 0 0  1.652173913043478 0.01666666666666667 0  1.668695652173913 0 0  1.668695652173913 0.01666666666666667 0  1.685217391304348 0 0  1.685217391304348 0.01666666666666667 0  1.701739130434782 0 0  1.701739130434782 0.01666666666666667 0  1.718260869565217 0 0  1.718260869565217 0.01666666666666667 0  1.734782608695652 0 0  1.734782608695652 0.01666666666666667 0  1.751304347826087 0 0  1.751304347826087 0.01666666666666667 0  1.767826086956522 0 0  1.767826086956522 0.01666666666666667 0  1.784347826086957 0 0  1.784347826086957 0.01666666666666667 0  1.800869565217391 0 0  1.800869565217391 0.01666666666666667 0  1.817391304347826 0 0  1.817391304347826 0.01666666666666667 0  1.833913043478261 0 0  1.833913043478261 0.01666666666666667 0  1.850434782608696 0 0  1.850434782608696 0.01666666666666667 0  1.86695652173913 0 0  1.86695652173913 0.01666666666666667 0  1.883478260869565 0 0  1.883478260869565 0.01666666666666667 0  1.354782608695652 0.03333333333333333 0  1.371304347826087 0.03333333333333333 0  1.387826086956522 0.03333333333333333 0  1.404347826086957 0.03333333333333333 0  1.420869565217391 0.03333333333333333 0  1.437391304347826 0.03333333333333333 0  1.453913043478261 0.03333333333333333 0  1.470434782608696 0.03333333333333333 0  1.486956521739131 0.03333333333333333 0  1.503478260869565 0.03333333333333333 0  1.52 0.03333333333333333 0  1.536521739130435 0.03333333333333333 0  1.55304347826087 0.03333333333333333 0  1.569565217391304 0.03333333333333333 0  1.586086956521739 0.03333333333333333 0  1.602608695652174 0.03333333333333333 0  1.619130434782609 0.03333333333333333 0  1.635652173913043 0.03333333333333333 0  1.652173913043478 0.03333333333333333 0  1.668695652173913 0.03333333333333333 0  1.685217391304348 0.03333333333333333 0  1.701739130434782 0.03333333333333333 0  1.718260869565217 0.03333333333333333 0  1.734782608695652 0.03333333333333333 0  1.751304347826087 0.03333333333333333 0  1.767826086956522 0.03333333333333333 0  1.784347826086957 0.03333333333333333 0  1.800869565217391 0.03333333333333333 0  1.817391304347826 0.03333333333333333 0  1.833913043478261 0.03333333333333333 0  1.850434782608696 0.03333333333333333 0  1.86695652173913 0.03333333333333333 0  1.883478260869565 0.03333333333333333 0  1.371304347826087 0.05 0  1.387826086956522 0.05 0  1.404347826086957 0.05 0  1.420869565217391 0.05 0  1.437391304347826 0.05 0  1.453913043478261 0.05 0  1.470434782608696 0.05 0  1.486956521739131 0.05 0  1.503478260869565 0.05 0  1.52 0.05 0  1.536521739130435 0.05 0  1.55304347826087 0.05 0  1.569565217391304 0.05 0  1.586086956521739 0.05 0  1.602608695652174 0.05 0  1.619130434782609 0.05 0  1.635652173913043 0.05 0  1.652173913043478 0.05 0  1.668695652173913 0.05 0  1.685217391304348 0.05 0  1.701739130434782 0.05 0  1.718260869565217 0.05 0  1.734782608695652 0.05 0  1.751304347826087 0.05 0  1.767826086956522 0.05 0  1.784347826086957 0.05 0  1.800869565217391 0.05 0  1.817391304347826 0.05 0  1.833913043478261 0.05 0  1.850434782608696 0.05 0  1.86695652173913 0.05 0  1.883478260869565 0.05 0  1.387826086956522 0.06666666666666667 0  1.404347826086957 0.06666666666666667 0  1.420869565217391 0.06666666666666667 0  1.437391304347826 0.06666666666666667 0  1.453913043478261 0.06666666666666667 0  1.470434782608696 0.06666666666666667 0  1.486956521739131 0.06666666666666667 0  1.503478260869565 0.06666666666666667 0  1.52 0.06666666666666667 0  1.536521739130435 0.06666666666666667 0  1.55304347826087 0.06666666666666667 0  1.569565217391304 0.06666666666666667 0  1.586086956521739 0.06666666666666667 0  1.602608695652174 0.06666666666666667 0  1.619130434782609 0.06666666666666667 0  1.635652173913043 0.06666666666666667 0  1.652173913043478 0.06666666666666667 0  1.668695652173913 0.06666666666666667 0  1.685217391304348 0.06666666666666667 0  1.701739130434782 0.06666666666666667 0  1.718260869565217 0.06666666666666667 0  1.734782608695652 0.06666666666666667 0  1.751304347826087 0.06666666666666667 0  1.767826086956522 0.06666666666666667 0  1.784347826086957 0.06666666666666667 0  1.800869565217391 0.06666666666666667 0  1.817391304347826 0.06666666666666667 0  1.833913043478261 0.06666666666666667 0  1.850434782608696 0.06666666666666667 0  1.86695652173913 0.06666666666666667 0  1.883478260869565 0.06666666666666667 0  1.404347826086957 0.08333333333333333 0  1.420869565217391 0.08333333333333333 0  1.437391304347826 0.08333333333333333 0  1.453913043478261 0.08333333333333333 0  1.470434782608696 0.08333333333333333 0  1.486956521739131 0.08333333333333333 0  1.503478260869565 0.08333333333333333 0  1.52 0.08333333333333333 0  1.536521739130435 0.08333333333333333 0  1.55304347826087 0.08333333333333333 0  1.569565217391304 0.08333333333333333 0  1.586086956521739 0.08333333333333333 0  1.602608695652174 0.08333333333333333 0  1.619130434782609 0.08333333333333333 0  1.635652173913043 0.08333333333333333 0  1.652173913043478 0.08333333333333333 0  1.668695652173913 0.08333333333333333 0  1.685217391304348 0.08333333333333333 0  1.701739130434782 0.08333333333333333 0  1.718260869565217 0.08333333333333333 0  1.734782608695652 0.08333333333333333 0  1.751304347826087 0.08333333333333333 0  1.767826086956522 0.08333333333333333 0  1.784347826086957 0.08333333333333333 0  1.800869565217391 0.08333333333333333 0  1.817391304347826 0.08333333333333333 0  1.833913043478261 0.08333333333333333 0  1.850434782608696 0.08333333333333333 0  1.86695652173913 0.08333333333333333 0  1.883478260869565 0.08333333333333333 0  1.420869565217391 0.1 0  1.437391304347826 0.1 0  1.453913043478261 0.1 0  1.470434782608696 0.1 0  1.486956521739131 0.1 0  1.503478260869565 0.1 0  1.52 0.1 0  1.536521739130435 0.1 0  1.55304347826087 0.1 0  1.569565217391304 0.1 0  1.586086956521739 0.1 0  1.602608695652174 0.1 0  1.619130434782609 0.1 0  1.635652173913043 0.1 0  1.652173913043478 0.1 0  1.668695652173913 0.1 0  1.685217391304348 0.1 0  1.701739130434782 0.1 0  1.718260869565217 0.1 0  1.734782608695652 0.1 0  1.751304347826087 0.1 0  1.767826086956522 0.1 0  1.784347826086957 0.1 0  1.800869565217391 0.1 0  1.817391304347826 0.1 0  1.833913043478261 0.1 0  1.850434782608696 0.1 0  1.86695652173913 0.1 0  1.883478260869565 0.1 0  1.437391304347826 0.1166666666666667 0  1.453913043478261 0.1166666666666667 0  1.470434782608696 0.1166666666666667 0  1.486956521739131 0.1166666666666667 0  1.503478260869565 0.1166666666666667 0  1.52 0.1166666666666667 0  1.536521739130435 0.1166666666666667 0  1.55304347826087 0.1166666666666667 0  1.569565217391304 0.1166666666666667 0  1.586086956521739 0.1166666666666667 0  1.602608695652174 0.1166666666666667 0  1.619130434782609 0.1166666666666667 0  1.635652173913043 0.1166666666666667 0  1.652173913043478 0.1166666666666667 0  1.668695652173913 0.1166666666666667 0  1.685217391304348 0.1166666666666667 0  1.701739130434782 0.1166666666666667 0  1.718260869565217 0.1166666666666667 0  1.734782608695652 0.1166666666666667 0  1.751304347826087 0.1166666666666667 0  1.767826086956522 0.1166666666666667 0  1.784347826086957 0.1166666666666667 0  1.800869565217391 0.1166666666666667 0  1.817391304347826 0.1166666666666667 0  1.833913043478261 0.1166666666666667 0  1.850434782608696 0.1166666666666667 0  1.86695652173913 0.1166666666666667 0  1.883478260869565 0.1166666666666667 0  1.453913043478261 0.1333333333333333 0  1.470434782608696 0.1333333333333333 0  1.486956521739131 0.1333333333333333 0  1.503478260869565 0.1333333333333333 0  1.52 0.1333333333333333 0  1.536521739130435 0.1333333333333333 0  1.55304347826087 0.1333333333333333 0  1.569565217391304 0.1333333333333333 0  1.586086956521739 0.1333333333333333 0  1.602608695652174 0.1333333333333333 0  1.619130434782609 0.1333333333333333 0  1.635652173913043 0.1333333333333333 0  1.652173913043478 0.1333333333333333 0  1.668695652173913 0.1333333333333333 0  1.685217391304348 0.1333333333333333 0  1.701739130434782 0.1333333333333333 0  1.718260869565217 0.1333333333333333 0  1.734782608695652 0.1333333333333333 0  1.751304347826087 0.1333333333333333 0  1.767826086956522 0.1333333333333333 0  1.784347826086957 0.1333333333333333 0  1.800869565217391 0.1333333333333333 0  1.817391304347826 0.1333333333333333 0  1.833913043478261 0.1333333333333333 0  1.850434782608696 0.1333333333333333 0  1.86695652173913 0.1333333333333333 0  1.883478260869565 0.1333333333333333 0  1.470434782608696 0.15 0  1.486956521739131 0.15 0  1.503478260869565 0.15 0  1.52 0.15 0  1.5365217391304
[...]
<CellData  Scalars="rho_bar"> 
<DataArray  type="Float64"  Name="rho_bar"  format="ascii">9.5672561585276916e-01   9.5288819300486560e-01   9.4410036229931926e-01   9.4816611219490399e-01   9.3871987226525155e-01   9.4276134225999797e-01   9.3236457079684365e-01   9.3723006988021129e-01   9.2555647408977360e-01   9.3263892402444171e-01   9.1937340572251625e-01   9.3061172388577174e-01   9.1558246471644800e-01   9.3302384752627199e-01   9.1645116240583191e-01   9.4108105780816320e-01   9.2391032471220147e-01   9.5401691784763731e-01   9.3802956085708855e-01   9.6872711835560643e-01   9.5591433305126394e-01   9.8143750148458242e-01   9.7282986268433813e-01   9.9010136402654436e-01   9.8523335263663026e-01   9.9498937854002101e-01   9.9257858457452308e-01   9.9741709936854073e-01   9.9630289557673812e-01   9.9854530395393393e-01   9.9803049857303527e-01   9.9905339225345591e-01   9.9880193875515788e-01   9.9926476594875380e-01   9.9913127207680885e-01   9.9931255230559446e-01   9.9923655391763277e-01   9.9923472814590608e-01   9.9919163636906838e-01   9.9901073142468177e-01   9.9899147210560113e-01   9.9856348016036767e-01   9.9856508884449491e-01   9.9774041413839887e-01   9.9775743643609915e-01   9.9628471250602668e-01   9.9629274039563254e-01   9.9381904711839164e-01   9.9374064248134519e-01   9.8988877171732337e-01   9.8953468019816926e-01   9.8413469035108636e-01   9.8312884828192226e-01   9.7663430742597401e-01   9.7437226173959890e-01   9.6828767214015998e-01   9.6402694716652126e-01   9.6091095746626809e-01   9.5405995422391099e-01   9.5671089862841652e-01   9.4723290731107301e-01   9.5721326105360427e-01   9.4590417347358280e-01   9.6230639995600287e-01   9.5066580048261129e-01   9.7021987018220657e-01   9.5986403964671718e-01   8.6914321885933499e-01   8.5733061994000093e-01   7.7270935173265298e-01   8.4379615174066414e-01   7.5360134863962969e-01   8.3007695019564098e-01   7.3352499174376917e-01   8.1884689828118074e-01   7.1579151015957310e-01   8.1403548543051041e-01   7.0528824060863649e-01   8.2025445808478625e-01   7.0821772356346924e-01   8.4099077041911130e-01   7.3075977720877594e-01   8.7545457361006229e-01   7.7580046439932082e-01   9.1625524258061242e-01   8.3787918548545626e-01   9.5225081326889871e-01   9.0138320042360187e-01   9.7632581341333069e-01   9.4954091044135880e-01   9.8910195712541082e-01   9.7717179849051838e-01   9.9490826215007111e-01   9.8999779380033437e-01   9.9735929443299354e-01   9.9528576143236536e-01   9.9836988780574032e-01   9.9738182130961273e-01   9.9875476656936080e-01   9.9818408599668218e-01   9.9881261847185587e-01   9.9839413062848281e-01   9.9860782576912144e-01   9.9820663610105775e-01   9.9805618428903453e-01   9.9754867077859455e-01   9.9690227275318621e-01   9.9607999296878336e-01   9.9462157567152942e-01   9.9303614196733581e-01   9.9027804832142108e-01   9.8695116155518881e-01   9.8244305957601419e-01   9.7541180498457991e-01   9.6941890653700891e-01   9.5529139654274076e-01   9.5008169125871844e-01   9.2414109989157001e-01   9.2530155913996692e-01   8.8279220887226939e-01   8.9896477135653818e-01   8.3731703038536642e-01   8.7732713715091015e-01   7.9779141321650793e-01   8.6670926851116181e-01   7.7436804601494447e-01   8.7079370408899504e-01   7.7366708073930879e-01   8.8869841179991160e-01   7.9665530137725415e-01   9.1489195268610857e-01   8.3755635355622915e-01   4.3704978945337680e-01   4.1366593690980680e-01   2.3813152893357620e-01   3.9131924583226785e-01   2.2208563927740471e-01   3.7421461304217590e-01   2.0911233215652905e-01   3.6765191894171706e-01   2.0246687817639006e-01   3.7843303622636937e-01   2.0637022948782116e-01   4.1536118168703245e-01   2.2716974157347353e-01   4.8858331733864296e-01   2.7538056808058742e-01   6.0354871704293767e-01   3.6713349906489223e-01   7.4532206530376599e-01   5.1648733376317058e-01   8.7064308286128533e-01   7.0387152217574533e-01   9.4561821842134630e-01   8.6055692265521266e-01   9.7826519640656773e-01   9.4468766755556488e-01   9.9035684152224479e-01   9.7776331103603653e-01   9.9465616337827567e-01   9.8923986827195143e-01   9.9605733850752320e-01   9.9302188440694783e-01   9.9607047542224059e-01   9.9369030465363384e-01   9.9483068356362259e-01   9.9215118496246846e-01   9.9147337272496128e-01   9.8724799833765509e-01   9.8357416191506741e-01   9.7500625866865287e-01   9.6592409196506912e-01   9.4632547442703585e-01   9.2986568173195816e-01   8.8598277901654521e-01   8.6678795458710201e-01   7.8165649575403395e-01   7.7696127642764656e-01   6.4333887758302943e-01   6.7331169618171860e-01   5.0267363965491441e-01   5.7374942158521436e-01   3.8616413680043082e-01   4.9303523787843684e-01   3.0297582349907842e-01   4.4000185330273406e-01   2.5162494246053457e-01   4.1857205337188119e-01   2.2788993449681877e-01   4.3082489016058589e-01   2.2950789913059580e-01   4.7886139123502830e-01   2.5855088732504350e-01   5.6269090064586524e-01   3.2191815651379946e-01   4.9499790149412429e-02   4.6174641004441679e-02   2.0708254314647449e-02   4.4023730536107232e-02   1.9826750626593156e-02   4.3979777807392727e-02   1.9729985024045625e-02   4.7451750135201150e-02   2.0993472007140929e-02   5.7154715028458286e-02   2.4682362662346524e-02   7.9158745963571281e-02   3.3170864204977099e-02   1.2772538996691507e-01   5.2413305805943590e-02   2.3289300600991869e-01   9.8089289737166629e-02   4.2962965130076053e-01   2.0702392488773302e-01   6.8126970982671520e-01   4.2306601861580589e-01   8.6429188574245586e-01   6.8957275284611286e-01   9.4452268684870111e-01   8.6577946191643884e-01   9.7189011402740189e-01   9.3786801787672447e-01   9.7958787438706807e-01   9.6057922428909792e-01   9.7787922092643698e-01   9.6195963823629360e-01   9.6563850250188421e-01   9.4504897179745351e-01   9.3147755373212338e-01   8.9403626714877527e-01   8.5187695424511989e-01   7.7627772313063903e-01   7.0957180949023180e-01   5.8272130585234994e-01   5.2580682157191494e-01   3.7428348815975521e-01   3.4636345087178155e-01   2.1410694699769720e-01   2.1034065540983701e-01   1.1616377610100284e-01   1.2666169933127128e-01   6.4574935750032952e-02   8.0966704993558167e-02   3.9004965108526239e-02   5.7373199701540332e-02   2.6422919313341470e-02   4.6164409235027043e-02   2.0389784077171669e-02   4.2779703124468639e-02   1.8090619679907136e-02   4.6079935724781543e-02   1.8599643852045412e-02   5.7962194530783800e-02   2.2331059305853128e-02   8.4743293930707161e-02   3.1481789705299197e-02   3.8758227814970504e-03   3.9228921424775964e-03   2.0422674676619222e-03   4.1715517063883574e-03   2.1738430888093149e-03   4.7944799463401607e-03   2.4733719120132729e-03   6.1507034013282818e-03   3.0990953389246579e-03   9.1106998091470878e-03   4.4181354843707615e-03   1.6080250517691529e-02   7.4069051581897782e-03   3.4437640203169695e-02   1.5007905914436553e-02   8.7243719104629594e-02   3.6913310508547355e-02   2.2962584160024463e-01   1.0370497711538297e-01   4.9061522214942699e-01   2.7586625272599530e-01   7.3494158927089626e-01   5.3918666490042588e-01   8.5544248811402124e-01   7.3745663911995507e-01   8.8911689914618497e-01   8.1529187917921353e-01   8.6777454385087993e-01   8.0429522144885424e-01   7.7840488728906920e-01   7.0324985215715285e-01   5.9635624501996676e-01   5.0211067543327836e-01   3.6223221447744108e-01   2.7360956986840318e-01   1.7301232395613930e-01   1.1736734728355544e-01   7.2846192767615905e-02   4.5651242485387961e-02   3.1459096677719331e-02   1.8728576672645450e-02   1.5174302423850317e-02   8.7351587676843326e-03   8.4064464547660249e-03   4.7223122137119225e-03   5.3642939369364677e-03   2.9496818526253818e-03   3.9264960988126341e-03   2.1103070814661698e-03   3.2857037839653597e-03   1.7172203323489214e-03   3.1451450257956263e-03   1.5856510373102248e-03   3.4630187704443841e-03   1.6671068311071549e-03   4.4314416619968180e-03   2.0142403635703618e-03   6.6798647630886667e-03   2.8379616940930898e-03   6.4998838583536713e-04   7.4334531656665458e-04   4.6814359290798792e-04   9.1634831137950041e-04   5.7404415378888929e-04   1.2525370631447338e-03   7.7224013592736452e-04   1.9583863104889522e-03   1.1738414150859354e-03   3.6158606725248681e-03   2.0804994066842193e-03   8.0895608719228039e-03   4.4258476853504050e-03   2.1941217997213176e-02   1.1445749355596908e-02   6.7549263364059128e-02   3.4758302986587615e-02   1.9621856820586184e-01   1.0878382040260080e-01   4.1731812991173822e-01   2.7665339375604947e-01   5.9997314216308961e-01   4.7481089604909965e-01   6.5322040190506647e-01   5.6923387595855146e-01   5.7238346353503666e-01   5.1826779380030197e-01   3.7569980990836604e-01   3.4350658950129959e-01   1.7061112975842740e-01   1.5263093803503600e-01   5.8516437082489166e-02   4.9483335735801763e-02   1.9008267675635959e-02   1.5026861133996303e-02   6.9247100387282200e-03   5.1628969321449577e-03   3.0057794776570763e-03   2.1442209740449697e-03   1.5569079100372291e-03   1.0756363607634361e-03   9.4471559964546235e-04   6.3697121860323020e-04   6.5794794999270579e-04   4.3438838020127353e-04   5.1774894617168067e-04   3.3461877282890386e-04   4.5627785416787689e-04   2.8771722851574018e-04   4.4955956975061435e-04   2.7494608541115572e-04   4.9791724390359888e-04   2.9289869587000082e-04   6.2782624234342024e-04   3.5149887659026891e-04   9.1950228545202139e-04   4.8402723200746065e-04   2.5705381562175967e-04   3.4323913114318134e-04   2.5263300802333763e-04   5.0741905191506594e-04   3.7079690181376104e-04   8.5491601745432320e-04   6.1445099620781438e-04   1.6926856488915548e-03   1.1848529030435301e-03   4.0397984242668585e-03   2.7334457978023807e-03   1.1635626436618862e-02   7.6200675328320644e-03   3.8022109307574714e-02   2.4638443921556740e-02   1.1884724661346523e-01   8.0572268292217628e-02   2.7767877611077174e-01   2.1154333969990929e-01   4.2654100886091117e-01   3.7128467501500467e-01   4.4970135520202786e-01   4.3277647737888092e-01   3.2445831201829450e-01   3.4219799974648768e-01   1.4603303582840516e-01   1.6751011713059324e-01   4.3630526710256343e-02   5.0363323858673675e-02   1.1411864889888103e-02   1.2224111417115652e-02   3.3611664114302996e-03   3.2660854729148620e-03   1.2365991364951215e-03   1.1049718913108671e-03   5.7016894715262707e-04   4.7876624990053130e-04   3.1865889059536225e-04   2.5593380735148646e-04   2.0811652758493185e-04   1.6173598657979497e-04   1.5433752085903835e-04   1.1680050103378845e-04   1.2752381317970602e-04   9.4213506037483388e-05   1.1624504410021260e-04   8.3792795229118883e-05   1.1669074712114956e-04   8.1815531443182770e-05   1.2974526897700041e-04   8.7996242938988780e-05   1.6199911663715110e-04   1.0542545520246391e-04   2.3242213517364157e-04   1.4355870526199050e-04   2.2666600631921472e-04   3.7130724826903150e-04   3.1109013003459667e-04   6.9440825281539751e-04   5.7780160060209222e-04   1.5261040530359020e-03   1.2502419183973968e-03   4.0246916253439966e-03   3.2238736227657820e-03   1.2609748774173649e-02   9.8806659073190414e-03   4.3158373885033227e-02   3.3698856320902582e-02   1.3254815366408160e-01   1.0790866892855355e-01   2.8851843731338811e-01   2.5711372146220579e-01   4.0935880094666555e-01   4.0226804361954965e-01   3.9104622767381525e-01   4.2340134290892206e-01   2.3501630001056020e-01   2.9124808301542643e-01   8.0052470515270549e-02   1.1316203130621230e-01   1.8210457018798788e-02   2.6046954015523763e-02   3.9824931590626833e-03   5.1675036342467518e-03   1.0852785884579131e-03   1.2407873265648196e-03   3.9597839633145600e-04   4.0645315455181040e-04   1.8732600926590876e-04   1.7761465870918110e-04   1.0859450380940260e-04   9.7282861558444048e-05   7.3536616106016853e-05   6.3172693909278681e-05   5.6270088728295268e-05   4.6772078130135627e-05   4.7679602796840820e-05   3.8531314870112745e-05   4.4292386980775883e-05   3.4862191274327322e-05   4.5037283778810512e-05   3.4500921160029485e-05   5.0428093519499232e-05   3.7479809025443275e-05   6.3057068673801606e-05   4.5200033356879705e-05   9.0186133172227159e-05   6.1756563418367485e-05   4.5579662586059936e-04   9.7023832141637160e-04   9.0800839630259293e-04   2.4111888402948691e-03   2.2338240459908428e-03   7.0420079228780633e-03   6.3945201820547193e-03   2.3322894024597227e-02   2.0684596154850503e-02   7.7622159546116648e-02   6.8224359777832866e-02   2.0866287259717597e-01   1.8898628708269238e-01   3.7965823229849538e-01   3.6606986566230643e-01   4.6766539380494537e-01   4.8200544484923841e-01   4.0032666725453359e-01   4.5136913577180771e-01   2.0876339430107013e-01   2.7502432147457656e-01   5.8702915851005288e-02   9.0241081215396299e-02   1.1051894303583843e-02   1.7421838766284208e-02   2.1018932522435972e-03   3.0221424555168380e-03   5.3051217924631811e-04   6.6939157158765869e-04   1.8814372173521393e-04   2.1152951984579357e-04   8.8686335819991645e-05   9.1424784678868469e-05   5.1700272912902363e-05   5.0017855653966686e-05   3.5288229067221827e-05   3.2539048173322076e-05   2.7226346866639988e-05   2.4161987996666431e-05   2.3266868355157145e-05   1.9990255350696202e-05   2.1812462069813514e-05   1.8201819473789947e-05   2.2402325402320158e-05   1.8173593130237434e-05   2.5351836321325535e-05   1.9965337809290424e-05   3.2033086088005197e-05   2.4381961748665905e-05   4.6229400487560148e-05   3.3717010344029082e-05   2.1574654866242274e-03   5.9310733032879965e-03   6.0202386393039178e-03   1.8044482834754683e-02   1.7854168321075423e-02   5.6644689190734981e-02   5.4164818491405919e-02   1.5852111262400992e-01   1.4817103038158844e-01   3.3088316281847591e-01   3.1279195772693902e-01   4.8140262492305080e-01   4.7190858790866130e-01   5.1206061049772100e-01   5.2591053534839938e-01   3.9010680998707370e-01   4.3517316377283266e-01   1.7740678641705671e-01   2.3002094182785129e-01   4.3528944242206380e-02   6.5164144720369702e-02   7.4190690434479175e-03   1.1511859536825597e-02   1.3253668144448754e-03   1.9258970745616231e-03   3.2316211231284765e-04   4.2114449067768368e-04   1.1275836990058208e-04   1.3255172023207286e-04   5.2682874080511233e-05   5.7102457528902626e-05   3.0484761955060812e-05   3.1052881994572538e-05   2.0661526082983154e-05   2.0034699032405557e-05   1.5856174512714591e-05   1.4756329025914572e-05   1.3525288965242580e-05   1.2145017064618283e-05   1.2717996044885877e-05   1.1056743995430626e-05   1.3169358989792436e-05   1.1104230220969056e-05   1.5088779709296042e-05   1.2335612821794349e-05   1.9335083415967957e-05   1.5275373411363108e-05   2.8237690188104179e-05   2.1387441044797001e-05   1.9005517432949807e-02   5.3153602688073835e-02   5.5165027136200979e-02   1.3546910373715298e-01   1.3441819466080362e-01   2.8042940990520371e-01   2.6924731527811480e-01   4.3732649679956204e-01   4.1810648470482592e-01   5.1880547392317033e-01   5.0437321652757861e-01   4.7690280093906573e-01   4.7931837875091665e-01   3.0967563886168537e-01   3.3462170449599687e-01   1.1857057667038459e-01   1.4495776691747142e-01   2.6323408053172268e-02   3.5994120944813864e-02   4.4749091541075800e-03   6.3671684857954493e-03   8.3310119363515006e-04   1.1452252990499933e-03   2.1147311763836495e-04   2.6991478418188501e-04   7.5580564292606584e-05   8.9290203464528450e-05   3.5597761328791803e-05   3.9402024079520279e-05   2.0531437945716229e-05   2.1548776145370732e-05   1.3788573352249429e-05   1.3831921366889966e-05   1.0476497087039936e-05   1.0093142765470703e-05   8.8772883740546362e-06   8.2392548699947399e-06   8.3424997428604536e-06   7.4764800855854471e-06   8.6911895282848936e-06   7.5329213449319334e-06   1.0066801867627519e-05   8.4403567530499993e-06   1.3047584036052243e-05   1.0556437690365534e-05   1.9162713609649400e-05   1.4854903003333023e-05   1.3845760366394377e-01   2.5718080341596700e-01   2.5742393253727458e-01   3.8463151599381895e-01   3.7260432236541363e-01   4.6417027475317119e-01   4.4327649225826932e-01   4.5509824122854869e-01   4.3470386975876041e-01   3.4465848713488151e-01   3.3569680680796654e-01   1.7725653997507287e-01   1.8277485513582981e-01   5.6012336146164445e-02   6.3233569413963284e-02   1.1940025562354123e-02   1.4637333356194465e-02   2.2326574577737936e-03   2.8481199300522753e-03   4.7820721884429866e-04   6.0433072055013305e-04   1.3642509351876060e-04   1.6555615730958747e-04   5.2420102117122764e-05   6.0604665181802947e-05   2.5585566265945402e-05   2.8282272342573834e-05   1.4932603715089812e-05   1.5858454832330388e-05   1.0013407552366599e-05   1.0244601631569315e-05   7.5554182637549753e-06   7.4527056866800111e-06   6.3609951225306022e-06   6.0495986859702939e-06   5.9650713633894025e-06   5.4704865001098213e-06   6.2336738307657714e-06   5.5156763525653540e-06   7.2634485479973786e-06   6.2022236043676514e-06   9.4473757081062932e-06   7.7723805535837603e-06   1.3786640655441149e-05   1.0865734354709331e-05   3.5861042813824878e-01   4.0782142773388608e-01   3.9316254220628610e-01   3.9013984125415874e-01   3.6780973671600242e-01   3.0197492388611463e-01   2.8095990157408807e-01   1.7363474405958065e-01   1.6308434864526483e-01   6.8512177477535852e-02   6.7236686014467348e-02   1.8955394837789331e-02   1.9878144498228698e-02   4.2621939678870475e-03   4.7556115941495688e-03   9.5236089292788807e-04   1.1025417244825621e-03   2.5097280359077793e-04   2.9233641194082984e-04   8.4638908160309851e-05   9.7055450125651553e-05   3.6237862618058078e-05   4.0540874000501110e-05   1.8791815034669532e-05   2.0474335821758911e-05   1.1295265182672988e-05   1.1981141359073329e-05   7.6572557437767195e-06   7.8969623141573019e-06   5.7842064804824711e-06   5.7853198394131411e-06   4.8584058728854629e-06   4.6989845581072728e-06   4.5474355897156777e-06   4.2433444303801206e-06   4.7502719663915234e-06   4.2721526915384486e-06   5.5288450004101360e-06   4.7914476066465425e-06   7.1433250828374505e-06   5.9599363272489155e-06   1.0226698447152231e-05   8.1832751653134654e-06   3.2944857502900565e-01   2.4102959215642228e-01   2.2111849020898230e-01   1.3762174024484822e-01   1.2413848098538421e-01   5.8885968742654601e-02   5.3630260526809581e-02   1.9251228144623329e-02   1.8184664292785174e-02   5.2573845584126082e-03   5.2237260441444578e-03   1.3637452878904857e-03   1.4218197497846015e-03   3.8245992659474086e-04   4.1213144636815000e-04   1.2696480928296174e-04   1.3876413696327892e-04   5.1342771214722784e-05   5.6089828819510329e-05   2.4823041412768843e-05   2.6883418185151279e-05   1.3866257037851526e-05   1.4824576176133589e-05   8.6999479495968411e-06   9.1533854984318267e-06   6.0354932402708702e-06   6.2263989938434359e-06   4.6095005135996368e-06   4.6415733775317817e-06   3.8870122167589268e-06   3.8016426207352815e-06   3.6375604640821845e-06   3.4407444409854595e-06   3.7863946397979643e-06   3.4547036388539392e-06   4.3706639185192254e-06   3.8428638497411417e-06   5.5561342540324973e-06   4.7051527190852915e-06   7.7272864111803567e-06   6.2898125386297816e-06   1.0071820992416700e-01   4.2790721342180545e-02   3.7911685930171406e-02   1.5026984466230851e-02   1.3500353780352000e-02   4.6824113812367956e-03   4.3400899880241687e-03   1.4103577974821141e-03   1.3598796045947740e-03   4.4678132612807235e-04   4.4735916019148587e-04   1.5897680796605801e-04   1.6378922428570859e-04   6.5619501400590179e-05   6.8760146181422394e-05   3.1377463551910644e-05   3.3116893039699318e-05   1.7040575626043507e-05   1.7993221283653868e-05   1.0280728838964199e-05   1.0809522658212185e-05   6.7831610256472595e-06   7.0733238153889594e-06   4.8616067370554607e-06   5.0054576018142981e-06   3.7890872009282122e-06   3.8315101143164555e-06   3.2300832235529800e-06   3.1892291308928129e-06   3.0305918219778103e-06   2.9057742206291717e-06   3.1371875245182091e-06   2.9093998832383595e-06   3.5708074680481777e-06   3.1964651343918308e-06   4.4335994125681611e-06   3.8279959456980361e-06   5.9524677203324020e-06   4.9523803375139393e-06   6.8687826393159065e-06   1.05458267