<?xml version="1.0"?>
<VTKFile type="UnstructuredGrid"  version="0.1"  >
<UnstructuredGrid>
<Piece  NumberOfPoints="621" NumberOfCells="1125">
<Points>
<DataArray  type="Float64"  NumberOfComponents="3"  format="ascii">1.883478260869565 0 0  1.9 0 0  1.9 0.01666666666666667 0  1.883478260869565 0.01666666666666667 0  1.916521739130435 0 0  1.916521739130435 0.01666666666666667 0  1.933043478260869 0 0  1.933043478260869 0.01666666666666667 0  1.949565217391304 0 0  1.949565217391304 0.01666666666666667 0  1.966086956521739 0 0  1.966086956521739 0.01666666666666667 0  1.982608695652174 0 0  1.982608695652174 0.01666666666666667 0  1.999130434782608 0 0  1.999130434782608 0.01666666666666667 0  2.015652173913043 0 0  2.015652173913043 0.01666666666666667 0  2.032173913043478 0 0  2.032173913043478 0.01666666666666667 0  2.048695652173913 0 0  2.048695652173913 0.01666666666666667 0  2.065217391304348 0 0  2.065217391304348 0.01666666666666667 0  2.081739130434782 0 0  2.081739130434782 0.01666666666666667 0  2.098260869565217 0 0  2.098260869565217 0.01666666666666667 0  2.114782608695652 0 0  2.114782608695652 0.01666666666666667 0  2.131304347826087 0 0  2.131304347826087 0.01666666666666667 0  2.147826086956522 0 0  2.147826086956522 0.01666666666666667 0  2.164347826086956 0 0  2.164347826086956 0.01666666666666667 0  2.180869565217391 0 0  2.180869565217391 0.01666666666666667 0  2.197391304347826 0 0  2.197391304347826 0.01666666666666667 0  2.213913043478261 0 0  2.213913043478261 0.01666666666666667 0  2.230434782608695 0 0  2.230434782608695 0.01666666666666667 0  2.24695652173913 0 0  2.24695652173913 0.01666666666666667 0  2.263478260869565 0 0  2.263478260869565 0.01666666666666667 0  2.28 0 0  2.28 0.01666666666666667 0  2.296521739130434 0 0  2.296521739130434 0.01666666666666667 0  2.31304347826087 0 0  2.31304347826087 0.01666666666666667 0  2.329565217391304 0 0  2.329565217391304 0.01666666666666667 0  2.346086956521739 0 0  2.346086956521739 0.01666666666666667 0  2.362608695652174 0 0  2.362608695652174 0.01666666666666667 0  2.379130434782609 0 0  2.379130434782609 0.01666666666666667 0  2.395652173913044 0 0  2.395652173913044 0.01666666666666667 0  2.412173913043478 0 0  2.412173913043478 0.01666666666666667 0  2.428695652173913 0 0  2.428695652173913 0.01666666666666667 0  2.445217391304348 0 0  2.445217391304348 0.01666666666666667 0  2.461739130434782 0 0  2.461739130434782 0.01666666666666667 0  2.478260869565217 0 0  2.478260869565217 0.01666666666666667 0  2.494782608695652 0 0  2.494782608695652 0.01666666666666667 0  2.511304347826087 0 0  2.511304347826087 0.01666666666666667 0  2.527826086956522 0 0  2.527826086956522 0.01666666666666667 0  2.544347826086956 0 0  2.544347826086956 0.01666666666666667 0  2.560869565217391 0 0  2.560869565217391 0.01666666666666667 0  2.577391304347826 0 0  2.577391304347826 0.01666666666666667 0  1.916521739130435 0.03333333333333333 0  1.933043478260869 0.03333333333333333 0  1.949565217391304 0.03333333333333333 0  1.966086956521739 0.03333333333333333 0  1.982608695652174 0.03333333333333333 0  1.999130434782608 0.03333333333333333 0  2.015652173913043 0.03333333333333333 0  2.032173913043478 0.03333333333333333 0  2.048695652173913 0.03333333333333333 0  2.065217391304348 0.03333333333333333 0  2.081739130434782 0.03333333333333333 0  2.098260869565217 0.03333333333333333 0  2.114782608695652 0.03333333333333333 0  2.131304347826087 0.03333333333333333 0  2.147826086956522 0.03333333333333333 0  2.164347826086956 0.03333333333333333 0  2.180869565217391 0.03333333333333333 0  2.197391304347826 0.03333333333333333 0  2.213913043478261 0.03333333333333333 0  2.230434782608695 0.03333333333333333 0  2.24695652173913 0.03333333333333333 0  2.263478260869565 0.03333333333333333 0  2.28 0.03333333333333333 0  2.296521739130434 0.03333333333333333 0  2.31304347826087 0.03333333333333333 0  2.329565217391304 0.03333333333333333 0  2.346086956521739 0.03333333333333333 0  2.362608695652174 0.03333333333333333 0  2.379130434782609 0.03333333333333333 0  2.395652173913044 0.03333333333333333 0  2.412173913043478 0.03333333333333333 0  2.428695652173913 0.03333333333333333 0  2.445217391304348 0.03333333333333333 0  2.461739130434782 0.03333333333333333 0  2.478260869565217 0.03333333333333333 0  2.494782608695652 0.03333333333333333 0  2.511304347826087 0.03333333333333333 0  2.527826086956522 0.03333333333333333 0  2.544347826086956 0.03333333333333333 0  2.560869565217391 0.03333333333333333 0  2.577391304347826 0.03333333333333333 0  2.593913043478261 0.03333333333333333 0  1.933043478260869 0.05 0  1.949565217391304 0.05 0  1.966086956521739 0.05 0  1.982608695652174 0.05 0  1.999130434782608 0.05 0  2.015652173913043 0.05 0  2.032173913043478 0.05 0  2.048695652173913 0.05 0  2.065217391304348 0.05 0  2.081739130434782 0.05 0  2.098260869565217 0.05 0  2.114782608695652 0.05 0  2.131304347826087 0.05 0  2.147826086956522 0.05 0  2.164347826086956 0.05 0  2.180869565217391 0.05 0  2.197391304347826 0.05 0  2.213913043478261 0.05 0  2.230434782608695 0.05 0  2.24695652173913 0.05 0  2.263478260869565 0.05 0  2.28 0.05 0  2.296521739130434 0.05 0  2.31304347826087 0.05 0  2.329565217391304 0.05 0  2.346086956521739 0.05 0  2.362608695652174 0.05 0  2.379130434782609 0.05 0  2.395652173913044 0.05 0  2.412173913043478 0.05 0  2.428695652173913 0.05 0  2.445217391304348 0.05 0  2.461739130434782 0.05 0  2.478260869565217 0.05 0  2.494782608695652 0.05 0  2.511304347826087 0.05 0  2.527826086956522 0.05 0  2.544347826086956 0.05 0  2.560869565217391 0.05 0  2.577391304347826 0.05 0  2.593913043478261 0.05 0  2.610434782608696 0.05 0  1.949565217391304 0.06666666666666667 0  1.966086956521739 0.06666666666666667 0  1.982608695652174 0.06666666666666667 0  1.999130434782608 0.06666666666666667 0  2.015652173913043 0.06666666666666667 0  2.032173913043478 0.06666666666666667 0  2.048695652173913 0.06666666666666667 0  2.065217391304348 0.06666666666666667 0  2.081739130434782 0.06666666666666667 0  2.098260869565217 0.06666666666666667 0  2.114782608695652 0.06666666666666667 0  2.131304347826087 0.06666666666666667 0  2.147826086956522 0.06666666666666667 0  2.164347826086956 0.06666666666666667 0  2.180869565217391 0.06666666666666667 0  2.197391304347826 0.06666666666666667 0  2.213913043478261 0.06666666666666667 0  2.230434782608695 0.06666666666666667 0  2.24695652173913 0.06666666666666667 0  2.263478260869565 0.06666666666666667 0  2.28 0.06666666666666667 0  2.296521739130434 0.06666666666666667 0  2.31304347826087 0.06666666666666667 0  2.329565217391304 0.06666666666666667 0  2.346086956521739 0.06666666666666667 0  2.362608695652174 0.06666666666666667 0  2.379130434782609 0.06666666666666667 0  2.395652173913044 0.06666666666666667 0  2.412173913043478 0.06666666666666667 0  2.428695652173913 0.06666666666666667 0  2.445217391304348 0.06666666666666667 0  2.461739130434782 0.06666666666666667 0  2.478260869565217 0.06666666666666667 0  2.494782608695652 0.06666666666666667 0  2.511304347826087 0.06666666666666667 0  2.527826086956522 0.06666666666666667 0  2.544347826086956 0.06666666666666667 0  2.560869565217391 0.06666666666666667 0  2.577391304347826 0.06666666666666667 0  2.593913043478261 0.06666666666666667 0  2.610434782608696 0.06666666666666667 0  2.62695652173913 0.06666666666666667 0  1.966086956521739 0.08333333333333333 0  1.982608695652174 0.08333333333333333 0  1.999130434782608 0.08333333333333333 0  2.015652173913043 0.08333333333333333 0  2.032173913043478 0.08333333333333333 0  2.048695652173913 0.08333333333333333 0  2.065217391304348 0.08333333333333333 0  2.081739130434782 0.08333333333333333 0  2.098260869565217 0.08333333333333333 0  2.114782608695652 0.08333333333333333 0  2.131304347826087 0.08333333333333333 0  2.147826086956522 0.08333333333333333 0  2.164347826086956 0.08333333333333333 0  2.180869565217391 0.08333333333333333 0  2.197391304347826 0.08333333333333333 0  2.213913043478261 0.08333333333333333 0  2.230434782608695 0.08333333333333333 0  2.24695652173913 0.08333333333333333 0  2.263478260869565 0.08333333333333333 0  2.28 0.08333333333333333 0  2.296521739130434 0.08333333333333333 0  2.31304347826087 0.08333333333333333 0  2.329565217391304 0.08333333333333333 0  2.346086956521739 0.08333333333333333 0  2.362608695652174 0.08333333333333333 0  2.379130434782609 0.08333333333333333 0  2.395652173913044 0.08333333333333333 0  2.412173913043478 0.08333333333333333 0  2.428695652173913 0.08333333333333333 0  2.445217391304348 0.08333333333333333 0  2.461739130434782 0.08333333333333333 0  2.478260869565217 0.08333333333333333 0  2.494782608695652 0.08333333333333333 0  2.511304347826087 0.08333333333333333 0  2.527826086956522 0.08333333333333333 0  2.544347826086956 0.08333333333333333 0  2.560869565217391 0.08333333333333333 0  2.577391304347826 0.08333333333333333 0  2.593913043478261 0.08333333333333333 0  2.610434782608696 0.08333333333333333 0  2.62695652173913 0.08333333333333333 0  2.643478260869565 0.08333333333333333 0  1.982608695652174 0.1 0  1.999130434782608 0.1 0  2.015652173913043 0.1 0  2.032173913043478 0.1 0  2.048695652173913 0.1 0  2.065217391304348 0.1 0  2.081739130434782 0.1 0  2.098260869565217 0.1 0  2.114782608695652 0.1 0  2.131304347826087 0.1 0  2.147826086956522 0.1 0  2.164347826086956 0.1 0  2.180869565217391 0.1 0  2.197391304347826 0.1 0  2.213913043478261 0.1 0  2.230434782608695 0.1 0  2.24695652173913 0.1 0  2.263478260869565 0.1 0  2.28 0.1 0  2.296521739130434 0.1 0  2.31304347826087 0.1 0  2.329565217391304 0.1 0  2.346086956521739 0.1 0  2.362608695652174 0.1 0  2.379130434782609 0.1 0  2.395652173913044 0.1 0  2.412173913043478 0.1 0  2.428695652173913 0.1 0  2.445217391304348 0.1 0  2.461739130434782 0.1 0  2.478260869565217 0.1 0  2.494782608695652 0.1 0  2.511304347826087 0.1 0  2.527826086956522 0.1 0  2.544347826086956 0.1 0  2.560869565217391 0.1 0  2.5773
[...]
<PointData  Vectors="Displacement"> 
<DataArray  type="Float64"  Name="Displacement"  NumberOfComponents="3" format="ascii">2.6316128121699244e-04 2.4032130017303112e-03 0.0000000000000000e+00  2.6246528629939893e-04 2.4340396281880500e-03 0.0000000000000000e+00  2.3269323931662150e-04 2.4340766048251061e-03 0.0000000000000000e+00  2.3156089414588720e-04 2.4030873579785690e-03 0.0000000000000000e+00  2.6153431085212562e-04 2.4627693419207557e-03 0.0000000000000000e+00  2.3352499734529550e-04 2.4628957692983573e-03 0.0000000000000000e+00  2.6057506928726714e-04 2.4896179257098516e-03 0.0000000000000000e+00  2.3408278135752570e-04 2.4897636609817007e-03 0.0000000000000000e+00  2.5970657446827407e-04 2.5150083607090117e-03 0.0000000000000000e+00  2.3442779292197141e-04 2.5151599192526687e-03 0.0000000000000000e+00  2.5901334378974000e-04 2.5392462852462578e-03 0.0000000000000000e+00  2.3464338313903155e-04 2.5393786035894385e-03 0.0000000000000000e+00  2.5860205098248882e-04 2.5625944266146729e-03 0.0000000000000000e+00  2.3483787879460743e-04 2.5626668186979956e-03 0.0000000000000000e+00  2.5860365581140208e-04 2.5853376050413070e-03 0.0000000000000000e+00  2.3513438916703095e-04 2.5852993678850346e-03 0.0000000000000000e+00  2.5912454461310880e-04 2.6078489334388981e-03 0.0000000000000000e+00  2.3562781555344449e-04 2.6076656974585288e-03 0.0000000000000000e+00  2.6017539194105261e-04 2.6305908224108056e-03 0.0000000000000000e+00  2.3632783131501565e-04 2.6302744727150352e-03 0.0000000000000000e+00  2.6163029070684087e-04 2.6540403793975549e-03 0.0000000000000000e+00  2.3712280994704887e-04 2.6536596650592035e-03 0.0000000000000000e+00  2.6335183652679607e-04 2.6784256821070366e-03 0.0000000000000000e+00  2.3792759824560055e-04 2.6780202539843489e-03 0.0000000000000000e+00  2.6523384946877324e-04 2.7039440216444590e-03 0.0000000000000000e+00  2.3865432405172218e-04 2.7035483994530545e-03 0.0000000000000000e+00  2.6731426017280159e-04 2.7307764519372596e-03 0.0000000000000000e+00  2.3928012153493305e-04 2.7302541852596298e-03 0.0000000000000000e+00  2.6947402751426302e-04 2.7592339537387532e-03 0.0000000000000000e+00  2.4006698258197305e-04 2.7587377976866848e-03 0.0000000000000000e+00  2.7163455984440129e-04 2.7891073860516207e-03 0.0000000000000000e+00  2.4084328351475068e-04 2.7885958300786183e-03 0.0000000000000000e+00  2.7377165120512560e-04 2.8203404302071023e-03 0.0000000000000000e+00  2.4168191700935223e-04 2.8198345172354010e-03 0.0000000000000000e+00  2.7587056191184464e-04 2.8528245304371403e-03 0.0000000000000000e+00  2.4255128686736184e-04 2.8523283137966635e-03 0.0000000000000000e+00  2.7792838761163846e-04 2.8865132725767405e-03 0.0000000000000000e+00  2.4341359443307470e-04 2.8860220776095857e-03 0.0000000000000000e+00  2.7994654366606382e-04 2.9213690436361403e-03 0.0000000000000000e+00  2.4428045368570824e-04 2.9208800015062563e-03 0.0000000000000000e+00  2.8192540968639438e-04 2.9573385777639516e-03 0.0000000000000000e+00  2.4516785763942071e-04 2.9568520082516149e-03 0.0000000000000000e+00  2.8386611876530442e-04 2.9943555403744316e-03 0.0000000000000000e+00  2.4608187551230403e-04 2.9938711101328598e-03 0.0000000000000000e+00  2.8577055429732909e-04 3.0323559130154935e-03 0.0000000000000000e+00  2.4702271028128318e-04 3.0318731268016612e-03 0.0000000000000000e+00  2.8764015899235978e-04 3.0712796950320234e-03 0.0000000000000000e+00  2.4798958873268148e-04 3.0707981898723943e-03 0.0000000000000000e+00  2.8947564258848527e-04 3.1110683425842065e-03 0.0000000000000000e+00  2.4898249425033198e-04 3.1105877864332802e-03 0.0000000000000000e+00  2.9127708220749889e-04 3.1516628795700734e-03 0.0000000000000000e+00  2.5000232305787199e-04 3.1511830284031870e-03 0.0000000000000000e+00  2.9304411216042581e-04 3.1930023737520201e-03 0.0000000000000000e+00  2.5105057421948474e-04 3.1925231687348920e-03 0.0000000000000000e+00  2.9477625830367024e-04 3.2350232107364019e-03 0.0000000000000000e+00  2.5212872874394362e-04 3.2345447451492346e-03 0.0000000000000000e+00  2.9647315917743610e-04 3.2776599517036283e-03 0.0000000000000000e+00  2.5323748886897543e-04 3.2771824529370741e-03 0.0000000000000000e+00  2.9813452563686084e-04 3.3208469879941757e-03 0.0000000000000000e+00  2.5437629673368673e-04 3.3203708209699470e-03 0.0000000000000000e+00  2.9976010609949149e-04 3.3645197786879777e-03 0.0000000000000000e+00  2.5554353860170089e-04 3.3640453146121141e-03 0.0000000000000000e+00  3.0134979297744349e-04 3.4086154217255601e-03 0.0000000000000000e+00  2.5673734565262246e-04 3.4081428736764349e-03 0.0000000000000000e+00  3.0290372338347940e-04 3.4530726972885331e-03 0.0000000000000000e+00  2.5795635022761947e-04 3.4526020535363064e-03 0.0000000000000000e+00  3.0442220358225408e-04 3.4978318046059603e-03 0.0000000000000000e+00  2.5919995239750732e-04 3.4973628838557993e-03 0.0000000000000000e+00  3.0590547698238613e-04 3.5428337207190114e-03 0.0000000000000000e+00  2.6046826801290053e-04 3.5423663224342450e-03 0.0000000000000000e+00  3.0735357073596555e-04 3.5880191273091142e-03 0.0000000000000000e+00  2.6176193790862951e-04 3.5875531487526494e-03 0.0000000000000000e+00  3.0876635507259956e-04 3.6333275888875988e-03 0.0000000000000000e+00  2.6308175724305946e-04 3.6328630337514752e-03 0.0000000000000000e+00  3.1014369795500063e-04 3.6786975696629456e-03 0.0000000000000000e+00  2.6442827203590659e-04 3.6782345067454432e-03 0.0000000000000000e+00  3.1148555935526481e-04 3.7240670323992016e-03 0.0000000000000000e+00  2.6580157735370204e-04 3.7236055822696826e-03 0.0000000000000000e+00  3.1279202574574386e-04 3.7693740678834300e-03 0.0000000000000000e+00  2.6720131209965038e-04 3.7689144037508157e-03 0.0000000000000000e+00  3.1406335084414850e-04 3.8145574830159776e-03 0.0000000000000000e+00  2.6862668085903967e-04 3.8140997906961054e-03 0.0000000000000000e+00  3.1530000039440247e-04 3.8595575265656661e-03 0.0000000000000000e+00  2.7007650563144866e-04 3.8591018972823333e-03 0.0000000000000000e+00  3.1650259098359114e-04 3.9043166675973434e-03 0.0000000000000000e+00  2.7154946562079881e-04 3.9038629876520948e-03 0.0000000000000000e+00  2.0620238708605795e-04 2.4626458215309169e-03 0.0000000000000000e+00  2.0810273899283396e-04 2.4895696221902972e-03 0.0000000000000000e+00  2.0943942042713358e-04 2.5150804937762675e-03 0.0000000000000000e+00  2.1032698740647244e-04 2.5393959580421784e-03 0.0000000000000000e+00  2.1090110027021413e-04 2.5627139137748283e-03 0.0000000000000000e+00  2.1133363226644478e-04 2.5852692786358122e-03 0.0000000000000000e+00  2.1177843529543824e-04 2.6074798923146356e-03 0.0000000000000000e+00  2.1226716180050738e-04 2.6299591079005399e-03 0.0000000000000000e+00  2.1262091901248691e-04 2.6534021502129883e-03 0.0000000000000000e+00  2.1272697377921343e-04 2.6777917593468117e-03 0.0000000000000000e+00  2.1265629963521137e-04 2.7033581164253163e-03 0.0000000000000000e+00  2.1252995139291311e-04 2.7299098177075076e-03 0.0000000000000000e+00  2.1152309358700894e-04 2.7584562118852327e-03 0.0000000000000000e+00  2.1089969640038084e-04 2.7882947088929645e-03 0.0000000000000000e+00  2.1016957638832573e-04 2.8195552198392072e-03 0.0000000000000000e+00  2.0977241620819185e-04 2.8520388831476937e-03 0.0000000000000000e+00  2.0942148776407305e-04 2.8857358950664454e-03 0.0000000000000000e+00  2.0909556393616040e-04 2.9205986653274563e-03 0.0000000000000000e+00  2.0883450330896856e-04 2.9565746880457931e-03 0.0000000000000000e+00  2.0868952712162854e-04 2.9935884255140603e-03 0.0000000000000000e+00  2.0864512271717600e-04 3.0315789692014448e-03 0.0000000000000000e+00  2.0868854197728589e-04 3.0704906716101541e-03 0.0000000000000000e+00  2.0881664966520985e-04 3.1102661116756899e-03 0.0000000000000000e+00  2.0902976348838249e-04 3.1508473737516789e-03 0.0000000000000000e+00  2.0933131215510867e-04 3.1921750956085330e-03 0.0000000000000000e+00  2.0972666817663623e-04 3.2341859458826041e-03 0.0000000000000000e+00  2.1021848821618390e-04 3.2768136237107527e-03 0.0000000000000000e+00  2.1080562281391424e-04 3.3199922626750483e-03 0.0000000000000000e+00  2.1148574269211386e-04 3.3636575521645055e-03 0.0000000000000000e+00  2.1225638060828317e-04 3.4077465431211398e-03 0.0000000000000000e+00  2.1311472546699036e-04 3.4521975508973023e-03 0.0000000000000000e+00  2.1405723149353037e-04 3.4969501707693895e-03 0.0000000000000000e+00  2.1508119891489424e-04 3.5419450119408211e-03 0.0000000000000000e+00  2.1618791775973166e-04 3.5871228118991441e-03 0.0000000000000000e+00  2.1738178217707183e-04 3.6324234081757879e-03 0.0000000000000000e+00  2.1866640898798907e-04 3.6777854823961949e-03 0.0000000000000000e+00  2.2004283550832636e-04 3.7231471331222545e-03 0.0000000000000000e+00  2.2151068150141995e-04 3.7684465610387458e-03 0.0000000000000000e+00  2.2306886383650896e-04 3.8136226315765879e-03 0.0000000000000000e+00  2.2471463162872211e-04 3.8586155426792905e-03 0.0000000000000000e+00  2.2644202212560727e-04 3.9033676020837969e-03 0.0000000000000000e+00  2.2824281344284634e-04 3.9478234693146536e-03 0.0000000000000000e+00  1.8355238795920732e-04 2.4892081487997669e-03 0.0000000000000000e+00  1.8548172542901038e-04 2.5149453165176296e-03 0.0000000000000000e+00  1.8675879924858680e-04 2.5394793389043376e-03 0.0000000000000000e+00  1.8747791088986104e-04 2.5629042251944095e-03 0.0000000000000000e+00  1.8787890960460688e-04 2.5853464405567080e-03 0.0000000000000000e+00  1.8821832613578210e-04 2.6072514050860997e-03 0.0000000000000000e+00  1.8860993159102032e-04 2.6294641653534837e-03 0.0000000000000000e+00  1.8873077335523566e-04 2.6530433126096499e-03 0.0000000000000000e+00  1.8861727223799704e-04 2.6775161959590242e-03 0.0000000000000000e+00  1.8765202693477436e-04 2.7032299575148093e-03 0.0000000000000000e+00  1.8754390216753984e-04 2.7283682390788701e-03 0.0000000000000000e+00  1.8795099169062143e-04 2.7541089916936212e-03 0.0000000000000000e+00  1.8846776245662447e-04 2.7826866978740128e-03 0.0000000000000000e+00  1.8887917504784162e-04 2.8130248735461589e-03 0.0000000000000000e+00  1.8928304385971707e-04 2.8447050070256061e-03 0.0000000000000000e+00  1.8972516577368565e-04 2.8777171176834482e-03 0.0000000000000000e+00  1.9022086809763743e-04 2.9119683153937337e-03 0.0000000000000000e+00  1.9079025563320320e-04 2.9473859982234976e-03 0.0000000000000000e+00  1.9145019381349018e-04 2.9839016659908668e-03 0.0000000000000000e+00  1.9220298967523449e-04 3.0214631429426597e-03 0.0000000000000000e+00  1.9304317345422895e-04 3.0600125650439786e-03 0.0000000000000000e+00  1.9396450672331435e-04 3.0994894870152866e-03 0.0000000000000000e+00  1.9496117760376961e-04 3.1398329120214340e-03 0.0000000000000000e+00  1.9602819091592047e-04 3.1809799093543332e-03 0.0000000000000000e+00  1.9716132984205786e-04 3.2228644676008328e-03 0.0000000000000000e+00  1.9835639300969652e-04 3.2654184391636473e-03 0.0000000000000000e+00  1.9960896605440638e-04 3.3085730036195664e-03 0.0000000000000000e+00  2.0091514985593563e-04 3.3522594737956193e-03 0.0000000000000000e+00  2.0227214255341089e-04 3.3964100990370011e-03 0.0000000000000000e+00  2.0367827509340235e-04 3.4409586138727812e-03 0.0000000000000000e+00  2.0513287303952629e-04 3.4858403668784716e-03 0.0000000000000000e+00  2.0663634097380765e-04 3.5309918178680847e-03 0.0000000000000000e+00  2.0819033022635204e-04 3.5763498419697352e-03 0.0000000000000000e+00  2.0979725666772227e-04 3.6218517104838780e-03 0.0000000000000000e+00  2.1145912551398559e-04 3.6674351786231134e-03 0.0000000000000000e+00  2.1317657306852886e-04 3.7130382175101749e-03 0.0000000000000000e+00  2.1494865243051469e-04 3.7585988162929982e-03 0.0000000000000000e+00  2.1677297968235928e-04 3.8040553459853751e-03 0.0000000000000000e+00  2.1864585899175233e-04 3.8493471537341633e-03 0.0000000000000000e+00  2.2056260253009143e-04 3.8944148424842630e-03 0.0000000000000000e+00  2.2251858267534268e-04 3.9391996229051806e-03 0.0000000000000000e+00  2.2451103384513410e-04 3.9836416681364164e-03 0.0000000000000000e+00  1.6269518396961179e-04 2.5147765870210262e-03 0.0000000000000000e+00  1.6449259456084809e-04 2.5398439058498014e-03 0.0000000000000000e+00  1.6511115848938848e-04 2.5634426696227379e-03 0.0000000000000000e+00  1.6532799051367962e-04 2.5856879527716473e-03 0.0000000000000000e+00  1.6545685369957479e-04 2.6069902201862087e-03 0.0000000000000000e+00  1.6573849913857492e-04 2.6285526489699439e-03 0.0000000000000000e+00  1.6580838254318683e-04 2.6524358009065896e-03 0.0000000000000000e+00  1.6547770626110047e-04 2.6769620664187544e-03 0.0000000000000000e+00  1.6587451332105536e-04 2.6986227023334461e-03 0.0000000000000000e+00  1.6686100265552061e-04 2.7227421840378590e-03 0.0000000000000000e+00  1.6772464210080984e-04 2.7482548714878301e-03 0.0000000000000000e+00  1.6843672998749691e-04 2.7759638611564489e-03 0.0000000000000000e+00  1.6924241364230035e-04 2.8054845548910728e-03 0.0000000000000000e+00  1.7015193979291610e-04 2.8364583249969972e-03 0.0000000000000000e+00  1.7116067772429225e-04 2.8688013283848664e-03 0.0000000000000000e+00  1.7227829652485501e-04 2.9024444417851377e-03 0.0000000000000000e+00  1.7350441447903009e-04 2.9373191772148616e-03 0.0000000000000000e+00  1.7483599103550437e-04 2.9733609988191224e-03 0.0000000000000000e+00  1.7626676900079708e-04 3.0105144705313341e-03 0.0000000000000000e+00  1.7778866744544525e-04 3.0487225492139007e-03 0.0000000000000000e+00  1.7939116455364707e-04 3.0879251750399479e-03 0.0000000000000000e+00  1.8106231824563694e-04 3.1280600968845765e-03 0.0000000000000000e+00  1.8278998780842521e-04 3.1690620036596796e-03 0.0000000000000000e+00  1.8456272862631755e-04 3.2108618304060449e-03 0.0000000000000000e+00  1.8637043052978862e-04 3.2533874435674661e-03 0.0000000000000000e+00  1.8820492958320569e-04 3.2965649484425993e-03 0.0000000000000000e+00  1.9006048601349562e-04 3.3403199655200641e-03 0.0000000000000000e+00  1.9193386864988624e-04 3.3845789790609843e-03 0.0000000000000000e+00  1.9382405877335789e-04 3.4292703702697973e-03 0.0000000000000000e+00  1.9573172776089884e-04 3.4743248239765445e-03 0.0000000000000000e+00  1.9765865110652663e-04 3.5196750696919062e-03 0.0000000000000000e+00  1.9960707589383942e-04 3.5652553773437524e-03 0.0000000000000000e+00  2.0157902820313757e-04 3.6110013548114957e-03 0.0000000000000000e+00  2.0357568225790623e-04 3.6568497766679055e-03 0.0000000000000000e+00  2.0559691075171330e-04 3.7027381211950689e-03 0.0000000000000000e+00  2.0764108309871500e-04 3.7486040980127346e-03 0.0000000000000000e+00  2.0970513026331120e-04 3.7943855560614095e-03 0.0000000000000000e+00  2.1178488388348853e-04 3.8400206088438408e-03 0.0000000000000000e+00  2.1387568493078506e-04 3.8854475396087776e-03 0.0000000000000000e+00  2.1597320664024916e-04 3.9306041456218521e-03 0.0000000000000000e+00  2.1807423142076104e-04 3.9754267534133072e-03 0.0000000000000000e+00  2.2017700186899858e-04 4.0198501583423906e-03 0.0000000000000000e+00  1.4336981193204510e-04 2.5406091292768502e-03 0.0000000000000000e+00  1.4408969488266456e-04 2.5644813066790111e-03 0.0000000000000000e+00  1.4429145055470816e-04 2.5864279075379767e-03 0.0000000000000000e+00  1.4437501751431102e-04 2.6066814979566694e-03 0.0000000000000000e+00  1.4474452583821789e-04 2.6267055477991797e-03 0.0000000000000000e+00  1.4515643859280426e-04 2.6491446760574040e-03 0.0000000000000000e+00  1.4581893659763767e-04 2.6708433760631919e-03 0.0000000000000000e+00  1.4697864442246204e-04 2.6927404962239763e-03 0.0000000000000000e+00  1.4790511298210673e-04 2.7162460011656811e-03 0.0000000000000000e+00  1.4885231428936790e-04 2.7414253383357414e-03 0.0000000000000000e+00  1.4978368926242067e-04 2.7684698457610085e-03 0.0000000000000000e+00  1.5085188450933532e-04 2.7971990158028341e-03 0.0000000000000000e+00  1.5211207092255869e-04 2.8274305358841206e-03 0.0000000000000000e+00  1.5355228858341381e-04 2.8590890243454375e-03 0.0000000000000000e+00  1.5515661820215734e-04 2.8921160000797618e-03 0.0000000000000000e+00  1.5690776473962833e-04 2.9264497706717606e-03 0.0000000000000000e+00  1.5878923663993248e-04 2.9620262534891416e-03 0.0000000000000000e+00  1.6078598120198336e-04 2.9987858606790054e-03 0.0000000000000000e+00  1.6288332002993428e-04 3.0366706270090553e-03 0.0000000000000000e+00  1.6506480994956600e-04 3.0756213430690187e-03 0.0000000000000000e+00  1.6731203462619416e-04 3.1155755830634888e-03 0.0000000000000000e+00  1.6960589003740757e-04 3.1564661382965783e-03 0.0000000000000000e+00  1.7192824952730980e-04 3.1982202757706250e-03 0.0000000000000000e+00  1.7426353869494173e-04 3.2407603852902022e-03 0.0000000000000000e+00  1.7659992579909160e-04 3.2840057278111534e-03 0.0000000000000000e+00  1.7892982403505897e-04 3.3278746361463996e-03 0.0000000000000000e+00  1.8124963192623925e-04 3.3722866751307494e-03 0.0000000000000000e+00  1.8355894055206359e-04 3.4171642188485243e-03 0.0000000000000000e+00  1.8585948731333224e-04 3.4624331585111929e-03 0.0000000000000000e+00  1.8815406862864769e-04 3.5080227976756330e-03 0.0000000000000000e+00  1.9044553254163424e-04 3.5538653154517904e-03 0.0000000000000000e+00  1.9273595346626119e-04 3.5998951998558997e-03 0.0000000000000000e+00  1.9502609301758617e-04 3.6460486401855086e-03 0.0000000000000000e+00  1.9731514431327757e-04 3.6922627930653126e-03 0.0000000000000000e+00  1.9960069954686152e-04 3.7384750868168499e-03 0.0000000000000000e+00  2.0187893133639403e-04 3.7846227725026630e-03 0.0000000000000000e+00  2.0414501311802631e-04 3.8306426525635037e-03 0.0000000000000000e+00  2.0639374225133920e-04 3.8764707495846382e-03 0.0000000000000000e+00  2.0862023748627825e-04 3.9220417612336345e-03 0.0000000000000000e+00  2.1082051997909067e-04 3.9672885053613945e-03 0.0000000000000000e+00  2.1299187787084258e-04 4.0121419457714901e-03 0.0000000000000000e+00  2.1513318110003173e-04 4.0565317646555745e-03 0.0000000000000000e+00  1.2594790179336343e-04 2.5676156881050279e-03 0.0000000000000000e+00  1.2543700233354023e-04 2.5877717784901005e-03 0.0000000000000000e+00  1.2545585435676162e-04 2.6065032454624581e-03 0.0000000000000000e+00  1.2571502234624634e-04 2.6245484274731593e-03 0.0000000000000000e+00  1.2643087115797060e-04 2.6433113816409022e-03 0.0000000000000000e+00  1.2767888753912991e-04 2.6643038626431009e-03 0.0000000000000000e+00  1.2889838319684943e-04 2.6860032291729794e-03 0.0000000000000000e+00  1.2997650838564409e-04 2.7091652801056118e-03 0.0000000000000000e+00  1.3102524244701521e-04 2.7338696839977537e-03 0.0000000000000000e+00  1.3214221065694821e-04 2.7602515997123766e-03 0.0000000000000000e+00  1.3343809769008355e-04 2.7882198473739915e-03 0.0000000000000000e+00  1.3497681226261137e-04 2.8176848800755541e-03 0.0000000000000000e+00  1.3675628450299923e-04 2.8486359351909342e-03 0.0000000000000000e+00  1.3874681510511513e-04 2.8810381506075410e-03 0.0000000000000000e+00  1.4091734032053977e-04 2.9148316400277540e-03 0.0000000000000000e+00  1.4324296568645861e-04 2.9499482212486964e-03 0.0000000000000000e+00  1.4570334920879053e-04 2.9863235797110864e-03 0.0000000000000000e+00  1.4827850088690010e-04 3.0238993563636279e-03 0.0000000000000000e+00  1.5094580660697090e-04 3.0626179237881177e-03 0.0000000000000000e+00  1.5367982635814840e-04 3.1024175471515898e-03 0.0000000000000000e+00  1.5645399670762095e-04 3.1432293825500168e-03 0.0000000000000000e+00  1.5924319186229709e-04 3.1849762285906138e-03 0.0000000000000000e+00  1.6202628548283809e-04 3.2275733157617419e-03 0.0000000000000000e+00  1.6478791581143003e-04 3.2709310303319994e-03 0.0000000000000000e+00  1.6751898609963144e-04 3.3149585366551030e-03 0.0000000000000000e+00  1.7021597596005451e-04 3.3595671253964995e-03 0.0000000000000000e+00  1.7287951679526218e-04 3.4046724825790523e-03 0.0000000000000000e+00  1.7551271690436498e-04 3.4501956432286172e-03 0.0000000000000000e+00  1.7811958040981818e-04 3.4960628354900303e-03 0.0000000000000000e+00  1.8070370863738306e-04 3.5422046651786671e-03 0.0000000000000000e+