<?xml version="1.0"?>
<VTKFile type="UnstructuredGrid"  version="0.1"  >
<UnstructuredGrid>
<Piece  NumberOfPoints="608" NumberOfCells="1117">
<Points>
<DataArray  type="Float64"  NumberOfComponents="3"  format="ascii">0.08260869565217391 0 0  0.09913043478260869 0 0  0.09913043478260869 0.01666666666666667 0  0.1156521739130435 0 0  0.1156521739130435 0.01666666666666667 0  0.1321739130434783 0 0  0.1321739130434783 0.01666666666666667 0  0.148695652173913 0 0  0.148695652173913 0.01666666666666667 0  0.1652173913043478 0 0  0.1652173913043478 0.01666666666666667 0  0.1817391304347826 0 0  0.1817391304347826 0.01666666666666667 0  0.1982608695652174 0 0  0.1982608695652174 0.01666666666666667 0  0.2147826086956522 0 0  0.2147826086956522 0.01666666666666667 0  0.2313043478260869 0 0  0.2313043478260869 0.01666666666666667 0  0.2478260869565218 0 0  0.2478260869565218 0.01666666666666667 0  0.2643478260869565 0 0  0.2643478260869565 0.01666666666666667 0  0.2808695652173913 0 0  0.2808695652173913 0.01666666666666667 0  0.2973913043478261 0 0  0.2973913043478261 0.01666666666666667 0  0.3139130434782609 0 0  0.3139130434782609 0.01666666666666667 0  0.3304347826086956 0 0  0.3304347826086956 0.01666666666666667 0  0.3469565217391304 0 0  0.3469565217391304 0.01666666666666667 0  0.3634782608695652 0 0  0.3634782608695652 0.01666666666666667 0  0.3799999999999999 0 0  0.3799999999999999 0.01666666666666667 0  0.3965217391304348 0 0  0.3965217391304348 0.01666666666666667 0  0.4130434782608696 0 0  0.4130434782608696 0.01666666666666667 0  0.4295652173913043 0.01666666666666667 0  0.1156521739130435 0.03333333333333333 0  0.1321739130434783 0.03333333333333333 0  0.148695652173913 0.03333333333333333 0  0.1652173913043478 0.03333333333333333 0  0.1817391304347826 0.03333333333333333 0  0.1982608695652174 0.03333333333333333 0  0.2147826086956522 0.03333333333333333 0  0.2313043478260869 0.03333333333333333 0  0.2478260869565218 0.03333333333333333 0  0.2643478260869565 0.03333333333333333 0  0.2808695652173913 0.03333333333333333 0  0.2973913043478261 0.03333333333333333 0  0.3139130434782609 0.03333333333333333 0  0.3304347826086956 0.03333333333333333 0  0.3469565217391304 0.03333333333333333 0  0.3634782608695652 0.03333333333333333 0  0.3799999999999999 0.03333333333333333 0  0.3965217391304348 0.03333333333333333 0  0.4130434782608696 0.03333333333333333 0  0.4295652173913043 0.03333333333333333 0  0.4460869565217391 0.03333333333333333 0  0.1321739130434783 0.05 0  0.148695652173913 0.05 0  0.1652173913043478 0.05 0  0.1817391304347826 0.05 0  0.1982608695652174 0.05 0  0.2147826086956522 0.05 0  0.2313043478260869 0.05 0  0.2478260869565218 0.05 0  0.2643478260869565 0.05 0  0.2808695652173913 0.05 0  0.2973913043478261 0.05 0  0.3139130434782609 0.05 0  0.3304347826086956 0.05 0  0.3469565217391304 0.05 0  0.3634782608695652 0.05 0  0.3799999999999999 0.05 0  0.3965217391304348 0.05 0  0.4130434782608696 0.05 0  0.4295652173913043 0.05 0  0.4460869565217391 0.05 0  0.4626086956521739 0.05 0  0.148695652173913 0.06666666666666667 0  0.1652173913043478 0.06666666666666667 0  0.1817391304347826 0.06666666666666667 0  0.1982608695652174 0.06666666666666667 0  0.2147826086956522 0.06666666666666667 0  0.2313043478260869 0.06666666666666667 0  0.2478260869565218 0.06666666666666667 0  0.2643478260869565 0.06666666666666667 0  0.2808695652173913 0.06666666666666667 0  0.2973913043478261 0.06666666666666667 0  0.3139130434782609 0.06666666666666667 0  0.3304347826086956 0.06666666666666667 0  0.3469565217391304 0.06666666666666667 0  0.3634782608695652 0.06666666666666667 0  0.3799999999999999 0.06666666666666667 0  0.3965217391304348 0.06666666666666667 0  0.4130434782608696 0.06666666666666667 0  0.4295652173913043 0.06666666666666667 0  0.4460869565217391 0.06666666666666667 0  0.4626086956521739 0.06666666666666667 0  0.4791304347826086 0.06666666666666667 0  0.1652173913043478 0.08333333333333333 0  0.1817391304347826 0.08333333333333333 0  0.1982608695652174 0.08333333333333333 0  0.2147826086956522 0.08333333333333333 0  0.2313043478260869 0.08333333333333333 0  0.2478260869565218 0.08333333333333333 0  0.2643478260869565 0.08333333333333333 0  0.2808695652173913 0.08333333333333333 0  0.2973913043478261 0.08333333333333333 0  0.3139130434782609 0.08333333333333333 0  0.3304347826086956 0.08333333333333333 0  0.3469565217391304 0.08333333333333333 0  0.3634782608695652 0.08333333333333333 0  0.3799999999999999 0.08333333333333333 0  0.3965217391304348 0.08333333333333333 0  0.4130434782608696 0.08333333333333333 0  0.4295652173913043 0.08333333333333333 0  0.4460869565217391 0.08333333333333333 0  0.4626086956521739 0.08333333333333333 0  0.4791304347826086 0.08333333333333333 0  0.4956521739130435 0.08333333333333333 0  0.1817391304347826 0.1 0  0.1982608695652174 0.1 0  0.2147826086956522 0.1 0  0.2313043478260869 0.1 0  0.2478260869565218 0.1 0  0.2643478260869565 0.1 0  0.2808695652173913 0.1 0  0.2973913043478261 0.1 0  0.3139130434782609 0.1 0  0.3304347826086956 0.1 0  0.3469565217391304 0.1 0  0.3634782608695652 0.1 0  0.3799999999999999 0.1 0  0.3965217391304348 0.1 0  0.4130434782608696 0.1 0  0.4295652173913043 0.1 0  0.4460869565217391 0.1 0  0.4626086956521739 0.1 0  0.4791304347826086 0.1 0  0.4956521739130435 0.1 0  0.5121739130434783 0.1 0  0.1982608695652174 0.1166666666666667 0  0.2147826086956522 0.1166666666666667 0  0.2313043478260869 0.1166666666666667 0  0.2478260869565218 0.1166666666666667 0  0.2643478260869565 0.1166666666666667 0  0.2808695652173913 0.1166666666666667 0  0.2973913043478261 0.1166666666666667 0  0.3139130434782609 0.1166666666666667 0  0.3304347826086956 0.1166666666666667 0  0.3469565217391304 0.1166666666666667 0  0.3634782608695652 0.1166666666666667 0  0.3799999999999999 0.1166666666666667 0  0.3965217391304348 0.1166666666666667 0  0.4130434782608696 0.1166666666666667 0  0.4295652173913043 0.1166666666666667 0  0.4460869565217391 0.1166666666666667 0  0.4626086956521739 0.1166666666666667 0  0.4791304347826086 0.1166666666666667 0  0.4956521739130435 0.1166666666666667 0  0.5121739130434783 0.1166666666666667 0  0.528695652173913 0.1166666666666667 0  0.2147826086956522 0.1333333333333333 0  0.2313043478260869 0.1333333333333333 0  0.2478260869565218 0.1333333333333333 0  0.2643478260869565 0.1333333333333333 0  0.2808695652173913 0.1333333333333333 0  0.2973913043478261 0.1333333333333333 0  0.3139130434782609 0.1333333333333333 0  0.3304347826086956 0.1333333333333333 0  0.3469565217391304 0.1333333333333333 0  0.3634782608695652 0.1333333333333333 0  0.3799999999999999 0.1333333333333333 0  0.3965217391304348 0.1333333333333333 0  0.4130434782608696 0.1333333333333333 0  0.4295652173913043 0.1333333333333333 0  0.4460869565217391 0.1333333333333333 0  0.4626086956521739 0.1333333333333333 0  0.4791304347826086 0.1333333333333333 0  0.4956521739130435 0.1333333333333333 0  0.5121739130434783 0.1333333333333333 0  0.528695652173913 0.1333333333333333 0  0.5452173913043478 0.1333333333333333 0  0.2313043478260869 0.15 0  0.2478260869565218 0.15 0  0.2643478260869565 0.15 0  0.2808695652173913 0.15 0  0.2973913043478261 0.15 0  0.3139130434782609 0.15 0  0.3304347826086956 0.15 0  0.3469565217391304 0.15 0  0.3634782608695652 0.15 0  0.3799999999999999 0.15 0  0.3965217391304348 0.15 0  0.4130434782608696 0.15 0  0.4295652173913043 0.15 0  0.4460869565217391 0.15 0  0.4626086956521739 0.15 0  0.4791304347826086 0.15 0  0.4956521739130435 0.15 0  0.5121739130434783 0.15 0  0.528695652173913 0.15 0  0.5452173913043478 0.15 0  0.5617391304347825 0.15 0  0.2478260869565218 0.1666666666666667 0  0.2643478260869565 0.1666666666666667 0  0.2808695652173913 0.1666666666666667 0  0.2973913043478261 0.1666666666666667 0  0.3139130434782609 0.1666666666666667 0  0.3304347826086956 0.1666666666666667 0  0.3469565217391304 0.1666666666666667 0  0.3634782608695652 0.1666666666666667 0  0.3799999999999999 0.1666666666666667 0  0.3965217391304348 0.1666666666666667 0  0.4130434782608696 0.1666666666666667 0  0.4295652173913043 0.1666666666666667 0  0.4460869565217391 0.1666666666666667 0  0.4626086956521739 0.1666666666666667 0  0.4791304347826086 0.1666666666666667 0  0.4956521739130435 0.1666666666666667 0  0.5121739130434783 0.1666666666666667 0  0.528695652173913 0.1666666666666667 0  0.5452173913043478 0.1666666666666667 0  0.5617391304347825 0.1666666666666667 0  0.5782608695652174 0.1666666666666667 0  0.2643478260869565 0.1833333333333333 0  0.2808695652173913 0.1833333333333333 0  0.2973913043478261 0.1833333333333333 0  0.3139130434782609 0.1833333333333333 0  0.3304347826086956 0.1833333333333333 0  0.3469565217391304 0.1833333333333333 0  0.3634782608695652 0.1833333333333333 0  0.3799999999999999 0.1833333333333333 0  0.3965217391304348 0.1833333333333333 0  0.4130434782608696 0.1833333333333333 0  0.4295652173913043 0.1833333333333333 0  0.4460869565217391 0.1833333333333333 0  0.4626086956521739 0.1833333333333333 0  0.4791304347826086 0.1833333333333333 0  0.4956521739130435 0.1833333333333333 0  0.5121739130434783 0.1833333333333333 0  0.528695652173913 0.1833333333333333 0  0.5452173913043478 0.1833333333333333 0  0.5617391304347825 0.1833333333333333 0  0.5782608695652174 0.1833333333333333 0  0.2808695652173913 0.2 0  0.2973913043478261 0.2 0  0.3139130434782609 0.2 0  0.3304347826086956 0.2 0  0.3469565217391304 0.2 0  0.3634782608695652 0.2 0  0.3799999999999999 0.2 0  0.3965217391304348 0.2 0  0.4130434782608696 0.2 0  0.4295652173913043 0.2 0  0.4460869565217391 0.2 0  0.4626086956521739 0.2 0  0.4791304347826086 0.2 0  0.4956521739130435 0.2 0  0.5121739130434783 0.2 0  0.528695652173913 0.2 0  0.5452173913043478 0.2 0  0.5617391304347825 0.2 0  0.5782608695652174 0.2 0  0.2973913043478261 0.2166666666666667 0  0.3139130434782609 0.2166666666666667 0  0.3304347826086956 0.2166666666666667 0  0.3469565217391304 0.2166666666666667 0  0.36347826086956
[...]
<CellData  Scalars="rho"> 
<DataArray  type="Float64"  Name="rho"  format="ascii">7.8999464160347621e-01   7.8482230484485493e-01   7.8357985246989947e-01   7.7971698053348726e-01   7.7851071978496589e-01   7.7477008822864990e-01   7.7356418837513075e-01   7.7004383558772449e-01   7.6881391104829067e-01   7.6557702026646801e-01   7.6430753176403798e-01   7.6138964372147255e-01   7.6007182192445155e-01   7.5748735243920284e-01   7.5611745328961066e-01   7.5386507471686226e-01   7.5244294303861947e-01   7.5051044975673120e-01   7.4903834540663283e-01   7.4740641128308216e-01   7.4588806930942675e-01   7.4453357850881330e-01   7.4297346172469403e-01   7.4187178994954817e-01   7.4027455273603004e-01   7.3940148511564618e-01   7.3777159103077317e-01   7.3710432324371766e-01   7.3544581742784798e-01   7.3496375987859353e-01   7.3328015425257353e-01   7.3296510894731082e-01   7.3125931067992334e-01   7.3109567824140265e-01   7.2937003676126733e-01   7.2934441166378428e-01   7.2758191417008011e-01   7.2770185519782205e-01   7.2565881425582179e-01   7.2384001642281481e-01   7.7063178189470982e-01   7.6585171361680382e-01   7.5909828405642443e-01   7.6119176004535827e-01   7.5457375328093190e-01   7.5672380578915766e-01   7.5020079446614352e-01   7.5249295546607387e-01   7.4603725969647394e-01   7.4852351931035033e-01   7.4211689552218330e-01   7.4482388158267510e-01   7.3845490684768711e-01   7.4139094138930040e-01   7.3499923377378074e-01   7.3821359743439707e-01   7.3149649881844725e-01   7.3527583870302804e-01   7.2825434621006468e-01   7.3255894039623282e-01   7.2525139547779149e-01   7.2989050863724858e-01   7.2246519055875580e-01   7.2726824748827534e-01   7.1987357173443633e-01   7.2481944407616494e-01   7.1745592784235701e-01   7.2252574928357971e-01   7.1519349154313272e-01   7.2037123398179426e-01   7.1272628501693236e-01   7.1834218882530931e-01   7.0971616977679897e-01   7.1642699414694977e-01   7.0686456453056057e-01   7.1388799476107867e-01   7.0415734163027754e-01   7.1128866017758541e-01   7.0158259416689961e-01   6.9912998211654720e-01   7.3574658771496593e-01   7.3123440444323606e-01   7.1805745300113522e-01   7.2687674353588372e-01   7.1393204677834288e-01   7.2273568146819167e-01   7.0997811053711801e-01   7.1884514897615726e-01   7.0624324495749413e-01   7.1521842203174324e-01   7.0149626009353139e-01   7.1185402662844355e-01   6.9677171267934324e-01   7.0874078256768480e-01   6.9236911965967751e-01   7.0469503287576374e-01   6.8827102392388861e-01   7.0074640474079986e-01   6.8445413729492888e-01   6.9705999039631295e-01   6.8089248474350383e-01   6.9360893819177794e-01   6.7756000096957436e-01   6.9036815760715631e-01   6.7428319017967897e-01   6.8731508366444150e-01   6.7070656709183185e-01   6.8442979262643133e-01   6.6731200209628438e-01   6.8169520128447625e-01   6.6396001789791903e-01   6.7909661730943061e-01   6.6050588813385180e-01   6.7620783507603144e-01   6.5719177066966339e-01   6.7329002449077791e-01   6.5400495786893809e-01   6.7048983901018955e-01   6.5093481946278686e-01   6.4797209214608198e-01   6.7688265713918017e-01   6.7192916453950347e-01   6.4170754318974088e-01   6.6579979123489608e-01   6.3609937134333039e-01   6.5993976035712154e-01   6.3069301668068289e-01   6.5439995193409306e-01   6.2555039725514494e-01   6.4919319214997784e-01   6.2069865335299346e-01   6.4431224934416742e-01   6.1614070848065672e-01   6.3973772184705924e-01   6.1186421176082673e-01   6.3544352090732825e-01   6.0784774137207598e-01   6.3140114233550082e-01   6.0406585295776294e-01   6.2758210824741523e-01   6.0049194763784741e-01   6.2395992542187717e-01   5.9710064853765799e-01   6.2051072259134687e-01   5.9386873137154761e-01   6.1721379683480859e-01   5.9077589069523195e-01   6.1405140055472196e-01   5.8780459401885199e-01   6.1100868733430325e-01   5.8494021163982135e-01   6.0807311013092680e-01   5.8217037566700236e-01   6.0523423475860116e-01   5.7948491198746777e-01   6.0248312624097577e-01   5.7687512613398162e-01   5.9981230318267720e-01   5.7433380923756461e-01   5.7185468742296597e-01   5.7172525246402228e-01   5.6744166666860529e-01   5.3314898505729535e-01   5.6328082093548471e-01   5.2958357738988748e-01   5.5930361126569239e-01   5.2613724003267803e-01   5.5553803185299666e-01   5.2285206611060986e-01   5.5198955601809507e-01   5.1974409423608947e-01   5.4864919894296660e-01   5.1681186865980744e-01   5.4549979576164775e-01   5.1404354208789182e-01   5.4252024917573127e-01   5.1142157432213164e-01   5.3968863690661484e-01   5.0892647310000549e-01   5.3698390725313283e-01   5.0653874406914612e-01   5.3438712249971321e-01   5.0424051824648208e-01   5.3188168902112654e-01   5.0201592093779257e-01   5.2945359904729239e-01   4.9985150390891725e-01   5.2709113499890037e-01   4.9773595787856684e-01   5.2478471717784314e-01   4.9566015809939917e-01   5.2252632868349902e-01   4.9361650389629619e-01   5.2030938753264122e-01   4.9159884836269424e-01   5.1812828633677332e-01   4.8960196793823801e-01   5.1597830310581771e-01   4.8762154844585470e-01   4.8565373016542279e-01   4.5962205425901509e-01   4.5741146432215268e-01   4.2175574354521089e-01   4.5524404373941080e-01   4.2022565451581095e-01   4.5315933978949052e-01   4.1872574000752327e-01   4.5117356611728654e-01   4.1728135830521801e-01   4.4928755900538608e-01   4.1590026934526397e-01   4.4749280936963903e-01   4.1457897638085617e-01   4.4577596719693835e-01   4.1330775878523973e-01   4.4412180141956797e-01   4.1207389840551073e-01   4.4251528586782751e-01   4.1086416861698771e-01   4.4094260810249547e-01   4.0966600338351850e-01   4.3939180221573398e-01   4.0846842098036473e-01   4.3785276312770466e-01   4.0726205776592278e-01   4.3631733565203562e-01   4.0603940299886715e-01   4.3477899182237478e-01   4.0479447532697455e-01   4.3323255438551445e-01   4.0352271988049299e-01   4.3167378743205470e-01   4.0222044102445387e-01   4.3009922059316363e-01   4.0088472446542539e-01   4.2850585674616087e-01   3.9951302026597246e-01   4.2689105227143415e-01   3.9810314195730706e-01   3.9665294497763443e-01   3.4990407771655885e-01   3.4971314312376672e-01   3.1520617671061968e-01   3.4948219157288740e-01   3.1564021336414400e-01   3.4923329369819872e-01   3.1601421502338473e-01   3.4897390618391205e-01   3.1634062107842875e-01   3.4870234120197829e-01   3.1662164108056701e-01   3.4841182025631318e-01   3.1685340423448999e-01   3.4809334814792503e-01   3.1702915304277740e-01   3.4773751850899987e-01   3.1714113101942598e-01   3.4733565560438689e-01   3.1718198405980330e-01   3.4688031517436280e-01   3.1714528432462574e-01   3.4636551520651887e-01   3.1702596518122167e-01   3.4578665457067992e-01   3.1682018239817089e-01   3.4514044181246678e-01   3.1652536856162361e-01   3.4442454109004988e-01   3.1613988368810048e-01   3.4363725853633720e-01   3.1566276354148581e-01   3.4277719757595476e-01   3.1509327290215072e-01   3.4184311124092231e-01   3.1443075378894569e-01   3.4083371874054247e-01   3.1367440030300126e-01   3.3974764396860457e-01   3.1282323586975719e-01   3.1187598875637212e-01   2.7918399763056101e-01   2.5137596776398924e-01   2.5194440145518099e-01   2.5298207939272793e-01   2.5349749771997199e-01   2.5447214793340706e-01   2.5490519749547674e-01   2.5584797824792216e-01   2.5617893413721543e-01   2.5710722883287662e-01   2.5732481984654032e-01   2.5824573666834227e-01   2.5834573371399122e-01   2.5925900033620675e-01   2.5924291760532608e-01   2.6014300025392695e-01   2.6001683373064188e-01   2.6089468332069632e-01   2.6066783581519470e-01   2.6151207244901331e-01   2.6119639102155962e-01   2.6199425179945290e-01   2.6160325453712996e-01   2.8544660208733896e-01   2.6188935591472851e-01   2.8530350265286070e-01   2.6205578617560410e-01   2.8505851967026352e-01   2.6210349934332750e-01   2.8471162908193048e-01   2.6203313809745793e-01   2.8426241630903459e-01   2.6184482612165322e-01   2.8371010444471351e-01   2.6153818104697096e-01   2.8305353120331189e-01   2.6111226327091203e-01   2.8229128327016895e-01   2.6056574112906372e-01   2.5989695237453359e-01   2.0057513135846702e-01   2.0312625998770137e-01   1.7879185583582050e-01   2.0548163766898953e-01   1.8171442512707175e-01   2.0765128020310944e-01   1.8442280492058996e-01   2.0964169668506799e-01   1.8692460269568420e-01   2.1145737620728505e-01   1.8922551063663162e-01   2.1310177231071750e-01   1.9133020100170667e-01   2.1457790070077912e-01   1.9324293860028707e-01   2.1588863648138537e-01   1.9496779294237279e-01   2.1703690345182883e-01   1.9650883916983339e-01   2.1802565330916068e-01   1.9787010795841722e-01   2.1885782182991786e-01   1.9905557390378034e-01   2.1953610681340335e-01   2.0006891269231275e-01   2.2006277303824989e-01   2.0091333406855569e-01   2.2043936339939477e-01   2.0159123948285107e-01   2.2066660593079448e-01   2.0210409818296332e-01   2.2074431500157141e-01   2.0245228043531197e-01   2.2067150423230075e-01   2.0263515177886951e-01   2.2044650376566216e-01   2.0265115211856602e-01   2.2006723631218877e-01   2.0249810948681249e-01   2.0217345728445865e-01   1.3757829337819602e-01   1.4141347825004630e-01   1.2181848640927630e-01   1.4498661426221002e-01   1.2594356778914301e-01   1.4830483088323412e-01   1.2978724678193446e-01   1.5137473780367544e-01   1.3335645852878800e-01   1.5420281497932592e-01   1.3665839900281462e-01   1.5679556076397630e-01   1.3970053344156408e-01   1.5915950545793431e-01   1.4249054437014730e-01   1.6130111817964579e-01   1.4503612730524257e-01   1.6322672838551266e-01   1.4734487095014917e-01   1.6494232659598720e-01   1.4942401000991654e-01   1.6645333368168044e-01   1.5128021889344051e-01   1.6776424991097846e-01   1.5291920760538172e-01   1.6887841327515388e-01   1.5434545307904332e-01   1.6979775388460094e-01   1.5556187775820832e-01   1.7052274947374707e-01   1.5656976878658574e-01   1.7105245918030632e-01   1.5736872955493802e-01   1.7138479056179418e-01   1.5795692982436493e-01   1.7151677843943763e-01   1.5833136534604594e-01   1.7144500466178994e-01   1.5848831027375981e-01   1.5842369460598507e-01   9.1402996074282775e-02   9.6321174427309711e-02   8.1525751480448785e-02   1.0091242508748816e-01   8.6633244960970704e-02   1.0518449879388124e-01   9.1396079820898243e-02   1.0914630418518637e-01   9.5823377943057467e-02   1.1280757401872722e-01   9.9925576159352561e-02   1.1617848741651865e-01   1.0371390273957215e-01   1.1926932474822748e-01   1.0719993561157098e-01   1.2209011380318914e-01   1.1039512955081067e-01   1.2465032364395728e-01   1.1331045499836800e-01   1.2695846361844909e-01   1.1595594063676712e-01   1.2902169363738028e-01   1.1834027119269190e-01   1.3084540978733966e-01   1.2047029581934537e-01   1.3243300552199666e-01   1.2235072974883336e-01   1.3378573443528671e-01   1.2398392779794255e-01   1.3490281246648106e-01   1.2536994018667774e-01   1.3578164540649509e-01   1.2650666701175031e-01   1.3641825994146159e-01   1.2739027949301371e-01   1.3680774165984064e-01   1.2801564919376116e-01   1.3694477684687623e-01   1.2837692262832731e-01   6.1235682072081681e-02   6.6975183684935033e-02   5.6465750124642444e-02   7.2329372419171339e-02   6.2276276502307389e-02   7.7309316632481931e-02   6.7688686957575642e-02   8.1927874753624286e-02   7.2716227932790103e-02   8.6198973596730108e-02   7.7373716652908556e-02   9.0136939043511347e-02   8.1676737447871642e-02   9.3755914596908255e-02   8.5640968074566712e-02   9.7069228884154118e-02   8.9281443253108869e-02   1.0008888858556284e-01   9.2611938974645272e-02   1.0282503192416119e-01   9.5644373196155819e-02   1.0528548005402473e-01   9.8388315839580423e-02   1.0747536090972704e-01   1.0085053380342612e-01   1.0939698912412989e-01   1.0303478394112180e-01   1.1104992217571928e-01   1.0494177873977324e-01   1.1243125464080515e-01   1.0656943129769135e-01   1.1353601593968934e-01   1.0791319528159408e-01   1.1435774314502410e-01   1.0896661858921200e-01   1.1488903153613833e-01   1.0972189762051385e-01   4.4609663739742289e-02   5.0854197692649560e-02   4.3749426481958176e-02   5.6669056314120773e-02   4.9938358064753746e-02   6.2070053852421821e-02   5.5692771613910036e-02   6.7074744483706594e-02   6.1030794473230593e-02   7.1701554103703782e-02   6.5971896896667728e-02   7.5968916534562059e-02   7.0535964214353250e-02   7.9894248489026029e-02   7.4742238823605561e-02   8.3493170734271718e-02   7.8608249668961003e-02   8.6778974163552777e-02   8.2149206513751655e-02   8.9762066816942404e-02   8.5377446914243274e-02   9.2449594859406806e-02   8.8302000149141718e-02   9.4845218692446526e-02   9.0928268343850774e-02   9.6949187614217502e-02   9.3258000228338578e-02   9.8758563804488164e-02   9.5289434020021421e-02   1.0026767195721817e-01   9.7017681164207892e-02   1.0146859773664467e-01   9.8435177410495345e-02   1.0235184484991418e-01   9.9532303640548006e-02   6.3426839585311520e-02   5.8949851853213067e-02   4.4547613835213884e-02   6.5022099739238587e-02   5.0500031722175591e-02   7.0688167489102241e-02   5.6020207726175719e-02   5.1896937075599614e-02   6.1130148160321342e-02   5.7252730279140907e-02   6.5852396372583402e-02   6.2206737086706668e-02   7.0208251696842222e-02   6.6782068254244265e-02   7.4216721522020718e-02   7.0999658895862669e-02   7.7894014518641988e-02   7.4877601817629105e-02   8.1253096155482429e-02   7.8430810358047970e-02   8.4303213775524383e-02   8.1670532573189444e-02   8.7049658278927425e-02   8.4604015957702505e-02   8.9493710315679653e-02   8.7234336828386203e-02   9.1632855566030083e-02   8.9560520609986705e-02   9.3461092812598220e-02   9.1577762271052410e-02   9.4969442284464717e-02   9.3277857681803911e-02   9.6146468969888862e-02   9.4649661690189527e-02   5.7686327788754058e-02   5.4674572203917901e-02   6.3770371829156847e-02   6.0926638043152334e-02   6.9443639589131495e-02   6.6760443175385265e-02   7.4724293136078077e-02   7.2193835171425733e-02   5.5852327823998869e-02   7.7246454994543579e-02   6.0806001450835256e-02   5.8346356437654609e-02   6.5383524205542679e-02   6.3070851752914797e-02   6.9606632436733651e-02   6.7434761659440692e-02   7.3493954356703764e-02   7.1458434198956103e-02   7.7060677081056642e-02   7.5158888004497063e-02   8.0318112688579926e-02   7.8549425420197133e-02   8.3273313223664797e-02   8.1639160707426203e-02   8.5928962539378151e-02   8.4432796209045702e-02   8.8283408903343533e-02   8.6930542796115132e-02   9.0330909166002574e-02   8.9128271868378892e-02   9.2061903603419037e-02   9.1017690094157305e-02   9.3463490985086148e-02   9.2586708692269482e-02   9.3819863094116537e-02   5.6390906661373773e-02   6.2460017332895190e-02   6.0936526049904190e-02   6.8119720579988247e-02   6.6663906554011512e-02   7.3388920541889502e-02   7.1999189823366311e-02   7.8288006118109904e-02   7.6962349008667386e-02   5.9305039908380520e-02   5.7932313647172273e-02   6.3882117791840859e-02   6.2577485606046521e-02   6.8112491398337666e-02   6.6874133934087893e-02   7.2016523893239009e-02   7.0844082155104668e-02   7.5611228283286674e-02   7.4505976369661872e-02   7.8909772894512675e-02   7.7874869425264448e-02   8.1921062413206916e-02   8.0961735122952599e-02   8.4649450958693861e-02   8.3773071943777352e-02   8.7094678298647255e-02   8.6310749036032058e-02   8.9251855484411946e-02   8.8571886947822767e-02   9.1111591439162559e-02   9.0548888631564614e-02   9.2660141710322733e-02   9.2229444578725103e-02   9.3879808129791659e-02   9.3596768760625851e-02   9.4629992653796763e-02   6.5347378526127931e-02   4.6127042616038547e-02   4.6359579984709930e-02   5.1606371114004103e-02   5.1818710956949426e-02   5.6685048704427865e-02   5.6880381693924412e-02   6.1388716461782629e-02   6.1569392037721021e-02   6.5743229149452589e-02   6.5911181611078007e-02   6.9772729809427364e-02   6.9930406627057434e-02   7.3498610909006279e-02   7.3649435825975038e-02   7.6939209086648211e-02   7.7087906436483861e-02   8.0109332936745076e-02   8.0262290573335532e-02   8.3019716334087237e-02   8.3185282442558184e-02   8.5676672007510335e-02   8.5865370466843144e-02   8.8081813268666320e-02   8.8306474110888475e-02   9.0231871285922555e-02   9.0507694419735649e-02   9.2118468833968112e-02   9.2462977280259387e-02   9.3727997398501808e-02   9.4160856950659830e-02   9.5041572163323013e-02   9.5584194482953813e-02   9.6035372953134052e-02   9.6710245679504869e-02   9.7511117558134741e-02   5.4945395132580718e-02   5.9882406770617881e-02   6.2741142070460124e-02   6.4457203269418853e-02   6.7212377320054542e-02   6.8693633194670117e-02   7.1352312538017090e-02   7.2615741660062738e-02   7.5184253309138291e-02   7.6246731869179865e-02   7.8731234171866282e-02   7.9608023852643595e-02   8.2015029381750107e-02   8.2718667685871175e-02   8.5055516086877905e-02   8.5594726463339946e-02   8.7870048869723605e-02   8.8248713870789031e-02   9.0472859192093302e-02   9.0689093863749515e-02   9.2874485359084893e-02   9.2919899589426924e-02   9.5081337250709358e-02   9.4940268904118996e-02   9.7095183579927746e-02   9.6743936656858084e-02   9.8912585299885142e-02   9.8318624662209919e-02   1.0052414385247228e-01   9.9645554786809656e-02   1.0191380203747576e-01   1.0069918513061427e-01   1.0305824139997263e-01   1.0144760374584648e-01   1.0392683167866368e-01   1.0448238182419131e-01   7.6570944107636596e-02   8.0438141959171261e-02   8.6879281763472552e-02   8.4013959479907738e-02   9.0287744838365463e-02   8.7320037121053670e-02   9.3435791268502932e-02   9.0377756253003164e-02   9.6344175293076040e-02   9.3207618306903758e-02   9.9033205469221425e-02   9.5828603374926810e-02   1.0152215460266885e-01   9.8257541364132520e-02   1.0382866617002084e-01   1.0050848228345304e-01   1.0596810832309095e-01   1.0259217644527646e-01   1.0795303316651000e-01   1.0451550455656043e-01   1.0979259185166068e-01   1.0628084538504902e-01   1.1149189981817542e-01   1.0788519286490196e-01   1.1305113689648552e-01   1.0931911188926029e-01   1.1446443255444638e-01   1.1056557290222860e-01   1.1571849854409716e-01   1.1159901017034023e-01   1.1679133954496010e-01   1.1238491883491279e-01   1.1765130025467778e-01   1.1288063292499868e-01   1.1825713680103947e-01   1.1855958368468929e-01   1.0774736874052608e-01   1.1051431404446266e-01   1.2144039962522030e-01   1.1306105714113356e-01   1.2377620477849656e-01   1.1540660442681244e-01   1.2592073040997073e-01   1.1756977590690623e-01   1.2789214619446274e-01   1.1956875171357953e-01   1.2970839132303602e-01   1.2142047412614608e-01   1.3138666665872609e-01   1.2314013851493190e-01   1.3294293672898141e-01   1.2474060723197082e-01   1.3439139403002792e-01   1.2623184695216172e-01   1.3574391364239308e-01   1.2762006183498184e-01   1.3700927597221871e-01   1.2890660276330013e-01   1.3819211028598544e-01   1.3008639782155926e-01   1.3929136992945215e-01   1.3114615713232530e-01   1.4029840684963907e-01   1.3206244774466067e-01   1.4119474871286455e-01   1.3280034375152341e-01   1.4195012768321394e-01   1.3331320414887282e-01   1.4252139372705436e-01   1.3354456906591763e-01   1.4285332998681186e-01   1.4288203690435697e-01   1.5080612736148788e-01   1.5250091957865081e-01   1.6846918004719189e-01   1.5404174280652866e-01   1.6977457333503601e-01   1.5544511348134216e-01   1.7095155760393071e-01   1.5672761206138980e-01   1.7201595816449627e-01   1.5790556249493740e-01   1.7298372972593695e-01   1.5899455898244269e-01   1.7387057630780300e-01   1.6000908921765367e-01   1.7469161842546049e-01   1.6096188492013785e-01   1.7546086783183676e-01   1.6186314755731168e-01   1.7619055663436803e-01   1.6271917997448740e-01   1.7688996803349527e-01   1.6353057116864592e-01   1.7756373874448853e-01   1.6428962376066822e-01   1.7820936176728155e-01   1.6497753680683969e-01   1.7881415002892859e-01   1.6556164239765256e-01   1.7935193878150840e-01   1.6599396259428062e-01   1.7978059019829287e-01   1.6621206015454257e-01   1.8004146306345883e-01   1.6614348585290736e-01   1.8006240044176952e-01   1.7976463740927745e-01   2.0691872569264383