<?xml version="1.0"?>
<VTKFile type="UnstructuredGrid"  version="0.1"  >
<UnstructuredGrid>
<Piece  NumberOfPoints="2433" NumberOfCells="4671">
<Points>
<DataArray  type="Float64"  NumberOfComponents="3"  format="ascii">0.7599999999999999 0 0  0.7682608695652173 0 0  0.7682608695652173 0.008333333333333333 0  0.7599999999999999 0.008333333333333333 0  0.7765217391304348 0 0  0.7765217391304348 0.008333333333333333 0  0.7847826086956522 0 0  0.7847826086956522 0.008333333333333333 0  0.7930434782608695 0 0  0.7930434782608695 0.008333333333333333 0  0.8013043478260868 0 0  0.8013043478260868 0.008333333333333333 0  0.8095652173913043 0 0  0.8095652173913043 0.008333333333333333 0  0.8178260869565217 0 0  0.8178260869565217 0.008333333333333333 0  0.8260869565217391 0 0  0.8260869565217391 0.008333333333333333 0  0.8343478260869565 0 0  0.8343478260869565 0.008333333333333333 0  0.8426086956521739 0 0  0.8426086956521739 0.008333333333333333 0  0.8508695652173912 0 0  0.8508695652173912 0.008333333333333333 0  0.8591304347826086 0 0  0.8591304347826086 0.008333333333333333 0  0.8673913043478261 0 0  0.8673913043478261 0.008333333333333333 0  0.8756521739130434 0 0  0.8756521739130434 0.008333333333333333 0  0.8839130434782608 0 0  0.8839130434782608 0.008333333333333333 0  0.8921739130434783 0 0  0.8921739130434783 0.008333333333333333 0  0.9004347826086956 0 0  0.9004347826086956 0.008333333333333333 0  0.908695652173913 0 0  0.908695652173913 0.008333333333333333 0  0.9169565217391303 0 0  0.9169565217391303 0.008333333333333333 0  0.9252173913043478 0 0  0.9252173913043478 0.008333333333333333 0  0.9334782608695652 0 0  0.9334782608695652 0.008333333333333333 0  0.9417391304347826 0 0  0.9417391304347826 0.008333333333333333 0  0.95 0 0  0.95 0.008333333333333333 0  0.9582608695652173 0 0  0.9582608695652173 0.008333333333333333 0  0.9665217391304347 0 0  0.9665217391304347 0.008333333333333333 0  0.9747826086956521 0 0  0.9747826086956521 0.008333333333333333 0  0.9830434782608696 0 0  0.9830434782608696 0.008333333333333333 0  0.991304347826087 0 0  0.991304347826087 0.008333333333333333 0  0.9995652173913042 0 0  0.9995652173913042 0.008333333333333333 0  1.007826086956522 0 0  1.007826086956522 0.008333333333333333 0  1.016086956521739 0 0  1.016086956521739 0.008333333333333333 0  1.024347826086957 0.008333333333333333 0  0.7682608695652173 0.01666666666666667 0  0.7599999999999999 0.01666666666666667 0  0.7765217391304348 0.01666666666666667 0  0.7847826086956522 0.01666666666666667 0  0.7930434782608695 0.01666666666666667 0  0.8013043478260868 0.01666666666666667 0  0.8095652173913043 0.01666666666666667 0  0.8178260869565217 0.01666666666666667 0  0.8260869565217391 0.01666666666666667 0  0.8343478260869565 0.01666666666666667 0  0.8426086956521739 0.01666666666666667 0  0.8508695652173912 0.01666666666666667 0  0.8591304347826086 0.01666666666666667 0  0.8673913043478261 0.01666666666666667 0  0.8756521739130434 0.01666666666666667 0  0.8839130434782608 0.01666666666666667 0  0.8921739130434783 0.01666666666666667 0  0.9004347826086956 0.01666666666666667 0  0.908695652173913 0.01666666666666667 0  0.9169565217391303 0.01666666666666667 0  0.9252173913043478 0.01666666666666667 0  0.9334782608695652 0.01666666666666667 0  0.9417391304347826 0.01666666666666667 0  0.95 0.01666666666666667 0  0.9582608695652173 0.01666666666666667 0  0.9665217391304347 0.01666666666666667 0  0.9747826086956521 0.01666666666666667 0  0.9830434782608696 0.01666666666666667 0  0.991304347826087 0.01666666666666667 0  0.9995652173913042 0.01666666666666667 0  1.007826086956522 0.01666666666666667 0  1.016086956521739 0.01666666666666667 0  1.024347826086957 0.01666666666666667 0  1.032608695652174 0.01666666666666667 0  0.7682608695652173 0.025 0  0.7765217391304348 0.025 0  0.7847826086956522 0.025 0  0.7930434782608695 0.025 0  0.8013043478260868 0.025 0  0.8095652173913043 0.025 0  0.8178260869565217 0.025 0  0.8260869565217391 0.025 0  0.8343478260869565 0.025 0  0.8426086956521739 0.025 0  0.8508695652173912 0.025 0  0.8591304347826086 0.025 0  0.8673913043478261 0.025 0  0.8756521739130434 0.025 0  0.8839130434782608 0.025 0  0.8921739130434783 0.025 0  0.9004347826086956 0.025 0  0.908695652173913 0.025 0  0.9169565217391303 0.025 0  0.9252173913043478 0.025 0  0.9334782608695652 0.025 0  0.9417391304347826 0.025 0  0.95 0.025 0  0.9582608695652173 0.025 0  0.9665217391304347 0.025 0  0.9747826086956521 0.025 0  0.9830434782608696 0.025 0  0.991304347826087 0.025 0  0.9995652173913042 0.025 0  1.007826086956522 0.025 0  1.016086956521739 0.025 0  1.024347826086957 0.025 0  1.032608695652174 0.025 0  1.040869565217391 0.025 0  0.7765217391304348 0.03333333333333333 0  0.7847826086956522 0.03333333333333333 0  0.7930434782608695 0.03333333333333333 0  0.8013043478260868 0.03333333333333333 0  0.8095652173913043 0.03333333333333333 0  0.8178260869565217 0.03333333333333333 0  0.8260869565217391 0.03333333333333333 0  0.8343478260869565 0.03333333333333333 0  0.8426086956521739 0.03333333333333333 0  0.8508695652173912 0.03333333333333333 0  0.8591304347826086 0.03333333333333333 0  0.8673913043478261 0.03333333333333333 0  0.8756521739130434 0.03333333333333333 0  0.8839130434782608 0.03333333333333333 0  0.8921739130434783 0.03333333333333333 0  0.9004347826086956 0.03333333333333333 0  0.908695652173913 0.03333333333333333 0  0.9169565217391303 0.03333333333333333 0  0.9252173913043478 0.03333333333333333 0  0.9334782608695652 0.03333333333333333 0  0.9417391304347826 0.03333333333333333 0  0.95 0.03333333333333333 0  0.9582608695652173 0.03333333333333333 0  0.9665217391304347 0.03333333333333333 0  0.9747826086956521 0.03333333333333333 0  0.9830434782608696 0.03333333333333333 0  0.991304347826087 0.03333333333333333 0  0.9995652173913042 0.03333333333333333 0  1.007826086956522 0.03333333333333333 0  1.016086956521739 0.03333333333333333 0  1.024347826086957 0.03333333333333333 0  1.032608695652174 0.03333333333333333 0  1.040869565217391 0.03333333333333333 0  1.049130434782609 0.03333333333333333 0  0.7847826086956522 0.04166666666666666 0  0.7930434782608695 0.04166666666666666 0  0.8013043478260868 0.04166666666666666 0  0.8095652173913043 0.04166666666666666 0  0.8178260869565217 0.04166666666666666 0  0.8260869565217391 0.04166666666666666 0  0.8343478260869565 0.04166666666666666 0  0.8426086956521739 0.04166666666666666 0  0.8508695652173912 0.04166666666666666 0  0.8591304347826086 0.04166666666666666 0  0.8673913043478261 0.04166666666666666 0  0.8756521739130434 0.04166666666666666 0  0.8839130434782608 0.04166666666666666 0  0.8921739130434783 0.04166666666666666 0  0.9004347826086956 0.04166666666666666 0  0.908695652173913 0.04166666666666666 0  0.9169565217391303 0.04166666666666666 0  0.9252173913043478 0.04166666666666666 0  0.9334782608695652 0.04166666666666666 0  0.9417391304347826 0.04166666666666666 0  0.95 0.04166666666666666 0  0.9582608695652173 0.04166666666666666 0  0.9665217391304347 0.04166666666666666 0  0.9747826086956521 0.04166666666666666 0  0.9830434782608696 0.04166666666666666 0  0.991304347826087 0.04166666666666666 0  0.9995652173913042 0.04166666666666666 0  1.007826086956522 0.04166666666666666 0  1.016086956521739 0.04166666666666666 0  1.024347826086957 0.04166666666666666 0  1.032608695652174 0.04166666666666666 0  1.040869565217391 0.04166666666666666 0  1.049130434782609 0.04166666666666666 0  1.057391304347826 0.04166666666666666 0  0.7930434782608695 0.05 0  0.8013043478260868 0.05 0  0.8095652173913043 0.05 0  0.8178260869565217 0.05 0  0.8260869565217391 0.05 0  0.8343478260869565 0.05 0  0.8426086956521739 0.05 0  0.8508695652173912 0.05 0  0.8591304347826086 0.05 0  0.8673913043478261 0.05 0  0.8756521739130434 0.05 0  0.8839130434782608 0.05 0  0.8921739130434783 0.05 0  0.9004347826086956 0.05 0  0.908695652173913 0.05 0  0.9169565217391303 0.05 0  0.9252173913043478 0.05 0  0.9334782608695652 0.05 0  0.9417391304347826 0.05 0  0.95 0.05 0  0.9582608695652173 0.05 0  0.9665217391304347 0.05 0  0.9747826086956521 0.05 0  0.9830434782608696 0.05 0  0.991304347826087 0.05 0  0.9995652173913042 0.05 0  1.007826086956522 0.05 0  1.016086956521739 0.05 0  1.024347826086957 0.05 0  1.032608695652174 0.05 0  1.040869565217391 0.05 0  1.049130434782609 0.05 0  1.057391304347826 0.05 0  1.065652173913043 0.05 0  0.8013043478260868 0.05833333333333333 0  0.8095652173913043 0.05833333333333333 0  0.8178260869565217 0.05833333333333333 0  0.8260869565217391 0.05833333333333333 0  0.8343478260869565 0.05833333333333333 0  0.8426086956521739 0.05833333333333333 0  0.8508695652173912 0.05833333333333333 0  0.8591304347826086 0.05833333333333333 0  0.8673913043478261 0.05833333333333333 0  0.8756521739130434 0.05833333333333333 0  0.8839130434782608 0.05833333333333333 0  0.8921739130434783 0.05833333333333333 0  0.9004347826086956 0.05833333333333333 0  0.908695652173913 0.05833333333333333 0  0.9169565217391303 0.05833333333333333 0  0.9252173913043478 0.05833333333333333 0  0.9334782608695652 0.05833333333333333 0  0.9417391304347826 0.05833333333333333 0  0.95 0.05833333333333333 0  0.9582608695652173 0.05833333333333333 0  0.9665217391304347 0.05833333333333333 0  0.9747826086956521 0.05833333333333333 0  0.9830434782608696 0.05833333333333333 0  0.991304347826087 0.05833333333333333 0  0.9995652173913042 0.05833333333333333 0  1.007826086956522 0.05833333333333333 0  1.016086956521739 0.05833333333333333 0  1.024347826086957 0.05833333333333333 0  1.032608695652174 0.05833333333333333 0  1.040869565217391 0.05833333333333333 0  1.049130434782609 0.05833333333333333 0  1.057391304347826 0.05833333333333333 0  1.065652173913043 0.05833333333333333 0  1.073913043478261 0.05833333333333333 0  0.8095652173913043 0.06666666666666667 0  0.8178260869565217 0.06666666666666667 0  0.8260869565217391 0.06666666666666667 0  0.8343478260869565 0.06666666666666667 0  0.8426086956521
[...]
<PointData  Vectors="Displacement"> 
<DataArray  type="Float64"  Name="Displacement"  NumberOfComponents="3" format="ascii">1.1879842393106881e-04 7.1941022918951261e-04 0.0000000000000000e+00  1.1979536734176188e-04 7.2610216009655782e-04 0.0000000000000000e+00  1.1307215774673799e-04 7.2576195312216367e-04 0.0000000000000000e+00  1.1202582775120642e-04 7.1906971957076834e-04 0.0000000000000000e+00  1.2079091128738152e-04 7.3274347781558365e-04 0.0000000000000000e+00  1.1411895075686127e-04 7.3240350223410333e-04 0.0000000000000000e+00  1.2178564469820593e-04 7.3933228884704610e-04 0.0000000000000000e+00  1.1516630229223767e-04 7.3899241348596178e-04 0.0000000000000000e+00  1.2278031428908387e-04 7.4586737888964838e-04 0.0000000000000000e+00  1.1621434218588239e-04 7.4552743144962511e-04 0.0000000000000000e+00  1.2377571960777269e-04 7.5234833224742924e-04 0.0000000000000000e+00  1.1726321052078943e-04 7.5200813016684277e-04 0.0000000000000000e+00  1.2477260441511663e-04 7.5877551253964825e-04 0.0000000000000000e+00  1.1831303345740542e-04 7.5843489151869654e-04 0.0000000000000000e+00  1.2577157896747420e-04 7.6514993081289867e-04 0.0000000000000000e+00  1.1936391016314166e-04 7.6480876080551490e-04 0.0000000000000000e+00  1.2677308208631805e-04 7.7147306639894673e-04 0.0000000000000000e+00  1.2041590860706244e-04 7.7113125755472222e-04 0.0000000000000000e+00  1.2777737598576510e-04 7.7774668340462624e-04 0.0000000000000000e+00  1.2146906628143246e-04 7.7740418494573970e-04 0.0000000000000000e+00  1.2878456405317117e-04 7.8397266645470346e-04 0.0000000000000000e+00  1.2252339529000595e-04 7.8362945997617888e-04 0.0000000000000000e+00  1.2979461942476628e-04 7.9015289098576219e-04 0.0000000000000000e+00  1.2357889033611403e-04 7.8980898219445004e-04 0.0000000000000000e+00  1.3080740975886934e-04 7.9628913050147306e-04 0.0000000000000000e+00  1.2463553286817179e-04 7.9594454607430094e-04 0.0000000000000000e+00  1.3182271529328890e-04 8.0238297871456981e-04 0.0000000000000000e+00  1.2569328968438704e-04 8.0203776717866003e-04 0.0000000000000000e+00  1.3284025264549787e-04 8.0843577396638169e-04 0.0000000000000000e+00  1.2675211218015129e-04 8.0809000248384106e-04 0.0000000000000000e+00  1.3385971658650718e-04 8.1444854531893080e-04 0.0000000000000000e+00  1.2781194415360385e-04 8.1410228627979558e-04 0.0000000000000000e+00  1.3488083156267390e-04 8.2042201740481588e-04 0.0000000000000000e+00  1.2887273714223512e-04 8.2007533071479428e-04 0.0000000000000000e+00  1.3590338599692045e-04 8.2635668114480049e-04 0.0000000000000000e+00  1.2993446146943366e-04 8.2600960647671233e-04 0.0000000000000000e+00  1.3692723057006777e-04 8.3225288694937344e-04 0.0000000000000000e+00  1.3099710003245833e-04 8.3190545319368557e-04 0.0000000000000000e+00  1.3795226152713306e-04 8.3811089331330471e-04 0.0000000000000000e+00  1.3206063523851203e-04 8.3776312893623240e-04 0.0000000000000000e+00  1.3897842563996983e-04 8.4393087653450731e-04 0.0000000000000000e+00  1.3312504866329128e-04 8.4358280370562901e-04 0.0000000000000000e+00  1.4000574979274586e-04 8.4971297128950821e-04 0.0000000000000000e+00  1.3419033531936590e-04 8.4936458861606260e-04 0.0000000000000000e+00  1.4103435939170810e-04 8.5545737879506780e-04 0.0000000000000000e+00  1.3525651537832253e-04 8.5510865267415857e-04 0.0000000000000000e+00  1.4206445461187152e-04 8.6116449288496872e-04 0.0000000000000000e+00  1.3632362974728458e-04 8.6081536808718705e-04 0.0000000000000000e+00  1.4309625151079486e-04 8.6683496399766796e-04 0.0000000000000000e+00  1.3739172219047558e-04 8.6648538576495780e-04 0.0000000000000000e+00  1.4412992557528393e-04 8.7246966547387117e-04 0.0000000000000000e+00  1.3846082387422958e-04 8.7211959567955947e-04 0.0000000000000000e+00  1.4516558652826129e-04 8.7806960411841164e-04 0.0000000000000000e+00  1.3953094883482428e-04 8.7771902410221524e-04 0.0000000000000000e+00  1.4620328639511536e-04 8.8363583362730035e-04 0.0000000000000000e+00  1.4060210063563257e-04 8.8328473667117504e-04 0.0000000000000000e+00  1.4724303930806329e-04 8.8916940939864897e-04 0.0000000000000000e+00  1.4167427974276156e-04 8.8881779460704929e-04 0.0000000000000000e+00  1.4828483442615962e-04 8.9467137241625429e-04 0.0000000000000000e+00  1.4274748367699763e-04 8.9431924517015282e-04 0.0000000000000000e+00  1.4932864526963894e-04 9.0014273242303860e-04 0.0000000000000000e+00  1.4382170431190993e-04 8.9979010486808061e-04 0.0000000000000000e+00  1.5037444796321017e-04 9.0558445167272003e-04 0.0000000000000000e+00  1.4489693068279487e-04 9.0523133637553186e-04 0.0000000000000000e+00  1.4597315651686406e-04 9.1064385812745510e-04 0.0000000000000000e+00  1.0634742040008809e-04 7.2540534141516809e-04 0.0000000000000000e+00  1.0525187879537351e-04 7.1871332751981536e-04 0.0000000000000000e+00  1.0744524881360306e-04 7.3204670899633525e-04 0.0000000000000000e+00  1.0854498972163819e-04 7.3863543359470481e-04 0.0000000000000000e+00  1.0964618116682247e-04 7.4517023064467054e-04 0.0000000000000000e+00  1.1074832553152490e-04 7.5165067422914189e-04 0.0000000000000000e+00  1.1185094512447718e-04 7.5807716700576839e-04 0.0000000000000000e+00  1.1295363268194267e-04 7.6445077245029152e-04 0.0000000000000000e+00  1.1405608345246816e-04 7.7077302038012043e-04 0.0000000000000000e+00  1.1515810482331368e-04 7.7704571799942388e-04 0.0000000000000000e+00  1.1625960976484526e-04 7.8327077739273382e-04 0.0000000000000000e+00  1.1736060498624937e-04 7.8945008350009629e-04 0.0000000000000000e+00  1.1846117558890399e-04 7.9558542142022404e-04 0.0000000000000000e+00  1.1956146531474410e-04 8.0167841484047730e-04 0.0000000000000000e+00  1.2066165163314900e-04 8.0773043986954974e-04 0.0000000000000000e+00  1.2176191986401276e-04 8.1374253815679734e-04 0.0000000000000000e+00  1.2286244190907439e-04 8.1971540358327015e-04 0.0000000000000000e+00  1.2396336563192051e-04 8.2564947948628436e-04 0.0000000000000000e+00  1.2506480567462007e-04 8.3154510909350392e-04 0.0000000000000000e+00  1.2616683268373564e-04 8.3740258473013443e-04 0.0000000000000000e+00  1.2726946575609694e-04 8.4322209925536795e-04 0.0000000000000000e+00  1.2837267220385884e-04 8.4900374651093724e-04 0.0000000000000000e+00  1.2947637373152457e-04 8.5474765576689672e-04 0.0000000000000000e+00  1.3058046089630440e-04 8.6045417480296797e-04 0.0000000000000000e+00  1.3168481275979119e-04 8.6612396485228769e-04 0.0000000000000000e+00  1.3278931972743587e-04 8.7175794342003472e-04 0.0000000000000000e+00  1.3389389904379154e-04 8.7735715834546678e-04 0.0000000000000000e+00  1.3499850109850224e-04 8.8292267490643365e-04 0.0000000000000000e+00  1.3610310713882938e-04 8.8845554381620064e-04 0.0000000000000000e+00  1.3720771905479878e-04 8.9395681303233135e-04 0.0000000000000000e+00  1.3831234476232028e-04 8.9942751149046625e-04 0.0000000000000000e+00  1.3941698592052307e-04 9.0486860759126102e-04 0.0000000000000000e+00  1.4052162875707186e-04 9.1028100927987026e-04 0.0000000000000000e+00  1.4162624132355099e-04 9.1566562095080214e-04 0.0000000000000000e+00  9.9616632581774549e-05 7.2503205901774644e-04 0.0000000000000000e+00  1.0076642554338755e-04 7.3167275125987684e-04 0.0000000000000000e+00  1.0191980875621223e-04 7.3826097003572527e-04 0.0000000000000000e+00  1.0307554567361497e-04 7.4479541654289124e-04 0.0000000000000000e+00  1.0423229268720291e-04 7.5127566137805435e-04 0.0000000000000000e+00  1.0538881310729736e-04 7.5770211392109442e-04 0.0000000000000000e+00  1.0654411922458028e-04 7.6407582537301409e-04 0.0000000000000000e+00  1.0769751686189575e-04 7.7039829245818424e-04 0.0000000000000000e+00  1.0884861165647802e-04 7.7667128465196415e-04 0.0000000000000000e+00  1.0999727202382969e-04 7.8289667414461778e-04 0.0000000000000000e+00  1.1114356762273129e-04 7.8907629634340770e-04 0.0000000000000000e+00  1.1228771337334078e-04 7.9521189218923762e-04 0.0000000000000000e+00  1.1343005746655222e-04 8.0130506976950982e-04 0.0000000000000000e+00  1.1457106683777037e-04 8.0735722020633632e-04 0.0000000000000000e+00  1.1571126772453819e-04 8.1336940434928418e-04 0.0000000000000000e+00  1.1685113572335151e-04 8.1934231230719598e-04 0.0000000000000000e+00  1.1799100152027066e-04 8.2527635826482731e-04 0.0000000000000000e+00  1.1913105788162242e-04 8.3117188796632819e-04 0.0000000000000000e+00  1.2027145259051657e-04 8.3702925154445203e-04 0.0000000000000000e+00  1.2141230452394668e-04 8.4284870301857553e-04 0.0000000000000000e+00  1.2255361684348242e-04 8.4863034731848556e-04 0.0000000000000000e+00  1.2369519112664777e-04 8.5437428272130218e-04 0.0000000000000000e+00  1.2483665642640140e-04 8.6008082623962819e-04 0.0000000000000000e+00  1.2597760458679129e-04 8.6575064442549017e-04 0.0000000000000000e+00  1.2711772618516175e-04 8.7138467842210843e-04 0.0000000000000000e+00  1.2825685430668235e-04 8.7698399447983606e-04 0.0000000000000000e+00  1.2939493536652825e-04 8.8254965050428113e-04 0.0000000000000000e+00  1.3053195645100545e-04 8.8808266956672520e-04 0.0000000000000000e+00  1.3166793041689823e-04 8.9358408809377989e-04 0.0000000000000000e+00  1.3280290554782789e-04 8.9905495004237749e-04 0.0000000000000000e+00  1.3393694665819167e-04 9.0449624007289751e-04 0.0000000000000000e+00  1.3507007506362512e-04 9.0990886645872201e-04 0.0000000000000000e+00  1.3620222393894650e-04 9.1529371593061543e-04 0.0000000000000000e+00  1.3733323636231737e-04 9.2065174892803903e-04 0.0000000000000000e+00  9.4061356025309636e-05 7.3128468786766193e-04 0.0000000000000000e+00  9.5271919725611225e-05 7.3787187476381170e-04 0.0000000000000000e+00  9.6486532512872594e-05 7.4440576906878192e-04 0.0000000000000000e+00  9.7702224975063502e-05 7.5088592733101164e-04 0.0000000000000000e+00  9.8916356233045639e-05 7.5731268176107034e-04 0.0000000000000000e+00  1.0012710145270954e-04 7.6368700070045660e-04 0.0000000000000000e+00  1.0133332065430891e-04 7.7001028039702429e-04 0.0000000000000000e+00  1.0253447072898318e-04 7.7628418570022497e-04 0.0000000000000000e+00  1.0373053565639882e-04 7.8251050574088433e-04 0.0000000000000000e+00  1.0492185311365212e-04 7.8869102475803785e-04 0.0000000000000000e+00  1.0610883927175445e-04 7.9482742775841204e-04 0.0000000000000000e+00  1.0729203929226298e-04 8.0092125795826023e-04 0.0000000000000000e+00  1.0847231558200984e-04 8.0697385940428862e-04 0.0000000000000000e+00  1.0965087034981359e-04 8.1298630133066693e-04 0.0000000000000000e+00  1.1082887618428171e-04 8.1895933336950796e-04 0.0000000000000000e+00  1.1200700854113536e-04 8.2489344029794095e-04 0.0000000000000000e+00  1.1318526064666238e-04 8.3078896523569763e-04 0.0000000000000000e+00  1.1436361953972780e-04 8.3664623548747731e-04 0.0000000000000000e+00  1.1554250852398702e-04 8.4246554398793253e-04 0.0000000000000000e+00  1.1672238256243346e-04 8.4824709476938234e-04 0.0000000000000000e+00  1.1790302240170530e-04 8.5399107178531566e-04 0.0000000000000000e+00  1.1908343368763962e-04 8.5969781728127801e-04 0.0000000000000000e+00  1.2026235631314343e-04 8.6536795350582662e-04 0.0000000000000000e+00  1.2143899024444644e-04 8.7100237169860544e-04 0.0000000000000000e+00  1.2261311015760991e-04 8.7660209680293197e-04 0.0000000000000000e+00  1.2378490447237495e-04 8.8216818080479097e-04 0.0000000000000000e+00  1.2495452914162918e-04 8.8770164539646822e-04 0.0000000000000000e+00  1.2612196947701549e-04 8.9320349924318137e-04 0.0000000000000000e+00  1.2728729685926792e-04 8.9867476061470330e-04 0.0000000000000000e+00  1.2845081207667972e-04 9.0411642744493573e-04 0.0000000000000000e+00  1.2961277608511016e-04 9.0952944418672772e-04 0.0000000000000000e+00  1.3077316597366010e-04 9.1491473976951069e-04 0.0000000000000000e+00  1.3193157188905112e-04 9.2027329792498524e-04 0.0000000000000000e+00  1.3308734032320218e-04 9.2560621862642321e-04 0.0000000000000000e+00  8.9931329330053967e-05 7.3305914908822645e-04 0.0000000000000000e+00  9.1249413478590972e-05 7.3959742511670826e-04 0.0000000000000000e+00  9.2567477462038205e-05 7.4608790032977220e-04 0.0000000000000000e+00  9.3883532033440696e-05 7.5253051487926569e-04 0.0000000000000000e+00  9.5195925383108993e-05 7.5892564485875486e-04 0.0000000000000000e+00  9.6503439143375168e-05 7.6527407911795549e-04 0.0000000000000000e+00  9.7805281956526706e-05 7.7157689609063816e-04 0.0000000000000000e+00  9.9101046721414103e-05 7.7783534269540888e-04 0.0000000000000000e+00  1.0039063833475516e-04 7.8405074799642619e-04 0.0000000000000000e+00  1.0167418814541348e-04 7.9022444331716311e-04 0.0000000000000000e+00  1.0295200607464725e-04 7.9635764681111186e-04 0.0000000000000000e+00  1.0422456745712087e-04 8.0245139372556108e-04 0.0000000000000000e+00  1.0549246417480941e-04 8.0850654357431519e-04 0.0000000000000000e+00  1.0675627676249521e-04 8.1452383562777373e-04 0.0000000000000000e+00  1.0801642469627674e-04 8.2050391831803684e-04 0.0000000000000000e+00  1.0927310753422405e-04 8.2644731725526558e-04 0.0000000000000000e+00  1.1052639529037295e-04 8.3235436041510292e-04 0.0000000000000000e+00  1.1177633153983058e-04 8.3822526463132982e-04 0.0000000000000000e+00  1.1302288003864454e-04 8.4406030372505584e-04 0.0000000000000000e+00  1.1426577791365293e-04 8.4985989018389265e-04 0.0000000000000000e+00  1.1550449688179099e-04 8.5562453757712835e-04 0.0000000000000000e+00  1.1673838733915423e-04 8.6135480535173294e-04 0.0000000000000000e+00  1.1796689663754491e-04 8.6705128291436064e-04 0.0000000000000000e+00  1.1918969053056750e-04 8.7271464475741328e-04 0.0000000000000000e+00  1.2040663167955765e-04 8.7834566034047153e-04 0.0000000000000000e+00  1.2161768129386723e-04 8.8394519338976353e-04 0.0000000000000000e+00  1.2282282648742515e-04 8.8951413445471374e-04 0.0000000000000000e+00  1.2402208475075334e-04 8.9505333734652174e-04 0.0000000000000000e+00  1.2521551598463029e-04 9.0056363474232408e-04 0.0000000000000000e+00  1.2640316955319869e-04 9.0604589361104493e-04 0.0000000000000000e+00  1.2758500863044100e-04 9.1150102875636697e-04 0.0000000000000000e+00  1.2876088693494414e-04 9.1692999828473767e-04 0.0000000000000000e+00  1.2993060852864533e-04 9.2233377758610998e-04 0.0000000000000000e+00  1.3109405244122877e-04 9.2771332385140071e-04 0.0000000000000000e+00  8.5998952138583714e-05 7.3472925414791977e-04 0.0000000000000000e+00  8.7414624030493295e-05 7.4123139916836163e-04 0.0000000000000000e+00  8.8827556092757829e-05 7.4769041359298957e-04 0.0000000000000000e+00  9.0236257982821149e-05 7.5410643926733761e-04 0.0000000000000000e+00  9.1639483674422299e-05 7.6047992332098162e-04 0.0000000000000000e+00  9.3036277406533286e-05 7.6681156383433095e-04 0.0000000000000000e+00  9.4425972636322887e-05 7.7310223147572684e-04 0.0000000000000000e+00  9.5808163934297332e-05 7.7935289912549907e-04 0.0000000000000000e+00  9.7182668422516371e-05 7.8556457029744695e-04 0.0000000000000000e+00  9.8549484284626935e-05 7.9173819127592105e-04 0.0000000000000000e+00  9.9908741643229800e-05 7.9787459434078607e-04 0.0000000000000000e+00  1.0126064434670947e-04 8.0397450084714105e-04 0.0000000000000000e+00  1.0260540624011968e-04 8.1003855930671467e-04 0.0000000000000000e+00  1.0394319648923411e-04 8.1606735929185751e-04 0.0000000000000000e+00  1.0527410872903085e-04 8.2206139472393378e-04 0.0000000000000000e+00  1.0659815244101340e-04 8.2802101345333390e-04 0.0000000000000000e+00  1.0791524486781644e-04 8.3394647273360184e-04 0.0000000000000000e+00  1.0922520088521836e-04 8.3983806676448227e-04 0.0000000000000000e+00  1.1052772821453294e-04 8.4569619639092387e-04 0.0000000000000000e+00  1.1182244461514411e-04 8.5152133502808356e-04 0.0000000000000000e+00  1.1310892538976949e-04 8.5731396514136435e-04 0.0000000000000000e+00  1.1438676720992954e-04 8.6307455952170276e-04 0.0000000000000000e+00  1.1565563813856571e-04 8.6880362884270070e-04 0.0000000000000000e+00  1.1691529835857901e-04 8.7450176167330469e-04 0.0000000000000000e+00  1.1816559048115231e-04 8.8016963394276025e-04 0.0000000000000000e+00  1.1940642168452329e-04 8.8580796523394405e-04 0.0000000000000000e+00  1.2063774466903331e-04 8.9141746882324122e-04 0.0000000000000000e+00  1.2185953850720167e-04 8.9699885393201980e-04 0.0000000000000000e+00  1.2307179133346334e-04 9.0255286195526133e-04 0.0000000000000000e+00  1.2427449062577575e-04 9.0808027665720216e-04 0.0000000000000000e+00  1.2546762966534914e-04 9.1358190398113193e-04 0.0000000000000000e+00  1.2665124003096465e-04 9.1905853148687333e-04 0.0000000000000000e+00  1.2782544431110533e-04 9.2451088435367972e-04 0.0000000000000000e+00  1.2899051130124721e-04 9.2993958320632879e-04 0.0000000000000000e+00  8.2241506641790303e-05 7.3632589491506254e-04 0.0000000000000000e+00  8.3746763039385319e-05 7.4280179068749504e-04 0.0000000000000000e+00  8.5246940070254391e-05 7.4923903669241664e-04 0.0000000000000000e+00  8.6740787551964913e-05 7.5563785297202263e-04 0.0000000000000000e+00  8.8227248152697834e-05 7.6199865511371681e-04 0.0000000000000000e+00  8.9705478390637701e-05 7.6832201034819202e-04 0.0000000000000000e+00  9.1174845381638219e-05 7.7460858688216709e-04 0.0000000000000000e+00  9.2634908856092620e-05 7.8085909771339853e-04 0.0000000000000000e+00  9.4085391620674249e-05 7.8707423934793776e-04 0.0000000000000000e+00  9.5526137774597076e-05 7.9325465106453179e-04 0.0000000000000000e+00  9.6957065774021985e-05 7.9940090981326349e-04 0.0000000000000000e+00  9.8378126811556250e-05 8.0551354572605787e-04 0.0000000000000000e+00  9.9789274273964505e-05 8.1159304456877694e-04 0.0000000000000000e+00  1.0119044095260632e-04 8.1763982366938573e-04 0.0000000000000000e+00  1.0258151621989929e-04 8.2365420812657343e-04 0.0000000000000000e+00  1.0396232252239789e-04 8.2963646491146850e-04 0.0000000000000000e+00  1.0533260764495738e-04 8.3558687662647229e-04 0.0000000000000000e+00  1.0669205925882670e-04 8.4150578539770259e-04 0.0000000000000000e+00  1.0804033058223168e-04 8.4739357643850359e-04 0.0000000000000000e+00  1.0937706473545627e-04 8.5325063884392780e-04 0.0000000000000000e+00  1.1070191523535896e-04 8.5907735211578345e-04 0.0000000000000000e+00  1.1201456469700381e-04 8.6487411386855051e-04 0.0000000000000000e+00  1.1331474286545034e-04 8.7064137169923900e-04 0.0000000000000000e+00  1.1460223806976748e-04 8.7637963508947194e-04 0.0000000000000000e+00  1.1587690009710347e-04 8.8208945403388131e-04 0.0000000000000000e+00  1.1713863226232778e-04 8.8777139065406290e-04 0.0000000000000000e+00  1.1838737848069774e-04 8.9342601529825985e-04 0.0000000000000000e+00  1.1962311691105731e-04 8.9905392031263613e-04 0.0000000000000000e+00  1.2084586508199765e-04 9.0465572082497304e-04 0.0000000000000000e+00  1.2205569340261095e-04 9.1023203426991240e-04 0.0000000000000000e+00  1.2325274490611145e-04 9.1578344459499123e-04 0.0000000000000000e+00  1.2443725745033259e-04 9.2131046502902229e-04 0.0000000000000000e+00  1.2560958211202744e-04 9.2681350909486660e-04 0.0000000000000000e+00  1.2677019038862973e-04 9.3229288175466021e-04 0.0000000000000000e+00  7.8642706149771818e-05 7.3786624556099027e-04 0.0000000000000000e+00  8.0229733130677037e-05 7.4432525544862981e-04 0.0000000000000000e+00  8.1809435587461651e-05 7.5074990900253491e-04 0.0000000000000000e+00  8.3380676394756304e-05 7.5714040525624241e-04 0.0000000000000000e+00  8.4942477723090877e-05 7.6349706483195699e-04 0.0000000000000000e+00  8.6494029776319040e-05 7.6982029760138890e-04 0.0000000000000000e+00  8.8034684840129326e-05 7.7611056354240880e-04 0.0000000000000000e+00  8.9563938708847059e-05 7.8236833171483971e-04 0.0000000000000000e+00  9.1081401276456783e-05 7.8859405167661968e-04 0.0000000000000000e+00  9.2586762845306913e-05 7.9478814452398181e-04 0.0000000000000000e+00  9.4079764191983380e-05 8.0095100504404498e-04 0.0000000000000000e+00  9.5560173634143074e-05 8.0708299812338818e-04 0.0000000000000000e+00  9.7027767386424633e-05 8.1318444410689275e-04 0.0000000000000000e+00  9.8482308278784265e-05 8.1925560887981578e-04 0.0000000000000000e+00  9.9923525527057674e-05 8.2529672410120315e-04 0.0000000000000000e+