<?xml version="1.0"?>
<VTKFile type="UnstructuredGrid"  version="0.1"  >
<UnstructuredGrid>
<Piece  NumberOfPoints="2358" NumberOfCells="4523">
<Points>
<DataArray  type="Float64"  NumberOfComponents="3"  format="ascii">2.618695652173913 0 0  2.62695652173913 0 0  2.62695652173913 0.008333333333333333 0  2.618695652173913 0.008333333333333333 0  2.635217391304348 0 0  2.635217391304348 0.008333333333333333 0  2.643478260869565 0 0  2.643478260869565 0.008333333333333333 0  2.651739130434783 0 0  2.651739130434783 0.008333333333333333 0  2.66 0 0  2.66 0.008333333333333333 0  2.668260869565217 0 0  2.668260869565217 0.008333333333333333 0  2.676521739130435 0 0  2.676521739130435 0.008333333333333333 0  2.684782608695652 0 0  2.684782608695652 0.008333333333333333 0  2.693043478260869 0 0  2.693043478260869 0.008333333333333333 0  2.701304347826087 0 0  2.701304347826087 0.008333333333333333 0  2.709565217391304 0 0  2.709565217391304 0.008333333333333333 0  2.717826086956522 0 0  2.717826086956522 0.008333333333333333 0  2.726086956521739 0 0  2.726086956521739 0.008333333333333333 0  2.734347826086956 0 0  2.734347826086956 0.008333333333333333 0  2.742608695652174 0 0  2.742608695652174 0.008333333333333333 0  2.750869565217391 0 0  2.750869565217391 0.008333333333333333 0  2.759130434782609 0 0  2.759130434782609 0.008333333333333333 0  2.767391304347826 0 0  2.767391304347826 0.008333333333333333 0  2.775652173913044 0 0  2.775652173913044 0.008333333333333333 0  2.783913043478261 0 0  2.783913043478261 0.008333333333333333 0  2.792173913043478 0 0  2.792173913043478 0.008333333333333333 0  2.800434782608696 0 0  2.800434782608696 0.008333333333333333 0  2.808695652173913 0 0  2.808695652173913 0.008333333333333333 0  2.81695652173913 0 0  2.81695652173913 0.008333333333333333 0  2.825217391304347 0 0  2.825217391304347 0.008333333333333333 0  2.833478260869565 0 0  2.833478260869565 0.008333333333333333 0  2.841739130434783 0 0  2.841739130434783 0.008333333333333333 0  2.85 0 0  2.85 0.008333333333333333 0  2.858260869565217 0 0  2.858260869565217 0.008333333333333333 0  2.866521739130435 0 0  2.866521739130435 0.008333333333333333 0  2.874782608695652 0 0  2.874782608695652 0.008333333333333333 0  2.88304347826087 0 0  2.88304347826087 0.008333333333333333 0  2.891304347826087 0 0  2.891304347826087 0.008333333333333333 0  2.899565217391304 0 0  2.899565217391304 0.008333333333333333 0  2.907826086956522 0 0  2.907826086956522 0.008333333333333333 0  2.916086956521739 0 0  2.916086956521739 0.008333333333333333 0  2.924347826086957 0 0  2.924347826086957 0.008333333333333333 0  2.932608695652174 0 0  2.932608695652174 0.008333333333333333 0  2.940869565217391 0 0  2.940869565217391 0.008333333333333333 0  2.949130434782608 0 0  2.949130434782608 0.008333333333333333 0  2.62695652173913 0.01666666666666667 0  2.618695652173913 0.01666666666666667 0  2.635217391304348 0.01666666666666667 0  2.643478260869565 0.01666666666666667 0  2.651739130434783 0.01666666666666667 0  2.66 0.01666666666666667 0  2.668260869565217 0.01666666666666667 0  2.676521739130435 0.01666666666666667 0  2.684782608695652 0.01666666666666667 0  2.693043478260869 0.01666666666666667 0  2.701304347826087 0.01666666666666667 0  2.709565217391304 0.01666666666666667 0  2.717826086956522 0.01666666666666667 0  2.726086956521739 0.01666666666666667 0  2.734347826086956 0.01666666666666667 0  2.742608695652174 0.01666666666666667 0  2.750869565217391 0.01666666666666667 0  2.759130434782609 0.01666666666666667 0  2.767391304347826 0.01666666666666667 0  2.775652173913044 0.01666666666666667 0  2.783913043478261 0.01666666666666667 0  2.792173913043478 0.01666666666666667 0  2.800434782608696 0.01666666666666667 0  2.808695652173913 0.01666666666666667 0  2.81695652173913 0.01666666666666667 0  2.825217391304347 0.01666666666666667 0  2.833478260869565 0.01666666666666667 0  2.841739130434783 0.01666666666666667 0  2.85 0.01666666666666667 0  2.858260869565217 0.01666666666666667 0  2.866521739130435 0.01666666666666667 0  2.874782608695652 0.01666666666666667 0  2.88304347826087 0.01666666666666667 0  2.891304347826087 0.01666666666666667 0  2.899565217391304 0.01666666666666667 0  2.907826086956522 0.01666666666666667 0  2.916086956521739 0.01666666666666667 0  2.924347826086957 0.01666666666666667 0  2.932608695652174 0.01666666666666667 0  2.940869565217391 0.01666666666666667 0  2.949130434782608 0.01666666666666667 0  2.957391304347826 0.01666666666666667 0  2.62695652173913 0.025 0  2.635217391304348 0.025 0  2.643478260869565 0.025 0  2.651739130434783 0.025 0  2.66 0.025 0  2.668260869565217 0.025 0  2.676521739130435 0.025 0  2.684782608695652 0.025 0  2.693043478260869 0.025 0  2.701304347826087 0.025 0  2.709565217391304 0.025 0  2.717826086956522 0.025 0  2.726086956521739 0.025 0  2.734347826086956 0.025 0  2.742608695652174 0.025 0  2.750869565217391 0.025 0  2.759130434782609 0.025 0  2.767391304347826 0.025 0  2.775652173913044 0.025 0  2.783913043478261 0.025 0  2.792173913043478 0.025 0  2.800434782608696 0.025 0  2.808695652173913 0.025 0  2.81695652173913 0.025 0  2.825217391304347 0.025 0  2.833478260869565 0.025 0  2.841739130434783 0.025 0  2.85 0.025 0  2.858260869565217 0.025 0  2.866521739130435 0.025 0  2.874782608695652 0.025 0  2.88304347826087 0.025 0  2.891304347826087 0.025 0  2.899565217391304 0.025 0  2.907826086956522 0.025 0  2.916086956521739 0.025 0  2.924347826086957 0.025 0  2.932608695652174 0.025 0  2.940869565217391 0.025 0  2.949130434782608 0.025 0  2.957391304347826 0.025 0  2.965652173913043 0.025 0  2.635217391304348 0.03333333333333333 0  2.643478260869565 0.03333333333333333 0  2.651739130434783 0.03333333333333333 0  2.66 0.03333333333333333 0  2.668260869565217 0.03333333333333333 0  2.676521739130435 0.03333333333333333 0  2.684782608695652 0.03333333333333333 0  2.693043478260869 0.03333333333333333 0  2.701304347826087 0.03333333333333333 0  2.709565217391304 0.03333333333333333 0  2.717826086956522 0.03333333333333333 0  2.726086956521739 0.03333333333333333 0  2.734347826086956 0.03333333333333333 0  2.742608695652174 0.03333333333333333 0  2.750869565217391 0.03333333333333333 0  2.759130434782609 0.03333333333333333 0  2.767391304347826 0.03333333333333333 0  2.775652173913044 0.03333333333333333 0  2.783913043478261 0.03333333333333333 0  2.792173913043478 0.03333333333333333 0  2.800434782608696 0.03333333333333333 0  2.808695652173913 0.03333333333333333 0  2.81695652173913 0.03333333333333333 0  2.825217391304347 0.03333333333333333 0  2.833478260869565 0.03333333333333333 0  2.841739130434783 0.03333333333333333 0  2.85 0.03333333333333333 0  2.858260869565217 0.03333333333333333 0  2.866521739130435 0.03333333333333333 0  2.874782608695652 0.03333333333333333 0  2.88304347826087 0.03333333333333333 0  2.891304347826087 0.03333333333333333 0  2.899565217391304 0.03333333333333333 0  2.907826086956522 0.03333333333333333 0  2.916086956521739 0.03333333333333333 0  2.924347826086957 0.03333333333333333 0  2.932608695652174 0.03333333333333333 0  2.940869565217391 0.03333333333333333 0  2.949130434782608 0.03333333333333333 0  2.957391304347826 0.03333333333333333 0  2.965652173913043 0.03333333333333333 0  2.973913043478261 0.03333333333333333 0  2.643478260869565 0.04166666666666666 0  2.651739130434783 0.04166666666666666 0  2.66 0.04166666666666666 0  2.668260869565217 0.04166666666666666 0  2.676521739130435 0.04166666666666666 0  2.684782608695652 0.04166666666666666 0  2.693043478260869 0.04166666666666666 0  2.701304347826087 0.04166666666666666 0  2.709565217391304 0.04166666666666666 0  2.717826086956522 0.04166666666666666 0  2.726086956521739 0.04166666666666666 0  2.734347826086956 0.04166666666666666 0  2.742608695652174 0.04166666666666666 0  2.750869565217391 0.04166666666666666 0  2.759130434782609 0.04166666666666666 0  2.767391304347826 0.04166666666666666 0  2.775652173913044 0.04166666666666666 0  2.783913043478261 0.04166666666666666 0  2.792173913043478 0.04166666666666666 0  2.800434782608696 0.04166666666666666 0  2.808695652173913 0.04166666666666666 0  2.81695652173913 0.04166666666666666 0  2.825217391304347 0.04166666666666666 0  2.833478260869565 0.04166666666666666 0  2.841739130434783 0.04166666666666666 0  2.85 0.04166666666666666 0  2.858260869565217 0.04166666666666666 0  2.866521739130435 0.04166666666666666 0  2.874782608695652 0.04166666666666666 0  2.88304347826087 0.04166666666666666 0  2.891304347826087 0.04166666666666666 0  2.899565217391304 0.04166666666666666 0  2.907826086956522 0.04166666666666666 0  2.916086956521739 0.04166666666666666 0  2.924347826086957 0.04166666666666666 0  2.932608695652174 0.04166666666666666 0  2.940869565217391 0.04166666666666666 0  2.949130434782608 0.04166666666666666 0  2.957391304347826 0.04166666666666666 0  2.965652173913043 0.04166666666666666 0  2.973913043478261 0.04166666666666666 0  2.982173913043478 0.04166666666666666 0  2.651739130434783 0.05 0  2.66 0.05 0  2.668260869565217 0.05 0  2.676521739130435 0.05 0  2.684782608695652 0.05 0  2.693043478260869 0.05 0  2.701304347826087 0.05 0  2.709565217391304 0.05 0  2.717826086956522 0.05 0  2.726086956521739 0.05 0  2.734347826086956 0.05 0  2.742608695652174 0.05 0  2.750869565217391 0.05 0  2.759130434782609 0.05 0  2.767391304347826 0.05 0  2.775652173913044 0.05 0  2.783913043478261 0.05 0  2.792173913043478 0.05 0  2.800434782608696 0.05 0  2.808695652173913 0.05 0  2.81695652173913 0.05 0  2.825217391304347 0.05 0  2.833478260869565 0.05 0  2.841739130434783 0.05 0  2.85 0.05 0  2.858260869565217 0.05 0  2.866521739130435 0.05 0  2.874782608695652 0.05 0  2.88304347826087 0.05 0  2.891304347826087 0.05 0  2.899565217391304 0.05 0  2.907826086956522 0.05 0  2.916086956521739 0.05 0  2.924347826086957 0.05 0  2.932608695652174 0.05 0  2.940869565217391 0.05 0  2.949130434782608 0.05 0  2.957391304347826 0.05 0  2.965652173913043 0.05 0  2
[...]
<CellData  Scalars="sigma_m"> 
<DataArray  type="Float64"  Name="sigma_m"  format="ascii">2.8343885392315257e+06   3.3374631792397723e+06   2.8793876715958444e+06   3.3463406764803194e+06   2.9149133433813737e+06   3.3557170692155743e+06   2.9435595900637307e+06   3.3655178391751526e+06   2.9672127658297131e+06   3.3755195530022928e+06   2.9871399048322714e+06   3.3855085265763858e+06   3.0044740961907380e+06   3.3954175844276990e+06   3.0205529610798918e+06   3.4053308390378715e+06   3.0369142460238761e+06   3.4153891714083501e+06   3.0549803085563160e+06   3.4256454725087192e+06   3.0757097480829996e+06   3.4360289679300715e+06   3.0994463465241469e+06   3.4464355041733850e+06   3.1259702262127851e+06   3.4567875826687631e+06   3.1547213234203886e+06   3.4670688408957692e+06   3.1850406837026104e+06   3.4773226416823501e+06   3.2162911297756373e+06   3.4875989924399708e+06   3.2479127657466349e+06   3.4979282835900835e+06   3.2794501226150463e+06   3.5083160883937296e+06   3.3105666648518755e+06   3.5187524889153782e+06   3.3410446971261110e+06   3.5292218202942833e+06   3.3707735096543040e+06   3.5397135685461927e+06   3.3997185777757880e+06   3.5502281450617006e+06   3.4278723928941879e+06   3.5607733290843917e+06   3.4552047058084663e+06   3.5713494813462528e+06   3.4816542622294356e+06   3.5819450630342257e+06   3.5071651552797253e+06   3.5925320981830708e+06   3.5317713227640586e+06   3.6030636897402019e+06   3.5557209993255711e+06   3.6134907557126819e+06   3.5795706511060013e+06   3.6237933492373293e+06   3.6041377386050234e+06   3.6339779209303027e+06   3.6303358743994762e+06   3.6440813823681599e+06   3.6589497206209940e+06   3.6542144620185527e+06   3.6903461888735509e+06   3.6645564085275037e+06   3.7242034659867808e+06   3.6752139938438130e+06   3.7595350079375114e+06   3.6860864077536478e+06   3.7951341067906390e+06   3.6969427267431631e+06   3.8300827326849112e+06   3.7076547899041451e+06   3.8638190107790139e+06   3.7183180009571128e+06   3.8957932603934724e+06   3.7291561832875619e+06   3.9252418248625328e+06   3.7403191180989700e+06   3.3665643753993618e+06   3.8687911089274688e+06   3.3744155449725804e+06   3.8420330966430660e+06   3.3829093190587317e+06   3.8250003460913710e+06   3.3920192131275488e+06   3.8154612230705125e+06   3.4014617532250714e+06   3.8112223183558420e+06   3.4109351413644520e+06   3.8105851604143521e+06   3.4203056833758275e+06   3.8123583576370273e+06   3.4296198892070185e+06   3.8155278274028054e+06   3.4390043258636710e+06   3.8189323843992585e+06   3.4484958608518010e+06   3.8211547135538277e+06   3.4580112090604547e+06   3.8208206931596226e+06   3.4674536454380639e+06   3.8171680629226370e+06   3.4767574891404291e+06   3.8102747132097613e+06   3.4859264749180325e+06   3.8008049237317732e+06   3.4950329858749239e+06   3.7896365756001906e+06   3.5041475317600309e+06   3.7775888116473234e+06   3.5133148303453303e+06   3.7653171875507580e+06   3.5225496338933506e+06   3.7532924029037794e+06   3.5318494412360648e+06   3.7418255167861390e+06   3.5412048319717292e+06   3.7310980299029057e+06   3.5506126668696404e+06   3.7211977252774620e+06   3.5600816643335521e+06   3.7121549443906662e+06   3.5696256706479257e+06   3.7039867180484100e+06   3.5792430309160245e+06   3.6967155291888737e+06   3.5889146282828543e+06   3.6903713696222301e+06   3.5985974159941417e+06   3.6849577746326746e+06   3.6082222338493052e+06   3.6803775628792676e+06   3.6177203224461223e+06   3.6763296166956425e+06   3.6270641558529320e+06   3.6722516689902609e+06   3.6362516390008316e+06   3.6673227742523998e+06   3.6453141596421176e+06   3.6606030204103314e+06   3.6543785601316183e+06   3.6513784791248436e+06   3.6636458941906653e+06   3.6395752354768314e+06   3.6731976417397452e+06   3.6258117287173346e+06   3.6828639173055580e+06   3.6109766229010555e+06   3.6923870770548508e+06   3.5958002843676615e+06   3.7017125449454868e+06   3.5808226252616006e+06   3.7110488879339388e+06   3.5666653236669092e+06   3.7206793108065417e+06   3.5543625538760722e+06   3.7307386083294153e+06   3.5453398849246171e+06   3.5407002991013583e+06   3.8952401073456141e+06   3.8674880571397259e+06   4.3087384643510142e+06   3.8498859139570016e+06   4.2745166171470778e+06   3.8399836470699753e+06   4.2517334879698530e+06   3.8354372742402172e+06   4.2370315756899146e+06   3.8344790575779011e+06   4.2284086331065195e+06   3.8359160307422974e+06   4.2246908929214710e+06   3.8387316803607955e+06   4.2244480807193834e+06   3.8417260414598915e+06   4.2250784204268893e+06   3.8433794216555459e+06   4.2227118211902715e+06   3.8422185001871195e+06   4.2135731405563150e+06   3.8374922047237381e+06   4.1955880388021907e+06   3.8293560570304361e+06   4.1694433668740685e+06   3.8185539170164512e+06   4.1377766132559497e+06   3.8060373919476978e+06   4.1030144948001383e+06   3.7926661422945685e+06   4.0669179380986472e+06   3.7791174341260483e+06   4.0308269880133746e+06   3.7658697251080405e+06   3.9956225045617735e+06   3.7532362990855551e+06   3.9618581207789425e+06   3.7413960604699836e+06   3.9298203121031867e+06   3.7304339091848866e+06   3.8996061995104346e+06   3.7203777880189186e+06   3.8711585292695197e+06   3.7112470254590972e+06   3.8443583649805691e+06   3.7030623075838932e+06   3.8191980538572520e+06   3.6958533384329230e+06   3.7958376848489931e+06   3.6896199514489365e+06   3.7744791555877305e+06   3.6842510646685455e+06   3.7552645819790172e+06   3.6794144987578918e+06   3.7380114300767640e+06   3.6745092175269234e+06   3.7216919936072114e+06   3.6686489767053635e+06   3.7042393040212388e+06   3.6608210888057486e+06   3.6830567084469474e+06   3.6502997601627242e+06   3.6557285806165966e+06   3.6370991907319226e+06   3.6210696073956187e+06   3.6219290764995404e+06   3.5803039351974037e+06   3.6056798185823057e+06   3.5366808792973147e+06   3.5890465695945369e+06   3.4933619825577964e+06   3.5725990709504313e+06   3.4516820798035967e+06   3.5570570022687162e+06   3.4114504826731803e+06   3.5436016266421541e+06   3.3732317884390368e+06   3.5337955471591824e+06   3.3404651944474671e+06   3.5287222256242367e+06   3.3182055003700275e+06   3.3075569733467088e+06   3.9282543052396625e+06   3.8984745405876245e+06   3.1794355629352084e+06   3.8763018560215961e+06   3.1765866644010791e+06   3.8595360360671496e+06   3.1422507793073463e+06   3.8470437828290989e+06   3.0863281045338647e+06   3.8377222873310456e+06   3.0112143941603564e+06   3.8298991326725124e+06   2.9120847690314068e+06   3.8214373058074983e+06   2.7860392556806961e+06   3.8102648818896986e+06   2.6421658668308468e+06   3.7950301153110978e+06   2.5078770277820085e+06   3.7754267544364003e+06   2.4131731604706799e+06   3.7521857070823140e+06   2.3696581420991174e+06   3.7265370001431149e+06   2.3687012451036558e+06   3.6993837378878477e+06   2.3937476603052285e+06   3.6713083742518490e+06   2.4298864334475026e+06   3.6428472550922558e+06   2.4663933299180013e+06   3.6144720891434727e+06   2.4966399055586415e+06   3.5865920456802845e+06   2.5176237745526661e+06   3.5595053875160590e+06   2.5285937169796536e+06   3.5333854429312460e+06   2.5301244782017292e+06   3.5082733460233035e+06   2.5231313071224866e+06   3.4841313796459241e+06   2.5084342359158141e+06   3.4609697833891674e+06   2.4862910515821138e+06   3.4388949373753108e+06   2.4569281637327662e+06   3.4180330695396964e+06   2.4200606671534204e+06   3.3984537223841730e+06   2.3754344451117753e+06   3.3800030346712847e+06   2.3235341721015614e+06   3.3620303507176163e+06   2.2667430455976226e+06   3.3434068638414782e+06   2.2105984618513836e+06   3.3228578680843683e+06   2.1664650922514908e+06   3.2991662054824005e+06   2.1483976734596780e+06   3.2714071511541666e+06   2.1631735897813514e+06   3.2395515361491488e+06   2.1997001163359527e+06   3.2049860877704858e+06   2.2349320592985824e+06   3.1700971854340280e+06   2.2550620508828950e+06   3.1366833013012963e+06   2.2610454608663893e+06   3.1050312619873290e+06   2.2556174347453685e+06   3.0750567554022237e+06   2.2397819488845882e+06   3.0479844802275957e+06   2.2159976011086274e+06   3.0261978829554473e+06   2.1872866557607166e+06   3.0105412376906015e+06   2.1520921731525273e+06   2.1034276713673794e+06   2.6514459920524224e+01   2.4258901737282454e+01   1.9889341711109118e-01   1.8764242891099986e+01   1.5713705548729978e-01   1.2990728830825267e+01   1.1016530527998132e-01   8.5826642970230100e+00   7.2480247226540576e-02   5.7244338394911347e+00   4.7449738388445288e-02   4.0028570190427706e+00   3.2220463008705610e-02   3.0134799791044138e+00   2.3314590369474971e-02   2.4902545038958053e+00   1.8366368235871261e-02   2.2760404673099939e+00   1.5926154178881786e-02   2.2800278869359496e+00   1.5175433400499936e-02   2.4464526442775796e+00   1.5620202524443053e-02   2.7452515507247703e+00   1.6948488197607848e-02   3.1642137306708578e+00   1.9027127070263727e-02   3.6912741442670498e+00   2.1782187307468729e-02   4.3034502761200804e+00   2.5093127650493312e-02   4.9631475720898299e+00   2.8781341703054332e-02   5.6178534159758842e+00   3.2580033400098470e-02   6.2074792111239407e+00   3.6169203132138603e-02   6.6776705290274627e+00   3.9217652205163198e-02   6.9911393846930387e+00   4.1479785713053267e-02   7.1161686984119958e+00   4.2797431183253597e-02   7.0160911422059034e+00   4.2983881989506638e-02   6.6749294830044406e+00   4.1853907481313277e-02   6.1282384942072552e+00   3.9466049326109760e-02   5.4708600300000558e+00   3.6193232629605485e-02   4.8452346325108531e+00   3.2728378511350610e-02   4.3956774233300200e+00   2.9966374757244636e-02   4.2347339853238211e+00   2.8738305929325157e-02   4.4804016691730606e+00   2.9804006762357248e-02   5.3488432710792173e+00   3.4365843444884470e-02   7.2818869847465315e+00   4.4866603093472193e-02   1.1143407784608865e+01   6.6190634718542196e-02   1.8470329887174607e+01   1.0757173983240238e-01   3.1508475620199732e+01   1.8461408332941720e-01   5.2350631324312474e+01   3.1816073922129595e-01   8.0211121108897714e+01   5.2381492551139774e-01   1.0713294858349977e+02   7.8356487438780298e-01   1.1778334796452003e+02   1.0115304854989779e+00   1.0190356832754726e+02   1.0763599050638675e+00   6.9893751259124954e+01   9.2847620446561130e-01   6.8985347681121967e-01   3.9186038330423777e-08   2.6599976299751635e-08   7.0762680162626653e-10   1.6720149557010959e-08   3.6223720549809765e-10   1.0447349334309666e-08   0.0000000000000000e+00   6.9011020287859915e-09   0.0000000000000000e+00   5.1220862373606799e-09   0.0000000000000000e+00   3.2367749506743206e-09   0.0000000000000000e+00   2.4892759494368098e-09   0.0000000000000000e+00   1.6987705298450813e-09   0.0000000000000000e+00   1.7357822667823499e-09   0.0000000000000000e+00   1.7703813264975762e-09   0.0000000000000000e+00   1.8024612979720551e-09   0.0000000000000000e+00   1.8319368165470754e-09   0.0000000000000000e+00   1.8588360449681829e-09   0.0000000000000000e+00   2.8248472232684096e-09   0.0000000000000000e+00   2.8578481234598718e-09   0.0000000000000000e+00   2.8874094366685674e-09   0.0000000000000000e+00   2.9136562061959361e-09   0.0000000000000000e+00   2.9366547087666835e-09   0.0000000000000000e+00   3.9419074990079566e-09   0.0000000000000000e+00   3.9640042388816525e-09   0.0000000000000000e+00   3.9819378043021007e-09   0.0000000000000000e+00   3.9958509172957919e-09   0.0000000000000000e+00   3.5051543839945818e-09   0.0000000000000000e+00   3.0090569755479987e-09   0.0000000000000000e+00   3.0105622242724490e-09   0.0000000000000000e+00   3.0083091319454411e-09   0.0000000000000000e+00   4.0019422665267492e-09   0.0000000000000000e+00   4.9817731514554202e-09   0.0000000000000000e+00   6.4352871037880289e-09   0.0000000000000000e+00   8.8315741540133993e-09   0.0000000000000000e+00   1.3580849642590689e-08   0.0000000000000000e+00   2.2959310455458023e-08   0.0000000000000000e+00   4.1421729819145693e-08   9.5626965545559171e-10   7.5824826157545001e-08   9.4032331327855784e-10   1.3465755982395405e-07   1.8458018219148046e-09   2.2686252946437689e-07   3.6175154872174960e-09   3.5296052583583105e-07   6.6375785924132087e-09   5.0503879917616990e-07   1.0811965325961881e-08   6.9220967359292302e-07   1.7731401359840954e-08   9.9541309426626745e-07   2.8400709495225056e-08   5.2865561342900947e-08   0.0000000000000000e+00   0.0000000000000000e+00   0.0000000000000000e+00   0.0000000000000000e+00   0.0000000000000000e+00   0.0000000000000000e+00   0.0000000000000000e+00   0.0000000000000000e+00   0.0000000000000000e+00   0.0000000000000000e+00   0.0000000000000000e+00   0.0000000000000000e+00   0.0000000000000000e+00   0.0000000000000000e+00   0.0000000000000000e+00   0.0000000000000000e+00   0.0000000000000000e+00   0.0000000000000000e+00   0.0000000000000000e+00   0.0000000000000000e+00   0.0000000000000000e+00   0.0000000000000000e+00   0.0000000000000000e+00   0.0000000000000000e+00   0.0000000000000000e+00   0.0000000000000000e+00   0.0000000000000000e+00   0.0000000000000000e+00   0.0000000000000000e+00   0.0000000000000000e+00   0.0000000000000000e+00   0.0000000000000000e+00   0.0000000000000000e+00   0.0000000000000000e+00   0.0000000000000000e+00   0.0000000000000000e+00   0.0000000000000000e+00   0.0000000000000000e+00   0.0000000000000000e+00   0.0000000000000000e+00   0.0000000000000000e+00   0.0000000000000000e+00   0.0000000000000000e+00   0.0000000000000000e+00   0.0000000000000000e+00   0.0000000000000000e+00   0.0000000000000000e+00   0.0000000000000000e+00   0.0000000000000000e+00   0.0000000000000000e+00   0.0000000000000000e+00   0.0000000000000000e+00   0.0000000000000000e+00   0.0000000000000000e+00   0.0000000000000000e+00   0.0000000000000000e+00   0.0000000000000000e+00   0.0000000000000000e+00   0.0000000000000000e+00   0.0000000000000000e+00   0.0000000000000000e+00   0.0000000000000000e+00   0.0000000000000000e+00   0.0000000000000000e+00   0.0000000000000000e+00   0.0000000000000000e+00   0.0000000000000000e+00   0.0000000000000000e+00   0.0000000000000000e+00   0.0000000000000000e+00   0.0000000000000000e+00   0.0000000000000000e+00   0.0000000000000000e+00   0.0000000000000000e+00   0.0000000000000000e+00   0.0000000000000000e+00   0.0000000000000000e+00   0.0000000000000000e+00   0.0000000000000000e+00   0.0000000000000000e+00   0.0000000000000000e+00   0.0000000000000000e+00   0.0000000000000000e+00   0.0000000000000000e+00   0.0000000000000000e+00   0.0000000000000000e+00   0.0000000000000000e+00   0.0000000000000000e+00   0.0000000000000000e+00   0.0000000000000000e+00   0.0000000000000000e+00   0.0000000000000000e+00   0.0000000000000000e+00   0.0000000000000000e+00   0.0000000000000000e+00   0.0000000000000000e+00   0.0000000000000000e+00   0.0000000000000000e+00   0.0000000000000000e+00   0.0000000000000000e+00   0.0000000000000000e+00   0.0000000000000000e+00   0.0000000000000000e+00   0.0000000000000000e+00   0.0000000000000000e+00   0.0000000000000000e+00   0.0000000000000000e+00   0.0000000000000000e+00   0.0000000000000000e+00   0.0000000000000000e+00   0.0000000000000000e+00   0.0000000000000000e+00   0.0000000000000000e+00   0.0000000000000000e+00   0.0000000000000000e+00   0.0000000000000000e+00   0.0000000000000000e+00   0.0000000000000000e+00   0.0000000000000000e+00   0.0000000000000000e+00   0.0000000000000000e+00   0.0000000000000000e+00   0.0000000000000000e+00   0.0000000000000000e+00   0.0000000000000000e+00   0.0000000000000000e+00   0.0000000000000000e+00   0.0000000000000000e+00   0.0000000000000000e+00   0.0000000000000000e+00   0.0000000000000000e+00   0.0000000000000000e+00   0.0000000000000000e+00   0.0000000000000000e+00   0.0000000000000000e+00   0.0000000000000000e+00   0.0000000000000000e+00   0.0000000000000000e+00   0.0000000000000000e+00   0.0000000000000000e+00   0.0000000000000000e+00   0.0000000000000000e+00   0.0000000000000000e+00   0.0000000000000000e+00   0.0000000000000000e+00   0.0000000000000000e+00   0.0000000000000000e+00   0.0000000000000000e+00   0.0000000000000000e+00   0.0000000000000000e+00   0.0000000000000000e+00   0.0000000000000000e+00   0.0000000000000000e+00   0.0000000000000000e+00   0.0000000000000000e+00   0.0000000000000000e+00   0.0000000000000000e+00   0.0000000000000000e+00   0.0000000000000000e+00   0.0000000000000000e+00   0.0000000000000000e+00   0.0000000000000000e+00   0.0000000000000000e+00   0.0000000000000000e+00   0.0000000000000000e+00   0.0000000000000000e+00   0.0000000000000000e+00   0.0000000000000000e+00   0.0000000000000000e+00   0.0000000000000000e+00   0.0000000000000000e+00   0.0000000000000000e+00   0.0000000000000000e+00   0.0000000000000000e+00   0.0000000000000000e+00   0.0000000000000000e+00   0.0000000000000000e+00   0.0000000000000000e+00   0.0000000000000000e+00   0.0000000000000000e+00   0.0000000000000000e+00   0.0000000000000000e+00   0.0000000000000000e+00   0.0000000000000000e+00   0.0000000000000000e+00   0.0000000000000000e+00   0.0000000000000000e+00   0.0000000000000000e+00   0.0000000000000000e+00   0.0000000000000000e+00   0.0000000000000000e+00   0.0000000000000000e+00   0.0000000000000000e+00   0.0000000000000000e+00   0.0000000000000000e+00   0.0000000000000000e+00   0.0000000000000000e+00   0.0000000000000000e+00   0.0000000000000000e+00   0.0000000000000000e+00   0.0000000000000000e+00   0.0000000000000000e+00   0.0000000000000000e+00   0.0000000000000000e+00   0.0000000000000000e+00   0.0000000000000000e+00   0.0000000000000000e+00   0.0000000000000000e+00   0.0000000000000000e+00   0.0000000000000000e+00   0.0000000000000000e+00   0.0000000000000000e+00   0.0000000000000000e+00   0.0000000000000000e+00   0.0000000000000000e+00   0.0000000000000000e+00   0.0000000000000000e+00   0.0000000000000000e+00   0.0000000000000000e+00   0.0000000000000000e+00   0.0000000000000000e+00   0.0000000000000000e+00   0.0000000000000000e+00   0.0000000000000000e+00   0.0000000000000000e+00   0.0000000000000000e+00   0.0000000000000000e+00   0.0000000000000000e+00   0.0000000000000000e+00   0.0000000000000000e+00   0.0000000000000000e+00   0.0000000000000000e+00   0.0000000000000000e+00   0.0000000000000000e+00   0.0000000000000000e+00   0.0000000000000000e+00   0.0000000000000000e+00   0.0000000000000000e+00   0.0000000000000000e+00   0.0000000000000000e+00   0.0000000000000000e+00   0.0000000000000000e+00   0.0000000000000000e+00   0.0000000000000000e+00   0.0000000000000000e+00   0.0000000000000000e+00   0.0000000000000000e+00   0.0000000000000000e+00   0.0000000000000000e+00   0.0000000000000000e+00   0.0000000000000000e+00   0.0000000000000000e+00   0.0000000000000000e+00   0.0000000000000000e+00   0.0000000000000000e+00   0.0000000000000000e+00   0.0000000000000000e+00   0.0000000000000000e+00   0.0000000000000000e+00   0.0000000000000000e+00   0.0000000000000000e+00   0.0000000000000000e+00   0.0000000000000000e+00   0.0000000000000000e+00   0.0000000000000000e+00   0.0000000000000000e+00   0.0000000000000000e+00   0.0000000000000000e+00   0.0000000000000000e+00   0.0000000000000000e+00   0.0000000000000000e+00   0.0000000000000000e+00   0.0000000000000000e+00   0.0000000000000000e+00   0.0000000000000000e+00   0.0000000000000000e+00   0.0000000000000000e+00   0.0000000000000000e+00   0.0000000000000000e+00   0.0000000000000000e+00   0.0000000000000000e+00   0.0000000000000000e+00   0.0000000000000000e+00   0.0000000000000000e+00   0.0000000000000000e+00   0.0000000000000000e+00   0.0000000000000000e+00   0.0000000000000000e+00   0.0000000000000000e+00   0.0000000000000000e+00   0.0000000000000000e+00   0.0000000000000000e+00   0.0000000000000000e+00   0.0000000000000000e+00   0.0000000000000000e+00   0.0000000000000000e+00   0.0000000000000000e+00   0.0000000000000000e+00   0.0000000000000000e+00   0.0000000000000000e+00   0.0000000000000000e+00   0.0000000000000000e+00   0.0000000000000000e+00   0.0000000000000000e+00   0.0000000000000000e+00   0.0000000000000000e+00   0.0000000000000000e+00   0.00000000