<?xml version="1.0"?>
<VTKFile type="UnstructuredGrid"  version="0.1"  >
<UnstructuredGrid>
<Piece  NumberOfPoints="2293" NumberOfCells="4385">
<Points>
<DataArray  type="Float64"  NumberOfComponents="3"  format="ascii">2.147826086956522 0 0  2.156086956521739 0 0  2.156086956521739 0.008333333333333333 0  2.147826086956522 0.008333333333333333 0  2.164347826086956 0 0  2.164347826086956 0.008333333333333333 0  2.172608695652174 0 0  2.172608695652174 0.008333333333333333 0  2.180869565217391 0 0  2.180869565217391 0.008333333333333333 0  2.189130434782609 0 0  2.189130434782609 0.008333333333333333 0  2.197391304347826 0 0  2.197391304347826 0.008333333333333333 0  2.205652173913043 0 0  2.205652173913043 0.008333333333333333 0  2.213913043478261 0 0  2.213913043478261 0.008333333333333333 0  2.222173913043478 0 0  2.222173913043478 0.008333333333333333 0  2.230434782608695 0 0  2.230434782608695 0.008333333333333333 0  2.238695652173913 0 0  2.238695652173913 0.008333333333333333 0  2.24695652173913 0 0  2.24695652173913 0.008333333333333333 0  2.255217391304348 0 0  2.255217391304348 0.008333333333333333 0  2.263478260869565 0 0  2.263478260869565 0.008333333333333333 0  2.271739130434783 0 0  2.271739130434783 0.008333333333333333 0  2.28 0 0  2.28 0.008333333333333333 0  2.288260869565217 0 0  2.288260869565217 0.008333333333333333 0  2.296521739130434 0 0  2.296521739130434 0.008333333333333333 0  2.304782608695652 0 0  2.304782608695652 0.008333333333333333 0  2.31304347826087 0 0  2.31304347826087 0.008333333333333333 0  2.321304347826087 0 0  2.321304347826087 0.008333333333333333 0  2.329565217391304 0 0  2.329565217391304 0.008333333333333333 0  2.337826086956521 0 0  2.337826086956521 0.008333333333333333 0  2.346086956521739 0 0  2.346086956521739 0.008333333333333333 0  2.354347826086956 0 0  2.354347826086956 0.008333333333333333 0  2.362608695652174 0 0  2.362608695652174 0.008333333333333333 0  2.370869565217391 0 0  2.370869565217391 0.008333333333333333 0  2.379130434782609 0 0  2.379130434782609 0.008333333333333333 0  2.387391304347826 0 0  2.387391304347826 0.008333333333333333 0  2.395652173913044 0 0  2.395652173913044 0.008333333333333333 0  2.403913043478261 0 0  2.403913043478261 0.008333333333333333 0  2.412173913043478 0 0  2.412173913043478 0.008333333333333333 0  2.420434782608695 0 0  2.420434782608695 0.008333333333333333 0  2.428695652173913 0 0  2.428695652173913 0.008333333333333333 0  2.43695652173913 0 0  2.43695652173913 0.008333333333333333 0  2.445217391304348 0 0  2.445217391304348 0.008333333333333333 0  2.453478260869565 0 0  2.453478260869565 0.008333333333333333 0  2.461739130434782 0 0  2.461739130434782 0.008333333333333333 0  2.47 0 0  2.47 0.008333333333333333 0  2.478260869565217 0 0  2.478260869565217 0.008333333333333333 0  2.486521739130435 0 0  2.486521739130435 0.008333333333333333 0  2.494782608695652 0 0  2.494782608695652 0.008333333333333333 0  2.503043478260869 0 0  2.503043478260869 0.008333333333333333 0  2.511304347826087 0 0  2.511304347826087 0.008333333333333333 0  2.519565217391305 0 0  2.519565217391305 0.008333333333333333 0  2.527826086956522 0 0  2.527826086956522 0.008333333333333333 0  2.536086956521739 0 0  2.536086956521739 0.008333333333333333 0  2.544347826086956 0 0  2.544347826086956 0.008333333333333333 0  2.552608695652174 0 0  2.552608695652174 0.008333333333333333 0  2.560869565217391 0 0  2.560869565217391 0.008333333333333333 0  2.569130434782608 0 0  2.569130434782608 0.008333333333333333 0  2.577391304347826 0 0  2.577391304347826 0.008333333333333333 0  2.585652173913043 0 0  2.585652173913043 0.008333333333333333 0  2.593913043478261 0 0  2.593913043478261 0.008333333333333333 0  2.602173913043478 0 0  2.602173913043478 0.008333333333333333 0  2.610434782608696 0 0  2.610434782608696 0.008333333333333333 0  2.618695652173913 0 0  2.618695652173913 0.008333333333333333 0  2.156086956521739 0.01666666666666667 0  2.164347826086956 0.01666666666666667 0  2.172608695652174 0.01666666666666667 0  2.180869565217391 0.01666666666666667 0  2.189130434782609 0.01666666666666667 0  2.197391304347826 0.01666666666666667 0  2.205652173913043 0.01666666666666667 0  2.213913043478261 0.01666666666666667 0  2.222173913043478 0.01666666666666667 0  2.230434782608695 0.01666666666666667 0  2.238695652173913 0.01666666666666667 0  2.24695652173913 0.01666666666666667 0  2.255217391304348 0.01666666666666667 0  2.263478260869565 0.01666666666666667 0  2.271739130434783 0.01666666666666667 0  2.28 0.01666666666666667 0  2.288260869565217 0.01666666666666667 0  2.296521739130434 0.01666666666666667 0  2.304782608695652 0.01666666666666667 0  2.31304347826087 0.01666666666666667 0  2.321304347826087 0.01666666666666667 0  2.329565217391304 0.01666666666666667 0  2.337826086956521 0.01666666666666667 0  2.346086956521739 0.01666666666666667 0  2.354347826086956 0.01666666666666667 0  2.362608695652174 0.01666666666666667 0  2.370869565217391 0.01666666666666667 0  2.379130434782609 0.01666666666666667 0  2.387391304347826 0.01666666666666667 0  2.395652173913044 0.01666666666666667 0  2.403913043478261 0.01666666666666667 0  2.412173913043478 0.01666666666666667 0  2.420434782608695 0.01666666666666667 0  2.428695652173913 0.01666666666666667 0  2.43695652173913 0.01666666666666667 0  2.445217391304348 0.01666666666666667 0  2.453478260869565 0.01666666666666667 0  2.461739130434782 0.01666666666666667 0  2.47 0.01666666666666667 0  2.478260869565217 0.01666666666666667 0  2.486521739130435 0.01666666666666667 0  2.494782608695652 0.01666666666666667 0  2.503043478260869 0.01666666666666667 0  2.511304347826087 0.01666666666666667 0  2.519565217391305 0.01666666666666667 0  2.527826086956522 0.01666666666666667 0  2.536086956521739 0.01666666666666667 0  2.544347826086956 0.01666666666666667 0  2.552608695652174 0.01666666666666667 0  2.560869565217391 0.01666666666666667 0  2.569130434782608 0.01666666666666667 0  2.577391304347826 0.01666666666666667 0  2.585652173913043 0.01666666666666667 0  2.593913043478261 0.01666666666666667 0  2.602173913043478 0.01666666666666667 0  2.610434782608696 0.01666666666666667 0  2.618695652173913 0.01666666666666667 0  2.164347826086956 0.025 0  2.172608695652174 0.025 0  2.180869565217391 0.025 0  2.189130434782609 0.025 0  2.197391304347826 0.025 0  2.205652173913043 0.025 0  2.213913043478261 0.025 0  2.222173913043478 0.025 0  2.230434782608695 0.025 0  2.238695652173913 0.025 0  2.24695652173913 0.025 0  2.255217391304348 0.025 0  2.263478260869565 0.025 0  2.271739130434783 0.025 0  2.28 0.025 0  2.288260869565217 0.025 0  2.296521739130434 0.025 0  2.304782608695652 0.025 0  2.31304347826087 0.025 0  2.321304347826087 0.025 0  2.329565217391304 0.025 0  2.337826086956521 0.025 0  2.346086956521739 0.025 0  2.354347826086956 0.025 0  2.362608695652174 0.025 0  2.370869565217391 0.025 0  2.379130434782609 0.025 0  2.387391304347826 0.025 0  2.395652173913044 0.025 0  2.403913043478261 0.025 0  2.412173913043478 0.025 0  2.420434782608695 0.025 0  2.428695652173913 0.025 0  2.43695652173913 0.025 0  2.445217391304348 0.025 0  2.453478260869565 0.025 0  2.461739130434782 0.025 0  2.47 0.025 0  2.478260869565217 0.025 0  2.486521739130435 0.025 0  2.494782608695652 0.025 0  2.503043478260869 0.025 0  2.511304347826087 0.025 0  2.519565217391305 0.025 0  2.527826086956522 0.025 0  2.536086956521739 0.025 0  2.544347826086956 0.025 0  2.552608695652174 0.025 0  2.560869565217391 0.025 0  2.569130434782608 0.025 0  2.577391304347826 0.025 0  2.585652173913043 0.025 0  2.593913043478261 0.025 0  2.602173913043478 0.025 0  2.610434782608696 0.025 0  2.618695652173913 0.025 0  2.62695652173913 0.025 0  2.172608695652174 0.03333333333333333 0  2.180869565217391 0.03333333333333333 0  2.189130434782609 0.03333333333333333 0  2.197391304347826 0.03333333333333333 0  2.205652173913043 0.03333333333333333 0  2.213913043478261 0.03333333333333333 0  2.222173913043478 0.03333333333333333 0  2.230434782608695 0.03333333333333333 0  2.238695652173913 0.03333333333333333 0  2.24695652173913 0.03333333333333333 0  2.255217391304348 0.03333333333333333 0  2.263478260869565 0.03333333333333333 0  2.271739130434783 0.03333333333333333 0  2.28 0.03333333333333333 0  2.288260869565217 0.03333333333333333 0  2.296521739130434 0.03333333333333333 0  2.304782608695652 0.03333333333333333 0  2.31304347826087 0.03333333333333333 0  2.321304347826087 0.03333333333333333 0  2.329565217391304 0.03333333333333333 0  2.337826086956521 0.03333333333333333 0  2.346086956521739 0.03333333333333333 0  2.354347826086956 0.03333333333333333 0  2.362608695652174 0.03333333333333333 0  2.370869565217391 0.03333333333333333 0  2.379130434782609 0.03333333333333333 0  2.387391304347826 0.03333333333333333 0  2.395652173913044 0.03333333333333333 0  2.403913043478261 0.03333333333333333 0  2.412173913043478 0.03333333333333333 0  2.420434782608695 0.03333333333333333 0  2.428695652173913 0.03333333333333333 0  2.43695652173913 0.03333333333333333 0  2.445217391304348 0.03333333333333333 0  2.453478260869565 0.03333333333333333 0  2.461739130434782 0.03333333333333333 0  2.47 0.03333333333333333 0  2.478260869565217 0.03333333333333333 0  2.486521739130435 0.03333333333333333 0  2.494782608695652 0.03333333333333333 0  2.503043478260869 0.03333333333333333 0  2.511304347826087 0.03333333333333333 0  2.519565217391305 0.03333333333333333 0  2.527826086956522 0.03333333333333333 0  2.536086956521739 0.03333333333333333 0  2.544347826086956 0.03333333333333333 0  2.552608695652174 0.03333333333333333 0  2.560869565217391 0.03333333333333333 0  2.569130434782608 0.03333333333333333 0  2.577391304347826 0.03333333333333333 0  2.585652173913043 0.03333333333333333 0  2.593913043478261 0.03333333333333333 0  2.602173913043478 0.03333333333333333 0  2.610434782608696 0.03333333333333333 0  2.618695652173913 0.03333333333333333 0  2.62695652173913 0.033333
[...]
<CellData  Scalars="rho"> 
<DataArray  type="Float64"  Name="rho"  format="ascii">9.8483032475854504e-01   9.8495321717321971e-01   9.8413022114172399e-01   9.8423327969143615e-01   9.8330223651067428e-01   9.8340932960935346e-01   9.8255772934980479e-01   9.8262452272632472e-01   9.8198147563043847e-01   9.8197695106182370e-01   9.8198475593734469e-01   9.8172697657690877e-01   9.8219427473808829e-01   9.8175768710516842e-01   9.8298914474288179e-01   9.8255904826592622e-01   9.8390942597253406e-01   9.8337978918372115e-01   9.8564371942020468e-01   9.8485179909497822e-01   9.8732534953812490e-01   9.8663008567921995e-01   9.8897667189282501e-01   9.8829766423235066e-01   9.9051798186249018e-01   9.8992005222754209e-01   9.9176703057466187e-01   9.9127644844980667e-01   9.9225264234253630e-01   9.9213407241059992e-01   9.9188823368129542e-01   9.9205508767902850e-01   9.8931747419031213e-01   9.8810156433817165e-01   9.0862981810124599e-01   9.3599732750704412e-01   8.5601571787874009e-01   8.7827313943342378e-01   7.7092076605726467e-01   7.7383669151534518e-01   7.0322740846285414e-01   7.1721912650694786e-01   7.9738902101282128e-01   8.1381038497594238e-01   8.0618238106972773e-01   8.0066402541508608e-01   8.7796007611355853e-01   8.2864311336203400e-01   8.9934426601610618e-01   8.9174234547789888e-01   9.2420483593867409e-01   9.2016738248815755e-01   9.3589848423198785e-01   9.3296332483172706e-01   9.7417004395060003e-01   9.7283501454660182e-01   9.7571157164941302e-01   9.7518857090110955e-01   9.6972724818083778e-01   9.7586624852124704e-01   9.6062818949467399e-01   9.6237766345003495e-01   9.3013074236944593e-01   9.5759373567480766e-01   9.2210071917840120e-01   9.2403252135977043e-01   9.1400261828630647e-01   9.1600149680129883e-01   9.0680944595594304e-01   9.0852779661608352e-01   8.2686024748027909e-01   8.2905395159408823e-01   8.0968743954400413e-01   8.1195640515171630e-01   8.0144326030437352e-01   8.0333721185612461e-01   7.8182267398430882e-01   7.8498458439301255e-01   7.6852397676981488e-01   7.7195804057893702e-01   7.5815170810194210e-01   7.6187035740222653e-01   7.1499247044012526e-01   7.5135574010050976e-01   7.0872397946369814e-01   7.1160437911760799e-01   7.8734957243887493e-01   7.9044721397967621e-01   7.7787956024177096e-01   7.7869082757845143e-01   7.8679689900651528e-01   7.8275278110408886e-01   7.7103891539408043e-01   7.9881507556325904e-01   7.7465169821981572e-01   7.7700870439434067e-01   7.6479149127869994e-01   7.4180474829348308e-01   8.1563945070821631e-01   7.9704545225803047e-01   8.6258318450483529e-01   8.3023946064935183e-01   9.1072755867769939e-01   8.7675144902908975e-01   9.9734489357770473e-01   9.3903504295325146e-01   9.9925934119712356e-01   9.9923457065002275e-01   9.9931584382802807e-01   9.9929331310296077e-01   9.9936716778278045e-01   9.9934710046710129e-01   9.9941254189241657e-01   9.9939487277875771e-01   9.8420827753780016e-01   9.7696291585915618e-01   9.6455017767930873e-01   9.8247756418491283e-01   9.7095613350399890e-01   9.8163396339359477e-01   9.7378088527338047e-01   9.8100393774138395e-01   9.8062429297641951e-01   9.8066632338283699e-01   9.8013423202162642e-01   9.8151019366251546e-01   9.8024261192721474e-01   9.8199084201914932e-01   9.8078464721982550e-01   9.8297165477900661e-01   9.8201575436247146e-01   9.8463673551225661e-01   9.8325139153400432e-01   9.8659029019474742e-01   9.8524389905938881e-01   9.8835586119483687e-01   9.8734615346883914e-01   9.8999572187294194e-01   9.8911235666974129e-01   9.9124397172414103e-01   9.9056217591540274e-01   9.9187587273946609e-01   9.9149767269206424e-01   9.9068177485704956e-01   9.9061693985492105e-01   9.6436905615614599e-01   9.6856688719704054e-01   8.6404778223091716e-01   8.3803686975708314e-01   8.1025990636000655e-01   8.0885794825558455e-01   7.2158667365794515e-01   7.1736919315199565e-01   6.4157870971429132e-01   6.2739625902435459e-01   7.6425157416947009e-01   7.4380986663917448e-01   7.8240840921738841e-01   7.6380352499158066e-01   8.5528973746825498e-01   7.8411638752510926e-01   8.9463912275121960e-01   8.8371210488388974e-01   9.2252635362610058e-01   9.1665816505412490e-01   9.5067082116445922e-01   9.3165207984067067e-01   9.7392332970948436e-01   9.7196818211760805e-01   9.7551627844742894e-01   9.7530369803702910e-01   9.7499092909200968e-01   9.7575200948694973e-01   9.5987210788382193e-01   9.6758488030560907e-01   9.2725463191517665e-01   9.5580496277056437e-01   9.1904055003936358e-01   9.2021211264435931e-01   9.1046923617356579e-01   9.1134477504994194e-01   9.0450397121769499e-01   9.0444198783315144e-01   8.1542541289101411e-01   8.1535899198620554e-01   8.0679077220866413e-01   8.0714015058117961e-01   7.9027147844397938e-01   7.9113842704200843e-01   7.7843659055578407e-01   7.8133991107296563e-01   7.7015899366553775e-01   7.7394678718380139e-01   7.6148141293949834e-01   7.7171894450068279e-01   7.5026280641996479e-01   7.6092107294586342e-01   7.0861278478454026e-01   7.2997846384577503e-01   7.8686514329188817e-01   7.9136855951937879e-01   7.7109566656735240e-01   7.7563129271660769e-01   7.7411750684826175e-01   7.5747328909074929e-01   7.3549017844003051e-01   7.0885620528916382e-01   7.2360424438485704e-01   6.7334069288885823e-01   7.2599145581254432e-01   6.7000615811232689e-01   7.3929564991603269e-01   6.9025363650954608e-01   7.4068270542274761e-01   6.8659132279081581e-01   8.6438127743050663e-01   7.8083496746064107e-01   9.3183490145825798e-01   8.8202261736535614e-01   9.9923672748864212e-01   9.9799632710588726e-01   9.9929664999168855e-01   9.9926483179397696e-01   9.9935022240332438e-01   9.9932230174571579e-01   9.9939700275015342e-01   9.9937242013008210e-01   9.4205554086307830e-01   9.5067285259850698e-01   9.3316509070234199e-01   9.5569935832602437e-01   9.3637288925714279e-01   9.6469951214674632e-01   9.4742342642844180e-01   9.7823298585963903e-01   9.5968601627300132e-01   9.7823923584852490e-01   9.7701771411477600e-01   9.7943223136038504e-01   9.7726541998734295e-01   9.8072695162784518e-01   9.7903184143842814e-01   9.8217615113172829e-01   9.8100107051050267e-01   9.8437564960474511e-01   9.8269418836842759e-01   9.8635496883459617e-01   9.8474755093963395e-01   9.8813737336989749e-01   9.8666504036009828e-01   9.8966180732330833e-01   9.8781777432476148e-01   9.8935242518110766e-01   9.8281459033738061e-01   9.4898604348281235e-01   9.0356577911009439e-01   8.4360991336004953e-01   8.3943321576455032e-01   7.7481873249125333e-01   7.8383705653818514e-01   6.7799599743925876e-01   6.7603864787126944e-01   5.8001160345487945e-01   5.7464281621829616e-01   4.0425866845547720e-01   3.8447794899442855e-01   5.6346496287664793e-01   5.2124279030950493e-01   7.0695920724340444e-01   5.4161829092937885e-01   8.1603889791454221e-01   6.8340555635395250e-01   8.9408622502927881e-01   8.4221366274487708e-01   9.1919398993542356e-01   8.9679673763093504e-01   9.6819000413729883e-01   9.3325613568584564e-01   9.7455000043295337e-01   9.7423934621134656e-01   9.7185663894140550e-01   9.7239321294338310e-01   9.7055028737934346e-01   9.7711763055462597e-01   9.6631227009169018e-01   9.6858275215292911e-01   9.2284296825688084e-01   9.6191592140568905e-01   9.1134029132603467e-01   9.1464133562156236e-01   9.0340149549054394e-01   9.0403253541967310e-01   8.9080517747135635e-01   8.9061380069877127e-01   8.0721039871892397e-01   8.8887854186171156e-01   7.9246792137680899e-01   8.7723727607027857e-01   7.8596703866745621e-01   8.7546139487987018e-01   8.7855612030285313e-01   8.8130059869758282e-01   8.7483701522551216e-01   8.8006216616941724e-01   8.6772930998825792e-01   8.7499894846812110e-01   8.5684916312688975e-01   8.6568866546135848e-01   8.2398751917590196e-01   8.5178560300967365e-01   8.0643268789509803e-01   8.1571389687908669e-01   7.6675875727360077e-01   7.8375834374503861e-01   7.4383538834689777e-01   7.5412378330118668e-01   6.5906814979755490e-01   6.5089380623534976e-01   6.4532118941632732e-01   4.4030783222153458e-01   5.9109121234773654e-01   3.8975925890082191e-01   6.5407455824305372e-01   5.8580712361015630e-01   6.6431809245255469e-01   5.5282804865348190e-01   7.5143646374788553e-01   6.8553090776631931e-01   8.2733696438629434e-01   7.6655590832928622e-01   9.1114466045745013e-01   8.4831460442620499e-01   9.9925480372979181e-01   9.9619896390995155e-01   9.9931293186862147e-01   9.9914467366649784e-01   9.9936259071899858e-01   9.9901443818115421e-01   9.9752759810057012e-01   9.1357755364465409e-01   9.2001387950240798e-01   8.8616632555763686e-01   9.2750683758557406e-01   9.0450620563417228e-01   9.2902734635033557e-01   9.1327314226389700e-01   9.4834126518561268e-01   9.2499905533705062e-01   9.7460083164957534e-01   9.3316467570460182e-01   9.7539925364138802e-01   9.5727435462553845e-01   9.7873513163128634e-01   9.7443131693329044e-01   9.8081492864893138e-01   9.7610757918224211e-01   9.8299401123987340e-01   9.4853230860891313e-01   9.8281037860687159e-01   9.8024943265191877e-01   9.3130489725048549e-01   8.8288173551011306e-01   8.4740649467778728e-01   7.9447248488092814e-01   7.5976655032024265e-01   7.4379178660259992e-01   7.1091307366999967e-01   6.8713511762743495e-01   6.0275237110133550e-01   5.6566184092521643e-01   4.3358925858405534e-01   2.7979663251679648e-01   9.6935489900970284e-02   0.0000000000000000e+00   3.7746913469957594e-02   0.0000000000000000e+00   3.3556714465047044e-01   2.5935914957812528e-01   4.4799092043467542e-01   2.9642736637173084e-01   7.3792495099384969e-01   5.6208236662659561e-01   8.3157251626157336e-01   7.6993349137176359e-01   9.0390570385056479e-01   8.6981872659868453e-01   9.3821089387035861e-01   9.2867916543670792e-01   9.4589295065018542e-01   9.3924554779317992e-01   9.4900937546753572e-01   9.4446349875232838e-01   9.4691220191638459e-01   9.4365075667317744e-01   9.4111481392725405e-01   9.4666079762411814e-01   9.3287779109883762e-01   9.5138244083046763e-01   8.7561898774066660e-01   9.3591328094253123e-01   8.7423485659830691e-01   9.0974595301327010e-01   8.6314876634657511e-01   8.9016864438015508e-01   8.6627801461665199e-01   8.7352045377415311e-01   8.7668593188328281e-01   9.1043546857229041e-01   9.2122987502712406e-01   9.0864270353880083e-01   9.2544981911384971e-01   9.0880753308423290e-01   9.2757024815140199e-01   9.0745400208044880e-01   9.2534787643056571e-01   9.0211995868891115e-01   9.1683315532763243e-01   8.8996323099201691e-01   9.0100553724052546e-01   8.7035869971383784e-01   8.6312017490870119e-01   8.0035277229045343e-01   8.3465758156985115e-01   7.0050258385252873e-01   7.1396690483310221e-01   6.7465442457523073e-01   5.2314813374778701e-01   4.2773374712509199e-01   2.1451404145585296e-01   1.5610381465121348e-01   2.3805449420003477e-01   5.1464123989335947e-02   3.9888590538515506e-01   1.1359682817507874e-01   4.6928711502763548e-01   5.9992773088864748e-02   6.0886487538531675e-01   2.8562713535523571e-01   7.2127692173108127e-01   4.3981031639910823e-01   7.9099261453895031e-01   4.6730967504574744e-01   8.4902626471110876e-01   5.1623500712394998e-01   9.9510495853958336e-01   6.3132275563739426e-01   9.9488627703427757e-01   7.7403752304352513e-01   9.9444651943761564e-01   8.7762150234761938e-01   8.8701599881349946e-01   7.2576404396756355e-01   6.2318407667896125e-01   7.4924261879496701e-01   6.7428969050845378e-01   7.6047055594003854e-01   5.5128283212112816e-01   7.6373011994164286e-01   5.6005569995142468e-01   6.9701182614548474e-01   5.6815188718395460e-01   7.4381412909160260e-01   5.6551497116481286e-01   7.2623904225442482e-01   5.0755823900768138e-01   7.0329525800910253e-01   4.7916289441232679e-01   6.6628647055783763e-01   4.4208907974875322e-01   6.4184005292177992e-01   4.0321045223032898e-01   5.9238212952307423e-01   3.8924984452076233e-01   4.9374346924320439e-01   3.0192608378756558e-01   4.1507906225726626e-01   2.6090326993568064e-01   2.9106101299020554e-01   1.3878310081884673e-01   4.4306875433883619e-02   0.0000000000000000e+00   0.0000000000000000e+00   0.0000000000000000e+00   0.0000000000000000e+00   0.0000000000000000e+00   0.0000000000000000e+00   0.0000000000000000e+00   0.0000000000000000e+00   0.0000000000000000e+00   3.2502132919639791e-02   0.0000000000000000e+00   4.0747362550964028e-01   2.0866902761447143e-01   5.7178393357747548e-01   4.6067001327151968e-01   6.5762592158628719e-01   5.7086057766732690e-01   6.6539522846475785e-01   5.8417750479568087e-01   6.7232004427987835e-01   6.1441536959109511e-01   6.3618106923729056e-01   6.1781950272910935e-01   6.2986398473539529e-01   6.1151739164918628e-01   6.1773878228632106e-01   5.9378550737275293e-01   6.0252262693022307e-01   5.5985235289796842e-01   5.7383758239473182e-01   5.2818371360074357e-01   5.4489789593902538e-01   4.9467595548414395e-01   5.3136624568399538e-01   4.8446062158520409e-01   5.3970672356937399e-01   4.8745546765456194e-01   5.5397867526747302e-01   4.9662262165919929e-01   5.6943551323067942e-01   5.3426983310609177e-01   5.7721557182210026e-01   5.4747545163181621e-01   5.9740843050808468e-01   5.6094750344752242e-01   6.0881899692288444e-01   5.6551656221655344e-01   6.1570023600650492e-01   5.5954873143781525e-01   5.7745536142318865e-01   5.3951222642618679e-01   5.4974962682340189e-01   5.0548998934663047e-01   4.8751035982053464e-01   4.6158042462340698e-01   4.0744297352142539e-01   3.9000029748824522e-01   1.6990177102051254e-01   2.8716099939402007e-01   0.0000000000000000e+00   0.0000000000000000e+00   0.0000000000000000e+00   0.0000000000000000e+00   0.0000000000000000e+00   0.0000000000000000e+00   0.0000000000000000e+00   0.0000000000000000e+00   0.0000000000000000e+00   0.0000000000000000e+00   1.5038594350015400e-01   0.0000000000000000e+00   2.5781488369504191e-01   7.9735629616927498e-02   3.6082542447219551e-01   1.5854212609879265e-01   3.6846763903956120e-01   1.3702670577817924e-01   4.0400857181451699e-01   1.8783379160170818e-01   5.0159495081558947e-01   2.2854054112439581e-01   5.3697816715918101e-01   3.4009119846749858e-01   3.7827961026307538e-01   8.9834293730320758e-02   1.5787424889378396e-01   0.0000000000000000e+00   1.8317573480603888e-01   1.0074040725423807e-02   2.0026097919258143e-01   1.4950090872687893e-04   1.9085086944754034e-01   0.0000000000000000e+00   1.0337641168413321e-01   0.0000000000000000e+00   6.6693617481452902e-02   0.0000000000000000e+00   0.0000000000000000e+00   0.0000000000000000e+00   3.0484635130884855e-04   0.0000000000000000e+00   1.1370676357928167e-03   5.4482541812097174e-04   2.2778208816673232e-03   1.7381049605941254e-03   1.0508289546443050e-03   7.0621696729282317e-04   0.0000000000000000e+00   6.0275117439656742e-05   0.0000000000000000e+00   0.0000000000000000e+00   0.0000000000000000e+00   0.0000000000000000e+00   0.0000000000000000e+00   0.0000000000000000e+00   0.0000000000000000e+00   0.0000000000000000e+00   0.0000000000000000e+00   0.0000000000000000e+00   0.0000000000000000e+00   0.0000000000000000e+00   0.0000000000000000e+00   0.0000000000000000e+00   2.4360365506518195e-01   1.8126548763133338e-01   3.8280309264921847e-01   3.0520865624276772e-01   4.3862148159737369e-01   3.8536360182258461e-01   4.6091570534378440e-01   4.1769214287146100e-01   4.8351939935384219e-01   4.3706556125366786e-01   4.9499030246303116e-01   4.3943012160308098e-01   4.7318082635586506e-01   4.2858897519338851e-01   4.5880118563211170e-01   4.0969188542140017e-01   4.3114679927916100e-01   3.9080918587283664e-01   3.7794922302676720e-01   3.2117165835265665e-01   3.6323103745129043e-01   2.7314723925756923e-01   3.5775627141542476e-01   2.6332980825606411e-01   3.6369559472353136e-01   2.6626029155839392e-01   3.9586878075013338e-01   2.8009762847687170e-01   4.1762112824318748e-01   2.9434545631889819e-01   4.3294310649345957e-01   3.1301021252001704e-01   4.1807499639721274e-01   3.3764928668787592e-01   4.3692620633448331e-01   3.6575322469221705e-01   4.2261821288252754e-01   3.6965272943936717e-01   3.9412617830385327e-01   3.4053604425985712e-01   3.5411084843421070e-01   3.0185651869279817e-01   3.1617440080747661e-01   2.5749054118695308e-01   2.4773436410781099e-01   2.1619088653914731e-01   1.5305104557577565e-01   1.4573527644313158e-01   0.0000000000000000e+00   0.0000000000000000e+00   0.0000000000000000e+00   0.0000000000000000e+00   0.0000000000000000e+00   0.0000000000000000e+00   0.0000000000000000e+00   0.0000000000000000e+00   0.0000000000000000e+00   0.0000000000000000e+00   0.0000000000000000e+00   0.0000000000000000e+00   0.0000000000000000e+00   0.0000000000000000e+00   5.5682200879819427e-04   2.0600581220220823e-04   2.8741851438275194e-03   8.1022380152823202e-04   4.8821052833750572e-03   2.1045472662757259e-03   3.3233689657021790e-03   3.0574473166143606e-03   2.7791549354238198e-03   1.9476199351347507e-03   4.6851901284083057e-02   5.5651561851583864e-04   4.3492100456619399e-05   0.0000000000000000e+00   0.0000000000000000e+00   0.0000000000000000e+00   0.0000000000000000e+00   0.0000000000000000e+00   0.0000000000000000e+00   0.0000000000000000e+00   0.0000000000000000e+00   0.0000000000000000e+00   0.0000000000000000e+00   0.0000000000000000e+00   0.0000000000000000e+00   0.0000000000000000e+00   0.0000000000000000e+00   2.6089971838041570e-05   0.0000000000000000e+00   5.4396067460309053e-04   2.5466831263992452e-04   4.9106846883878680e-04   2.5732046594477106e-04   1.1461368263653171e-04   1.6921956328954396e-04   0.0000000000000000e+00   0.0000000000000000e+00   0.0000000000000000e+00   0.0000000000000000e+00   0.0000000000000000e+00   0.0000000000000000e+00   0.0000000000000000e+00   0.0000000000000000e+00   0.0000000000000000e+00   0.0000000000000000e+00   0.0000000000000000e+00   0.0000000000000000e+00   0.0000000000000000e+00   0.0000000000000000e+00   0.0000000000000000e+00   0.0000000000000000e+00   4.4506752569234975e-03   4.9419149247767174e-03   6.9353215242827573e-02   6.9899434633515209e-02   1.0062140888939843e-01   1.0328628363173269e-01   1.3543330625486977e-01   1.4290942620908853e-01   3.0471525068055255e-01   1.7902350487979168e-01   2.9905051344471423e-01   1.8097026202578143e-01   2.3785328705249462e-01   1.5531866942819625e-01   2.1209342878887408e-01   1.2768989736026043e-01   1.8827902688221201e-01   1.0487859786699123e-01   1.4502248112039298e-01   7.2055170218839934e-02   1.2504740768867642e-01   3.9685633466407071e-02   1.1955145845989716e-01   2.7115011433115718e-02   1.2986870457281127e-01   3.1876047564585418e-02   1.5782373726189206e-01   5.1730201592568477e-02   1.9430684354796940e-01   8.6913919609157481e-02   2.2670013804055819e-01   1.2265230871191582e-01   2.7021672250787904e-01   1.7152026832329964e-01   3.0102704404882269e-01   2.2084979986846995e-01   3.0473419814301483e-01   2.3758754125019385e-01   2.6551632615217180e-01   2.1671156597301280e-01   2.3110089357412547e-01   1.6903861965270547e-01   1.4324886968838169e-01   1.0682738834091475e-01   1.0348454969422670e-01   6.1841331532486297e-02   0.0000000000000000e+00   3.2437555411445246e-02   0.0000000000000000e+00   0.0000000000000000e+00   0.0000000000000000e+00   0.0000000000000000e+00   0.0000000000000000e+00   0.0000000000000000e+00   0.0000000000000000e+00   0.0000000000000000e+00   0.0000000000000000e+00   0.0000000000000000e+00   0.0000000000000000e+00   0.0000000000000000e+00   0.0000000000000000e+00   0.0000000000000000e+00   1.6713248286640849e-04   0.0000000000000000e+00   4.0326943709787031e-04   7.3325442125503844e-05   1.1869167462668171e-03   4.2317423592931180e-04   1.0495786116031037e-03   6.3883699620877503e-04   5.3234687557092214e-04   5.0490371765048376e-04   3.5714724450173037e-04   3.6616344673280068e-04   0.0000000000000000e+00   0.0000000000000000e+00   0.0000000000000000e+00   0.0000000000000000e+00   0.0000000000000000e+00   0.0000000000000000e+00   0.0000000000000000