<?xml version="1.0"?>
<VTKFile type="UnstructuredGrid"  version="0.1"  >
<UnstructuredGrid>
<Piece  NumberOfPoints="2445" NumberOfCells="4647">
<Points>
<DataArray  type="Float64"  NumberOfComponents="3"  format="ascii">0 0 0  0.008260869565217391 0 0  0.008260869565217391 0.008333333333333333 0  0 0.008333333333333333 0  0.01652173913043478 0 0  0.01652173913043478 0.008333333333333333 0  0.02478260869565217 0 0  0.02478260869565217 0.008333333333333333 0  0.03304347826086956 0 0  0.03304347826086956 0.008333333333333333 0  0.04130434782608695 0 0  0.04130434782608695 0.008333333333333333 0  0.04956521739130434 0 0  0.04956521739130434 0.008333333333333333 0  0.05782608695652174 0 0  0.05782608695652174 0.008333333333333333 0  0.06608695652173913 0 0  0.06608695652173913 0.008333333333333333 0  0.07434782608695652 0 0  0.07434782608695652 0.008333333333333333 0  0.08260869565217391 0 0  0.08260869565217391 0.008333333333333333 0  0.0908695652173913 0 0  0.0908695652173913 0.008333333333333333 0  0.09913043478260869 0 0  0.09913043478260869 0.008333333333333333 0  0.1073913043478261 0 0  0.1073913043478261 0.008333333333333333 0  0.1156521739130435 0 0  0.1156521739130435 0.008333333333333333 0  0.1239130434782609 0 0  0.1239130434782609 0.008333333333333333 0  0.1321739130434783 0 0  0.1321739130434783 0.008333333333333333 0  0.1404347826086956 0 0  0.1404347826086956 0.008333333333333333 0  0.148695652173913 0 0  0.148695652173913 0.008333333333333333 0  0.1569565217391304 0 0  0.1569565217391304 0.008333333333333333 0  0.1652173913043478 0 0  0.1652173913043478 0.008333333333333333 0  0.1734782608695652 0 0  0.1734782608695652 0.008333333333333333 0  0.1817391304347826 0 0  0.1817391304347826 0.008333333333333333 0  0.19 0 0  0.19 0.008333333333333333 0  0.1982608695652174 0 0  0.1982608695652174 0.008333333333333333 0  0.2065217391304348 0 0  0.2065217391304348 0.008333333333333333 0  0.2147826086956522 0 0  0.2147826086956522 0.008333333333333333 0  0.2230434782608696 0 0  0.2230434782608696 0.008333333333333333 0  0.2313043478260869 0 0  0.2313043478260869 0.008333333333333333 0  0.2395652173913043 0 0  0.2395652173913043 0.008333333333333333 0  0.2478260869565218 0 0  0.2478260869565218 0.008333333333333333 0  0.2560869565217391 0 0  0.2560869565217391 0.008333333333333333 0  0.2643478260869565 0 0  0.2643478260869565 0.008333333333333333 0  0.2726086956521739 0 0  0.2726086956521739 0.008333333333333333 0  0.2808695652173913 0 0  0.2808695652173913 0.008333333333333333 0  0.2891304347826087 0 0  0.2891304347826087 0.008333333333333333 0  0.2973913043478261 0 0  0.2973913043478261 0.008333333333333333 0  0.3056521739130434 0 0  0.3056521739130434 0.008333333333333333 0  0.3139130434782609 0 0  0.3139130434782609 0.008333333333333333 0  0.3221739130434783 0 0  0.3221739130434783 0.008333333333333333 0  0.3304347826086956 0 0  0.3304347826086956 0.008333333333333333 0  0.338695652173913 0 0  0.338695652173913 0.008333333333333333 0  0.3469565217391304 0 0  0.3469565217391304 0.008333333333333333 0  0.3552173913043478 0 0  0.3552173913043478 0.008333333333333333 0  0.3634782608695652 0 0  0.3634782608695652 0.008333333333333333 0  0.3717391304347826 0 0  0.3717391304347826 0.008333333333333333 0  0.3799999999999999 0 0  0.3799999999999999 0.008333333333333333 0  0.3882608695652174 0 0  0.3882608695652174 0.008333333333333333 0  0.3965217391304348 0 0  0.3965217391304348 0.008333333333333333 0  0.4047826086956521 0 0  0.4047826086956521 0.008333333333333333 0  0.4130434782608696 0 0  0.4130434782608696 0.008333333333333333 0  0.4213043478260869 0 0  0.4213043478260869 0.008333333333333333 0  0.4295652173913043 0 0  0.4295652173913043 0.008333333333333333 0  0.4378260869565217 0 0  0.4378260869565217 0.008333333333333333 0  0.4460869565217391 0 0  0.4460869565217391 0.008333333333333333 0  0.4543478260869565 0 0  0.4543478260869565 0.008333333333333333 0  0.4626086956521739 0 0  0.4626086956521739 0.008333333333333333 0  0.4708695652173913 0 0  0.4708695652173913 0.008333333333333333 0  0.4791304347826086 0 0  0.4791304347826086 0.008333333333333333 0  0.4873913043478261 0 0  0.4873913043478261 0.008333333333333333 0  0.4956521739130435 0 0  0.4956521739130435 0.008333333333333333 0  0.5039130434782608 0 0  0.5039130434782608 0.008333333333333333 0  0.5121739130434783 0 0  0.5121739130434783 0.008333333333333333 0  0.5204347826086956 0 0  0.5204347826086956 0.008333333333333333 0  0.528695652173913 0 0  0.528695652173913 0.008333333333333333 0  0.5369565217391304 0 0  0.5369565217391304 0.008333333333333333 0  0.5452173913043478 0 0  0.5452173913043478 0.008333333333333333 0  0.5534782608695652 0 0  0.5534782608695652 0.008333333333333333 0  0.5617391304347825 0 0  0.5617391304347825 0.008333333333333333 0  0.57 0 0  0.57 0.008333333333333333 0  0.5782608695652174 0 0  0.5782608695652174 0.008333333333333333 0  0.5865217391304348 0 0  0.5865217391304348 0.008333333333333333 0  0.5947826086956521 0 0  0.5947826086956521 0.008333333333333333 0  0.6030434782608696 0 0  0.6030434782608696 0.008333333333333333 0  0.6113043478260869 0 0  0.6113043478260869 0.008333333333333333 0  0.6195652173913043 0 0  0.6195652173913043 0.008333333333333333 0  0.6278260869565218 0 0  0.6278260869565218 0.008333333333333333 0  0.6360869565217391 0 0  0.6360869565217391 0.008333333333333333 0  0.6443478260869565 0 0  0.6443478260869565 0.008333333333333333 0  0.6526086956521739 0 0  0.6526086956521739 0.008333333333333333 0  0.6608695652173913 0 0  0.6608695652173913 0.008333333333333333 0  0.6691304347826087 0 0  0.6691304347826087 0.008333333333333333 0  0.677391304347826 0 0  0.677391304347826 0.008333333333333333 0  0.6856521739130435 0 0  0.6856521739130435 0.008333333333333333 0  0.6939130434782609 0 0  0.6939130434782609 0.008333333333333333 0  0.7021739130434783 0 0  0.7021739130434783 0.008333333333333333 0  0.7104347826086956 0 0  0.7104347826086956 0.008333333333333333 0  0.718695652173913 0 0  0.718695652173913 0.008333333333333333 0  0.7269565217391304 0 0  0.7269565217391304 0.008333333333333333 0  0.7352173913043478 0 0  0.7352173913043478 0.008333333333333333 0  0.7434782608695653 0 0  0.7434782608695653 0.008333333333333333 0  0.7517391304347827 0 0  0.7517391304347827 0.008333333333333333 0  0.7599999999999999 0 0  0.7599999999999999 0.008333333333333333 0  0.008260869565217391 0.01666666666666667 0  0 0.01666666666666667 0  0.01652173913043478 0.01666666666666667 0  0.02478260869565217 0.01666666666666667 0  0.03304347826086956 0.01666666666666667 0  0.04130434782608695 0.01666666666666667 0  0.04956521739130434 0.01666666666666667 0  0.05782608695652174 0.01666666666666667 0  0.06608695652173913 0.01666666666666667 0  0.07434782608695652 0.01666666666666667 0  0.08260869565217391 0.01666666666666667 0  0.0908695652173913 0.01666666666666667 0  0.09913043478260869 0.01666666666666667 0  0.1073913043478261 0.01666666666666667 0  0.1156521739130435 0.01666666666666667 0  0.1239130434782609 0.01666666666666667 0  0.1321739130434783 0.01666666666666667 0  0.1404347826086956 0.01666666666666667 0  0.148695652173913 0.01666666666666667 0  0.1569565217391304 0.01666666666666667 0  0.1652173913043478 0.01666666666666667 0  0.1734782608695652 0.01666666666666667 0  0.1817391304347826 0.01666666666666667 0  0.19 0.01666666666666667 0  0.1982608695652174 0.01666666666666667 0  0.2065217391304348 0.01666666666666667 0  0.2147826086956522 0.01666666666666667 0  0.2230434782608696 0.01666666666666667 0  0.2313043478260869 0.01666666666666667 0  0.2395652173913043 0.01666666666666667 0  0.2478260869565218 0.01666666666666667 0  0.2560869565217391 0.01666666666666667 0  0.2643478260869565 0.01666666666666667 0  0.2726086956521739 0.01666666666666667 0  0.2808695652173913 0.01666666666666667 0  0.2891304347826087 0.01666666666666667 0  0.2973913043478261 0.01666666666666667 0  0.3056521739130434 0.01666666666666667 0  0.3139130434782609 0.01666666666666667 0  0.3221739130434783 0.01666666666666667 0  0.3304347826086956 0.01666666666666667 0  0.338695652173913 0.01666666666666667 0  0.3469565217391304 0.01666666666666667 0  0.3552173913043478 0.01666666666666667 0  0.3634782608695652 0.01666666666666667 0  0.3717391304347826 0.01666666666666667 0  0.3799999999999999 0.01666666666666667 0  0.3882608695652174 0.01666666666666667 0  0.3965217391304348 0.01666666666666667 0  0.4047826086956521 0.01666666666666667 0  0.4130434782608696 0.01666666666666667 0  0.4213043478260869 0.01666666666666667 0  0.4295652173913043 0.01666666666666667 0  0.4378260869565217 0.01666666666666667 0  0.4460869565217391 0.01666666666666667 0  0.4543478260869565 0.01666666666666667 0  0.4626086956521739 0.01666666666666667 0  0.4708695652173913 0.01666666666666667 0  0.4791304347826086 0.01666666666666667 0  0.4873913043478261 0.01666666666666667 0  0.4956521739130435 0.01666666666666667 0  0.5039130434782608 0.01666666666666667 0  0.5121739130434783 0.01666666666666667 0  0.5204347826086956 0.01666666666666667 0  0.528695652173913 0.01666666666666667 0  0.5369565217391304 0.01666666666666667 0  0.5452173913043478 0.01666666666666667 0  0.5534782608695652 0.01666666666666667 0  0.5617391304347825 0.01666666666666667 0  0.57 0.01666666666666667 0  0.5782608695652174 0.01666666666666667 0  0.5865217391304348 0.01666666666666667 0  0.5947826086956521 0.01666666666666667 0  0.6030434782608696 0.01666666666666667 0  0.6113043478260869 0.01666666666666667 0  0.6195652173913043 0.01666666666666667 0  0.6278260869565218 0.01666666666666667 0  0.6360869565217391 0.01666666666666667 0  0.6443478260869565 0.01666666666666667 0  0.6526086956521739 0.01666666666666667 0  0.6608695652173913 0.01666666666666667 0  0.6691304347826087 0.01666666666666667 0  0.677391304347826 0.01666666666666667 0  0.6856521739130435 0.01666666666666667 0  0.6939130434782609 0.01666666666666667 0  0.7021739130434783 0.01666666666666667 0  0.7104347826086956 0.01666666666666667 0  0.718695
[...]
<CellData  Scalars="sigma_m"> 
<DataArray  type="Float64"  Name="sigma_m"  format="ascii">2.6452627855983686e+07   1.9214342091483925e+07   2.3034084589423105e+07   2.0358170939494234e+07   2.2457074469850723e+07   1.9984696929424439e+07   2.2399562686099734e+07   1.9698929338572383e+07   2.2472914704113308e+07   1.9542835890908848e+07   2.2580243367344290e+07   1.9464295149147112e+07   2.2700385961646184e+07   1.9430866712763451e+07   2.2834783257927854e+07   1.9426924497876935e+07   2.2989626439152904e+07   1.9444983077397678e+07   2.3167709318709224e+07   1.9478709916871291e+07   2.3371116526019838e+07   1.9523702535360355e+07   2.3602032095247131e+07   1.9577751858553201e+07   2.3855841235750861e+07   1.9635544642854225e+07   2.4119206881643374e+07   1.9687671867758442e+07   2.4371065875303715e+07   1.9722907053876456e+07   2.4563558018665560e+07   1.9715091942599438e+07   2.4644896011678874e+07   1.9640602348350454e+07   2.4534081032721709e+07   1.9463281061013009e+07   2.4156971017612487e+07   1.9155860579892099e+07   2.3422189913407777e+07   1.8688930597161081e+07   2.2237734127068087e+07   1.8024411710628103e+07   2.0584063763926640e+07   1.7139944222881675e+07   1.8487880496236358e+07   1.6011983851169977e+07   1.6117392810421718e+07   1.4673661488483338e+07   1.3683074532397645e+07   1.3210490957392892e+07   1.1386936111911625e+07   1.1714179629799407e+07   9.4164236497015245e+06   1.0327916060715312e+07   7.8860124266326120e+06   9.1909066108408757e+06   6.7200523125606105e+06   8.2613672446579533e+06   5.7669295126510458e+06   7.4320536614099974e+06   4.9428210827227458e+06   6.6706003333854228e+06   4.2381312662772723e+06   5.9985933720499678e+06   3.6482106253818572e+06   5.4155986840064805e+06   3.1354902295826711e+06   4.8830858871453451e+06   2.6604621477050125e+06   4.3728809351437557e+06   2.2193445423769746e+06   3.8981369950206378e+06   1.8345143621182702e+06   3.4849688243611678e+06   1.5200188815584367e+06   3.1337744659448778e+06   1.2705219466085928e+06   2.8389764373065494e+06   1.0769144968177702e+06   2.6074672525847587e+06   9.3981612162646861e+05   2.4573761612376547e+06   8.8170471911863564e+05   2.3987986029917700e+06   9.4944501431003201e+05   2.4381169108236851e+06   1.1922760170868051e+06   2.5826884899208145e+06   1.6272781530907571e+06   2.8388186895242380e+06   2.2482093804445555e+06   3.2100323547592391e+06   3.0449412302404218e+06   3.6969968966761390e+06   4.0044421376991090e+06   4.2955084131430676e+06   5.1034409768894045e+06   4.9932841634258693e+06   6.2998682922728742e+06   5.7669468874283545e+06   7.5249783711889051e+06   6.5797954506905787e+06   8.6777437938589230e+06   7.3805130677626804e+06   9.6253231029149983e+06   8.1030615262607941e+06   1.0217186045603294e+07   8.6686604336130507e+06   1.0323485296200501e+07   8.9901155567631926e+06   9.9416386373884156e+06   9.0345405167882349e+06   9.3023241277359631e+06   8.9196484062192608e+06   8.5851899477412011e+06   8.7370669929958247e+06   7.9514998225151729e+06   8.5505609709967319e+06   7.5579789825176680e+06   8.4478783453453407e+06   7.4546290539086806e+06   8.4417909470043648e+06   7.5787024401377905e+06   8.4895802466157135e+06   7.8234935368996011e+06   8.5536048307182807e+06   8.0954318411079738e+06   8.6158423594325036e+06   8.3334795641988227e+06   8.6689515214762464e+06   8.5071796585909892e+06   8.7098805779888928e+06   8.6076067882983647e+06   8.7379786904793922e+06   8.6369099482035954e+06   8.7534168462203257e+06   8.6015474147273041e+06   8.7559723675221819e+06   8.5115181938628145e+06   8.7455875391791929e+06   8.3827485791189354e+06   8.7243303060754631e+06   8.2375179661038620e+06   8.6974970710472241e+06   8.1004204587900583e+06   8.6721121445845775e+06   7.9921359388415869e+06   8.6539513166588973e+06   7.9250973442645352e+06   8.6457610431919079e+06   7.9027076532863630e+06   8.6475152828909345e+06   7.9210470498163048e+06   8.6575581065297965e+06   7.9715365272293407e+06   8.6735871967401821e+06   8.0436779984526811e+06   8.6933245223025642e+06   8.1272337308281008e+06   8.7148805532242786e+06   8.2134544584430996e+06   8.7368156554396749e+06   8.2954638162330380e+06   8.7580274124330860e+06   8.3682394010421364e+06   8.7776771045396812e+06   8.4284454894434810e+06   8.7951706785300560e+06   8.4741823639966194e+06   8.8101080527884103e+06   8.5047902048115265e+06   8.8222159141924027e+06   8.5208805643756688e+06   8.8313924295612201e+06   8.5244831127413288e+06   8.8379146632616092e+06   8.5187841150395069e+06   8.8425130958107822e+06   8.5072208525016308e+06   8.8460349587844126e+06   8.4926396474096272e+06   8.8490656016563717e+06   8.4771925003012922e+06   8.8519069599141348e+06   1.8505692069751535e+07   1.4671508233488362e+07   2.0107639539749261e+07   1.5868994001028236e+07   1.9750253997416630e+07   1.6395543363008803e+07   1.9490124047248490e+07   1.6355079519297456e+07   1.9341701971537162e+07   1.6194347436112031e+07   1.9261968814587153e+07   1.6030912375827068e+07   1.9225214697591029e+07   1.5886701861220229e+07   1.9218673544527281e+07   1.5762639396759380e+07   1.9235160973587573e+07   1.5654415123642568e+07   1.9266598110680733e+07   1.5551560691573884e+07   1.9308883358616538e+07   1.5446045630567450e+07   1.9360147983992387e+07   1.5337700258264404e+07   1.9412407457880225e+07   1.5223982644695571e+07   1.9453924770956978e+07   1.5100689659589548e+07   1.9472419316300835e+07   1.4973258843505222e+07   1.9431872816212904e+07   1.4827800725376897e+07   1.9315233778105889e+07   1.4669121165603416e+07   1.9078637971924029e+07   1.4496026236534184e+07   1.8714696040551122e+07   1.4325900629962299e+07   1.8200819750095710e+07   1.4184115533316152e+07   1.7518303267242905e+07   1.4073046416815534e+07   1.6690604706367519e+07   1.3984155648282925e+07   1.5690769563803822e+07   1.3831695491803940e+07   1.4575117300174298e+07   1.3477886052104255e+07   1.3364222817694889e+07   1.2986750094183624e+07   1.2073128979575889e+07   1.2269071091545444e+07   1.0794077066324562e+07   1.1362566474717885e+07   9.6862795955637842e+06   1.0562223827504136e+07   8.7581547038290519e+06   9.9228105212223995e+06   7.9254805171083910e+06   9.2646551123549603e+06   7.1509492511816053e+06   8.5655922991146613e+06   6.4573223856108636e+06   7.9121624526823098e+06   5.8596237417313727e+06   7.3570729866219284e+06   5.3267377460593143e+06   6.8478642813541405e+06   4.8178216327381376e+06   6.3268797079908419e+06   4.3276325348806474e+06   5.8114777630340932e+06   3.8781149152154722e+06   5.3527854145319657e+06   3.4777422752275667e+06   4.9505050566546163e+06   3.1198676783376690e+06   4.5804259862706540e+06   2.8050094912969144e+06   4.2444048773845527e+06   2.5543845371649782e+06   3.9708101951650693e+06   2.3994341570870983e+06   3.7777391568541625e+06   2.3747378287285226e+06   3.6754852017720533e+06   2.5116173356207227e+06   3.6773162587220347e+06   2.8225995955563234e+06   3.7912569580691243e+06   3.2962003017240702e+06   4.0133895434242436e+06   3.9079209933999702e+06   4.3318386845310591e+06   4.6284470791118043e+06   4.7302971533630127e+06   5.4234812844401048e+06   5.1888681118687028e+06   6.2509428695882801e+06   5.6850928886422366e+06   7.0600655802624477e+06   6.1967530672216928e+06   7.7937970270431712e+06   6.7056747465057289e+06   8.3939229488917440e+06   7.1994753760665813e+06   8.8062610802352075e+06   7.6630759540763441e+06   8.9765645626370534e+06   8.0438584381552879e+06   8.9288857388693783e+06   8.2765950846552886e+06   8.8482475605083536e+06   8.5178410981289428e+06   8.7143806483426727e+06   8.8316906694639251e+06   8.5656607260841504e+06   9.0951075018096510e+06   8.4821017229364216e+06   9.3068538480841797e+06   8.4777760138525981e+06   9.4246166416026466e+06   8.5251664136230871e+06   9.4190769921328630e+06   8.5902179060072564e+06   9.3228869527612180e+06   8.6520222386893351e+06   9.1889795366473868e+06   8.7013512124435287e+06   9.0612179223159403e+06   8.7364295421493426e+06   8.9654309239934999e+06   8.7593625200381409e+06   8.9129971695815828e+06   8.7721901377336830e+06   8.9058583841051068e+06   8.7750486997834463e+06   8.9392142473312356e+06   8.7674409968788810e+06   9.0033912388829775e+06   8.7507997098446675e+06   9.0864952528263498e+06   8.7295550373382699e+06   9.1771350405981764e+06   8.7095144764279276e+06   9.2651762897436526e+06   8.6952885231912751e+06   9.3410656037571393e+06   8.6890911110290922e+06   9.3965452975500971e+06   8.6910787762368489e+06   9.4268415662541185e+06   8.7001122661847100e+06   9.4318930294676814e+06   8.7143557272213325e+06   9.4155504779222757e+06   8.7318397392470669e+06   9.3838188865647055e+06   8.7508832277762536e+06   9.3432572298444398e+06   8.7702128487672824e+06   9.2998961491373852e+06   8.7888657818329632e+06   9.2586191625293437e+06   8.8061404475227930e+06   9.2229878449814655e+06   8.8215815394650493e+06   9.1953600998555962e+06   8.8348926624180432e+06   9.1770434393441807e+06   8.8458349320693444e+06   9.1683466304480042e+06   8.8542977924134545e+06   9.1686013212707229e+06   8.8605798685258925e+06   9.1764216613398194e+06   8.8654440033296756e+06   9.1901943200139012e+06   8.8696526066280287e+06   9.2082726713301316e+06   8.8735834350897577e+06   9.2289209002469089e+06   8.8773263707364444e+06   9.2503920707747657e+06   1.4239440149554309e+07   1.1069847109868146e+07   1.5626935645782199e+07   1.1969705293025104e+07   1.6124507495419148e+07   1.2540836994664103e+07   1.6082863589811377e+07   1.2718429644687131e+07   1.5936876670532119e+07   1.2651384535464039e+07   1.5785179689849837e+07   1.2485732537130354e+07   1.5649032129161973e+07   1.2285828249899279e+07   1.5531460427875584e+07   1.2079038979926921e+07   1.5428486290589996e+07   1.1874314475625865e+07   1.5326276336729640e+07   1.1660377667285984e+07   1.5219416352172475e+07   1.1427175256954912e+07   1.5109482659884010e+07   1.1181690182007834e+07   1.4988404078980142e+07   1.0926226855567554e+07   1.4849318601143207e+07   1.0660773646062179e+07   1.4699019688493952e+07   1.0412009285513716e+07   1.4499680860824259e+07   1.0175521004194682e+07   1.4278124060989348e+07   9.9716795609545596e+06   1.4001462502551878e+07   9.8333129273895007e+06   1.3731188207906684e+07   9.7852937770782541e+06   1.3470954445586063e+07   9.9160262841178793e+06   1.3236430143224046e+07   1.0164363795998694e+07   1.3121184079217605e+07   1.0609372405508203e+07   1.2990926965036221e+07   1.1338635077828659e+07   1.2878462840551529e+07   1.1838269006396219e+07   1.2738664388085628e+07   1.2408803595833309e+07   1.2401213369658688e+07   1.2912123951250311e+07   1.1778934891171047e+07   1.2600941559224416e+07   1.1130426900005702e+07   1.1985175957787097e+07   1.0546583975730347e+07   1.1600728943228191e+07   9.9018481533233412e+06   1.1120297382730845e+07   9.1888988725467380e+06   1.0469337309202082e+07   8.5122971933311354e+06   9.7917350817843825e+06   7.9430154592921520e+06   9.2606201303300597e+06   7.4280375642754333e+06   8.8024137938831765e+06   6.8913358144931924e+06   8.2785728871072680e+06   6.3428792168553947e+06   7.7037427082700282e+06   5.8393044876127522e+06   7.1911633825467089e+06   5.3824347327176183e+06   6.7409772663895832e+06   4.9421892687976807e+06   6.2865930529549560e+06   4.5137536095332671e+06   5.8197008504110277e+06   4.1283346640048325e+06   5.3863274170721192e+06   3.8178954384988062e+06   5.0120451564566335e+06   3.6141167121794452e+06   4.7075707272499129e+06   3.5577082194779296e+06   4.5011201648025503e+06   3.6791454200720415e+06   4.4196980231435793e+06   3.9773972578931269e+06   4.4693883777161809e+06   4.4230774658736931e+06   4.6386312576095071e+06   4.9722890014185002e+06   4.9028476924038576e+06   5.5766073710769815e+06   5.2278265806876682e+06   6.1884813760616984e+06   5.5763215368350875e+06   6.7659498112441413e+06   5.9177190451926729e+06   7.2778771723853890e+06   6.2375583961836640e+06   7.7049450773773473e+06   6.5440257886108654e+06   8.0240602901892178e+06   6.8588658213910740e+06   8.1618293085989524e+06   7.1429971429809416e+06   8.1388381603601873e+06   7.4350280827158242e+06   8.4264119801185690e+06   7.9438944201321760e+06   8.7836078257252313e+06   8.9214844694929924e+06   9.1028729710338339e+06   9.9897920152325127e+06   9.3624183952192683e+06   1.0728487636536380e+07   9.4807284409463704e+06   1.0867141220321564e+07   9.4596336906037554e+06   1.0565790894071501e+07   9.3497040798005387e+06   1.0117736186103523e+07   9.2078562625152636e+06   9.6790548880018257e+06   9.0758125170252863e+06   9.3249205584887285e+06   8.9775049788495377e+06   9.0869803413284570e+06   8.9245146703562457e+06   8.9652620197253469e+06   8.9191614221929628e+06   8.9490778355977926e+06   8.9560995013151690e+06   9.0283425814760327e+06   9.0249414677904937e+06   9.1904987547442000e+06   9.1137128228000216e+06   9.4134848749765512e+06   9.2110545670094062e+06   9.6642824122103024e+06   9.3058371413136702e+06   9.9048730897597261e+06   9.3867400968511626e+06   1.0100929017830094e+07   9.4443523477784973e+06   1.0229361314722594e+07   9.4739627893715929e+06   1.0282158916453345e+07   9.4763404990014266e+06   1.0265637692120252e+07   9.4562697738957386e+06   1.0195914914597135e+07   9.4204854223734606e+06   1.0092618209981170e+07   9.3760360451618247e+06   9.9735542922425196e+06   9.3292411636699531e+06   9.8527485520614199e+06   9.2851076310415324e+06   9.7406027656956799e+06   9.2472359839696772e+06   9.6445413605538998e+06   9.2180072677002084e+06   9.5691976540004294e+06   9.1987246931287628e+06   9.5169857110880855e+06   9.1896305657354575e+06   9.4886520359752420e+06   9.1899363590961322e+06   9.4833898636251520e+06   9.1981890455667153e+06   9.4981759752394296e+06   9.2127922053016238e+06   9.5275190770035665e+06   9.2320032853896152e+06   9.5653575848723818e+06   9.2538545671962146e+06   9.6072884784562699e+06   9.2763968963745292e+06   9.6504423781302981e+06   9.6922841067423224e+06   1.0836988144020557e+07   7.8257577045247806e+06   1.1726131467593675e+07   8.4360004455574434e+06   1.2257488347039469e+07   8.8899447104165573e+06   1.2409277564681729e+07   9.0907229121879749e+06   1.2342066308589146e+07   9.0829036119567826e+06   1.2184075976514369e+07   8.9358626736058891e+06   1.1994053904700886e+07   8.7098606523685660e+06   1.1797844345129088e+07   8.4509824976930004e+06   1.1601525908407561e+07   8.1842372534065973e+06   1.1384147550052723e+07   7.8965214566820906e+06   1.1143462359772714e+07   7.5706938326110095e+06   1.0890561769622035e+07   7.2266612029130021e+06   1.0614955388621803e+07   6.8752696107504331e+06   1.0314833163312450e+07   6.5179592874916103e+06   1.0027238678131195e+07   6.2024834640957061e+06   9.6844599498245846e+06   5.9796836608258914e+06   9.3784738083111327e+06   5.7988980097908564e+06   9.0266376866232399e+06   5.8645747634832859e+06   8.7937530440906677e+06   5.8636272441336457e+06   8.6515316217227411e+06   6.2019231574626500e+06   8.5463885314649977e+06   6.5674060402919641e+06   8.9382080248533543e+06   6.2294354362278311e+06   9.6010345850473009e+06   7.4670379037550976e+06   1.0553056046698695e+07   9.1876283665560316e+06   1.1659904222935604e+07   1.1173990858341714e+07   1.2718487465445669e+07   1.3631504393145785e+07   1.3096091342759609e+07   1.6046410205587359e+07   1.2644965675546521e+07   1.3681671388257315e+07   1.2295286912653597e+07   1.3282669077895854e+07   1.1809097797426902e+07   1.2930194648476321e+07   1.1154863346050339e+07   1.2471540662786564e+07   1.0464567892267022e+07   1.1684641036025552e+07   9.9177211018542871e+06   1.1063502264854444e+07   9.4491234245852474e+06   1.0685726280723542e+07   8.8974672714468148e+06   1.0220272107768668e+07   8.2838194617687780e+06   9.5725966970617790e+06   7.7348891118900739e+06   9.0004902049919441e+06   7.2416124320560042e+06   8.5291812979133297e+06   6.7267063194105346e+06   8.0010282656225683e+06   6.1747955232716408e+06   7.3908580474015307e+06   5.6351814794683531e+06   6.7788821148799760e+06   5.1395947741387365e+06   6.1989267825379213e+06   4.7107951966262106e+06   5.6472145793396505e+06   4.3990794314166019e+06   5.1700034904138707e+06   4.2603201268703789e+06   4.8238797161520300e+06   4.3213328836913723e+06   4.6382573350323401e+06   4.5694583327248311e+06   4.6199947103902008e+06   4.9595726846590508e+06   4.7505521543223951e+06   5.4310524673984824e+06   4.9833914963880852e+06   5.9255228523111362e+06   5.2572931619810667e+06   6.3988910204386311e+06   5.5166442089859080e+06   6.8251661995240925e+06   5.7236843548654532e+06   7.1901129123106236e+06   5.8598890981657142e+06   7.4541842628610637e+06   5.9159238415136430e+06   7.4359377530131079e+06   5.7826386384628499e+06   7.3906115035165660e+06   5.6717233459701622e+06   8.0542363003724841e+06   7.4983178209489211e+06   9.2158655377630666e+06   8.0709676165180830e+06   1.0201090500297636e+07   1.0891458903074354e+07   1.0784267047529373e+07   1.2925239064710634e+07   1.0919550053838624e+07   1.2425040099291081e+07   1.0648910337257832e+07   1.1362952625068678e+07   1.0184143314315638e+07   1.0233501314831531e+07   9.7060717263808865e+06   9.4170625180737674e+06   9.3215166359547377e+06   8.8987594111331180e+06   9.0698652050856389e+06   8.6199092929332629e+06   8.9469923590875361e+06   8.5158640383861251e+06   8.9374794755005464e+06   8.5224002224900834e+06   9.0285091043349802e+06   8.6257314040770363e+06   9.2049725328003559e+06   8.8441686495424397e+06   9.4405306741577070e+06   9.1816574337186851e+06   9.6977319012984838e+06   9.5886322845637500e+06   9.9377198373959400e+06   9.9686100947699044e+06   1.0129391129568843e+07   1.0237661945858927e+07   1.0253545124739781e+07   1.0370061690329123e+07   1.0304002315071071e+07   1.0383885018002668e+07   1.0286643109394042e+07   1.0309745646837801e+07   1.0216209373309458e+07   1.0177614651030170e+07   1.0111323722390717e+07   1.0016570516117001e+07   9.9896493863461185e+06   9.8491224898691606e+06   9.8656187104859352e+06   9.6888109981854744e+06   9.7502278747751750e+06   9.5435283252641037e+06   9.6514036596590150e+06   9.4204964270277489e+06   9.5740849869245999e+06   9.3245699994494915e+06   9.5208081036603916e+06   9.2572007739239652e+06   9.4923404292996787e+06   9.2187598878631685e+06   9.4877823846122827e+06   9.2102983685948607e+06   9.5037547410188820e+06   9.2315501956488248e+06   9.5342473934681043e+06   9.2736934636275358e+06   9.5729353530670982e+06   9.3201904301725067e+06   9.6154022204689011e+06   9.3625755598733388e+06   9.6588521534716394e+06   9.4024889712386299e+06   9.7007801642259024e+06   9.4424133891624771e+06   9.4796944264623821e+06   7.7680474404675486e+06   4.7758782061903635e+06   8.2024490432602661e+06   5.1823112218404571e+06   8.5595002221803851e+06   5.5227326281579155e+06   8.7178060537947174e+06   5.6911326760618435e+06   8.6942889151373152e+06   5.7055356961324178e+06   8.5405156623551324e+06   5.5832163122554040e+06   8.3167862041362301e+06   5.3518036539690951e+06   8.0657798592802957e+06   5.0732624656954026e+06   7.8039371502640899e+06   4.7987477596970974e+06   7.4917063443781137e+06   4.5377335897918586e+06   7.1353045088865655e+06   4.2312699677806459e+06   6.7627393028134489e+06   3.9245898393003722e+06   6.3487968146527056e+06   3.7124030126239406e+06   5.8978876186110387e+06   3.5746371493787137e+06   5.5011387516712472e+06   3.4779721058544591e+06   5.0008842456075978e+06   4.0639582552662254e+06   4.6272552395410668e+06   4.2315091642816672e+06   4.1422441247476791e+06   5.4663230721295029e+06   3.7622201213581618e+06   5.7453724972003307e+06   3.5759021501864069e+06   6.3744314510152042e+06   3.4584986239062194e+06   6.7310962623157380e+06   4.1149115944555798e+06   4.5275494371465882e+06   5.2696031309851948e+06   5.0702200390428789e+06   7.5033826333109923e+06   3.8744975372213633e+06   9.7130673314825017e+06   6.5316938915354526e+06   1.2210675119451560e+07   9.6523267678792309e+06   1.4947496488103075e+07   1.3129030206748243e+07   1.4857109421996210e+07   1.7652351570523761e+07   1.41554097