<?xml version="1.0"?>
<VTKFile type="UnstructuredGrid"  version="0.1"  >
<UnstructuredGrid>
<Piece  NumberOfPoints="2295" NumberOfCells="4395">
<Points>
<DataArray  type="Float64"  NumberOfComponents="3"  format="ascii">0 0.04166666666666666 0  0.008260869565217391 0.04166666666666666 0  0.008260869565217391 0.05 0  0 0.05 0  0.01652173913043478 0.05 0  0.008260869565217391 0.05833333333333333 0  0 0.05833333333333333 0  0.01652173913043478 0.05833333333333333 0  0.02478260869565217 0.05 0  0.02478260869565217 0.05833333333333333 0  0.03304347826086956 0.05 0  0.03304347826086956 0.05833333333333333 0  0.04130434782608695 0.05 0  0.04130434782608695 0.05833333333333333 0  0.04956521739130434 0.05 0  0.04956521739130434 0.05833333333333333 0  0.05782608695652174 0.05833333333333333 0  0.008260869565217391 0.06666666666666667 0  0 0.06666666666666667 0  0.01652173913043478 0.06666666666666667 0  0.02478260869565217 0.06666666666666667 0  0.03304347826086956 0.06666666666666667 0  0.04130434782608695 0.06666666666666667 0  0.04956521739130434 0.06666666666666667 0  0.05782608695652174 0.06666666666666667 0  0.06608695652173913 0.06666666666666667 0  0.008260869565217391 0.075 0  0 0.075 0  0.01652173913043478 0.075 0  0.02478260869565217 0.075 0  0.03304347826086956 0.075 0  0.04130434782608695 0.075 0  0.04956521739130434 0.075 0  0.05782608695652174 0.075 0  0.06608695652173913 0.075 0  0.07434782608695652 0.075 0  0.008260869565217391 0.08333333333333333 0  0 0.08333333333333333 0  0.01652173913043478 0.08333333333333333 0  0.02478260869565217 0.08333333333333333 0  0.03304347826086956 0.08333333333333333 0  0.04130434782608695 0.08333333333333333 0  0.04956521739130434 0.08333333333333333 0  0.05782608695652174 0.08333333333333333 0  0.06608695652173913 0.08333333333333333 0  0.07434782608695652 0.08333333333333333 0  0.08260869565217391 0.08333333333333333 0  0.008260869565217391 0.09166666666666666 0  0 0.09166666666666666 0  0.01652173913043478 0.09166666666666666 0  0.02478260869565217 0.09166666666666666 0  0.03304347826086956 0.09166666666666666 0  0.04130434782608695 0.09166666666666666 0  0.04956521739130434 0.09166666666666666 0  0.05782608695652174 0.09166666666666666 0  0.06608695652173913 0.09166666666666666 0  0.07434782608695652 0.09166666666666666 0  0.08260869565217391 0.09166666666666666 0  0.0908695652173913 0.08333333333333333 0  0.0908695652173913 0.09166666666666666 0  0.09913043478260869 0.08333333333333333 0  0.09913043478260869 0.09166666666666666 0  0.1073913043478261 0.08333333333333333 0  0.1073913043478261 0.09166666666666666 0  0.1156521739130435 0.08333333333333333 0  0.1156521739130435 0.09166666666666666 0  0.1239130434782609 0.08333333333333333 0  0.1239130434782609 0.09166666666666666 0  0.1321739130434783 0.08333333333333333 0  0.1321739130434783 0.09166666666666666 0  0.1404347826086956 0.09166666666666666 0  0.008260869565217391 0.1 0  0 0.1 0  0.01652173913043478 0.1 0  0.02478260869565217 0.1 0  0.03304347826086956 0.1 0  0.04130434782608695 0.1 0  0.04956521739130434 0.1 0  0.05782608695652174 0.1 0  0.06608695652173913 0.1 0  0.07434782608695652 0.1 0  0.08260869565217391 0.1 0  0.0908695652173913 0.1 0  0.09913043478260869 0.1 0  0.1073913043478261 0.1 0  0.1156521739130435 0.1 0  0.1239130434782609 0.1 0  0.1321739130434783 0.1 0  0.1404347826086956 0.1 0  0.148695652173913 0.1 0  0.008260869565217391 0.1083333333333333 0  0 0.1083333333333333 0  0.01652173913043478 0.1083333333333333 0  0.02478260869565217 0.1083333333333333 0  0.03304347826086956 0.1083333333333333 0  0.04130434782608695 0.1083333333333333 0  0.04956521739130434 0.1083333333333333 0  0.05782608695652174 0.1083333333333333 0  0.06608695652173913 0.1083333333333333 0  0.07434782608695652 0.1083333333333333 0  0.08260869565217391 0.1083333333333333 0  0.0908695652173913 0.1083333333333333 0  0.09913043478260869 0.1083333333333333 0  0.1073913043478261 0.1083333333333333 0  0.1156521739130435 0.1083333333333333 0  0.1239130434782609 0.1083333333333333 0  0.1321739130434783 0.1083333333333333 0  0.1404347826086956 0.1083333333333333 0  0.148695652173913 0.1083333333333333 0  0.1569565217391304 0.1083333333333333 0  0.008260869565217391 0.1166666666666667 0  0 0.1166666666666667 0  0.01652173913043478 0.1166666666666667 0  0.02478260869565217 0.1166666666666667 0  0.03304347826086956 0.1166666666666667 0  0.04130434782608695 0.1166666666666667 0  0.04956521739130434 0.1166666666666667 0  0.05782608695652174 0.1166666666666667 0  0.06608695652173913 0.1166666666666667 0  0.07434782608695652 0.1166666666666667 0  0.08260869565217391 0.1166666666666667 0  0.0908695652173913 0.1166666666666667 0  0.09913043478260869 0.1166666666666667 0  0.1073913043478261 0.1166666666666667 0  0.1156521739130435 0.1166666666666667 0  0.1239130434782609 0.1166666666666667 0  0.1321739130434783 0.1166666666666667 0  0.1404347826086956 0.1166666666666667 0  0.148695652173913 0.1166666666666667 0  0.1569565217391304 0.1166666666666667 0  0.1652173913043478 0.1166666666666667 0  0.008260869565217391 0.125 0  0 0.125 0  0.01652173913043478 0.125 0  0.02478260869565217 0.125 0  0.03304347826086956 0.125 0  0.04130434782608695 0.125 0  0.04956521739130434 0.125 0  0.05782608695652174 0.125 0  0.06608695652173913 0.125 0  0.07434782608695652 0.125 0  0.08260869565217391 0.125 0  0.0908695652173913 0.125 0  0.09913043478260869 0.125 0  0.1073913043478261 0.125 0  0.1156521739130435 0.125 0  0.1239130434782609 0.125 0  0.1321739130434783 0.125 0  0.1404347826086956 0.125 0  0.148695652173913 0.125 0  0.1569565217391304 0.125 0  0.1652173913043478 0.125 0  0.1734782608695652 0.125 0  0.008260869565217391 0.1333333333333333 0  0 0.1333333333333333 0  0.01652173913043478 0.1333333333333333 0  0.02478260869565217 0.1333333333333333 0  0.03304347826086956 0.1333333333333333 0  0.04130434782608695 0.1333333333333333 0  0.04956521739130434 0.1333333333333333 0  0.05782608695652174 0.1333333333333333 0  0.06608695652173913 0.1333333333333333 0  0.07434782608695652 0.1333333333333333 0  0.08260869565217391 0.1333333333333333 0  0.0908695652173913 0.1333333333333333 0  0.09913043478260869 0.1333333333333333 0  0.1073913043478261 0.1333333333333333 0  0.1156521739130435 0.1333333333333333 0  0.1239130434782609 0.1333333333333333 0  0.1321739130434783 0.1333333333333333 0  0.1404347826086956 0.1333333333333333 0  0.148695652173913 0.1333333333333333 0  0.1569565217391304 0.1333333333333333 0  0.1652173913043478 0.1333333333333333 0  0.1734782608695652 0.1333333333333333 0  0.1817391304347826 0.1333333333333333 0  0.008260869565217391 0.1416666666666667 0  0 0.1416666666666667 0  0.01652173913043478 0.1416666666666667 0  0.02478260869565217 0.1416666666666667 0  0.03304347826086956 0.1416666666666667 0  0.04130434782608695 0.1416666666666667 0  0.04956521739130434 0.1416666666666667 0  0.05782608695652174 0.1416666666666667 0  0.06608695652173913 0.1416666666666667 0  0.07434782608695652 0.1416666666666667 0  0.08260869565217391 0.1416666666666667 0  0.0908695652173913 0.1416666666666667 0  0.09913043478260869 0.1416666666666667 0  0.1073913043478261 0.1416666666666667 0  0.1156521739130435 0.1416666666666667 0  0.1239130434782609 0.1416666666666667 0  0.1321739130434783 0.1416666666666667 0  0.1404347826086956 0.1416666666666667 0  0.148695652173913 0.1416666666666667 0  0.1569565217391304 0.1416666666666667 0  0.1652173913043478 0.1416666666666667 0  0.1734782608695652 0.1416666666666667 0  0.1817391304347826 0.1416666666666667 0  0.19 0.1416666666666667 0  0.008260869565217391 0.15 0  0 0.15 0  0.01652173913043478 0.15 0  0.02478260869565217 0.15 0  0.03304347826086956 0.15 0  0.04130434782608695 0.15 0  0.04956521739130434 0.15 0  0.05782608695652174 0.15 0  0.06608695652173913 0.15 0  0.07434782608695652 0.15 0  0.08260869565217391 0.15 0  0.0908695652173913 0.15 0  0.09913043478260869 0.15 0  0.1073913043478261 0.15 0  0.1156521739130435 0.15 0  0.1239130434782609 0.15 0  0.1321739130434783 0.15 0  0.1404347826086956 0.15 0  0.148695652173913 0.15 0  0.1569565217391304 0.15 0  0.1652173913043478 0.15 0  0.1734782608695652 0.15 0  0.1817391304347826 0.15 0  0.19 0.15 0  0.1982608695652174 0.15 0  0.008260869565217391 0.1583333333333333 0  0 0.1583333333333333 0  0.01652173913043478 0.1583333333333333 0  0.02478260869565217 0.1583333333333333 0  0.03304347826086956 0.1583333333333333 0  0.04130434782608695 0.1583333333333333 0  0.04956521739130434 0.1583333333333333 0  0.05782608695652174 0.1583333333333333 0  0.06608695652173913 0.1583333333333333 0  0.07434782608695652 0.1583333333333333 0  0.08260869565217391 0.1583333333333333 0  0.0908695652173913 0.1583333333333333 0  0.09913043478260869 0.1583333333333333 0  0.1073913043478261 0.1583333333333333 0  0.1156521739130435 0.1583333333333333 0  0.1239130434782609 0.1583333333333333 0  0.1321739130434783 0.1583333333333333 0  0.1404347826086956 0.1583333333333333 0  0.148695652173913 0.1583333333333333 0  0.1569565217391304 0.1583333333333333 0  0.1652173913043478 0.1583333333333333 0  0.1734782608695652 0.1583333333333333 0  0.1817391304347826 0.1583333333333333 0  0.19 0.1583333333333333 0  0.1982608695652174 0.1583333333333333 0  0.2065217391304348 0.15 0  0.2065217391304348 0.1583333333333333 0  0.2147826086956522 0.1583333333333333 0  0.008260869565217391 0.1666666666666667 0  0 0.1666666666666667 0  0.01652173913043478 0.1666666666666667 0  0.02478260869565217 0.1666666666666667 0  0.03304347826086956 0.1666666666666667 0  0.04130434782608695 0.1666666666666667 0  0.04956521739130434 0.1666666666666667 0  0.05782608695652174 0.1666666666666667 0  0.06608695652173913 0.1666666666666667 0  0.07434782608695652 0.1666666666666667 0  0.08260869565217391 0.1666666666666667 0  0.0908695652173913 0.1666666666666667 0  0.09913043478260869 0.1666666666666667 0  0.1073913043478261 0.1666666666666667 0  0.1156521739130435 0.1666666666666667 0  0.1239130434782609 0.1666666666666667 0  0.132173913043
[...]
<PointData  Vectors="Displacement"> 
<DataArray  type="Float64"  Name="Displacement"  NumberOfComponents="3" format="ascii">0.0000000000000000e+00 0.0000000000000000e+00 0.0000000000000000e+00  5.6406555739727309e-07 1.1446265191146098e-07 0.0000000000000000e+00  2.1618420164613594e-07 1.0844670162410230e-07 0.0000000000000000e+00  0.0000000000000000e+00 0.0000000000000000e+00 0.0000000000000000e+00  4.2325033226277500e-07 7.5613241231846236e-07 0.0000000000000000e+00  -1.1905482507048876e-07 1.5826898499882450e-07 0.0000000000000000e+00  0.0000000000000000e+00 0.0000000000000000e+00 0.0000000000000000e+00  -2.7864074532729376e-07 8.2700734233027364e-07 0.0000000000000000e+00  6.2984710418098656e-07 1.8752924344549036e-06 0.0000000000000000e+00  -4.5824608766982392e-07 1.9402618293957230e-06 0.0000000000000000e+00  8.3865809454768000e-07 3.4301582492615018e-06 0.0000000000000000e+00  -6.4256566270255068e-07 3.4729433726579684e-06 0.0000000000000000e+00  1.0414025436418112e-06 5.4155584042481287e-06 0.0000000000000000e+00  -8.3433515843238126e-07 5.4438384298791726e-06 0.0000000000000000e+00  1.2205327302295300e-06 7.8348695124482775e-06 0.0000000000000000e+00  -1.0551495809338432e-06 7.8725972914220785e-06 0.0000000000000000e+00  -1.3193529248012302e-06 1.0725695096028829e-05 0.0000000000000000e+00  -4.4102795818703904e-07 2.6443322836867014e-07 0.0000000000000000e+00  0.0000000000000000e+00 0.0000000000000000e+00 0.0000000000000000e+00  -9.5216983863264682e-07 9.9306719970227988e-07 0.0000000000000000e+00  -1.5006912183414089e-06 2.1176792236174389e-06 0.0000000000000000e+00  -2.0603448634535131e-06 3.6249774595458802e-06 0.0000000000000000e+00  -2.6300762219804407e-06 5.5772933633578872e-06 0.0000000000000000e+00  -3.2352945789006808e-06 8.0287794778870215e-06 0.0000000000000000e+00  -3.8839890310343710e-06 1.0908648567844583e-05 0.0000000000000000e+00  -4.5840431393931634e-06 1.4166881885252910e-05 0.0000000000000000e+00  -7.5337891081610270e-07 4.3127024141523625e-07 0.0000000000000000e+00  0.0000000000000000e+00 0.0000000000000000e+00 0.0000000000000000e+00  -1.5952289451915987e-06 1.2568484085704390e-06 0.0000000000000000e+00  -2.4859924637922061e-06 2.4045383656825296e-06 0.0000000000000000e+00  -3.3919617162151738e-06 3.8771803517611094e-06 0.0000000000000000e+00  -4.3372956011616279e-06 5.7993990290697986e-06 0.0000000000000000e+00  -5.3361873936929188e-06 8.2887166010843098e-06 0.0000000000000000e+00  -6.3451992989814228e-06 1.1198606853579104e-05 0.0000000000000000e+00  -7.3643358727978005e-06 1.4482591615450698e-05 0.0000000000000000e+00  -8.4140895416227544e-06 1.7972564656325132e-05 0.0000000000000000e+00  -1.0828925411619000e-06 6.6819413652771447e-07 0.0000000000000000e+00  0.0000000000000000e+00 0.0000000000000000e+00 0.0000000000000000e+00  -2.2221037971262181e-06 1.6124892378708562e-06 0.0000000000000000e+00  -3.3834068229562219e-06 2.7954694954454467e-06 0.0000000000000000e+00  -4.5876778356984306e-06 4.2033885223647433e-06 0.0000000000000000e+00  -5.8642632420073346e-06 6.1439599169786210e-06 0.0000000000000000e+00  -7.4290111530039942e-06 8.6458362610209679e-06 0.0000000000000000e+00  -8.7615383792531319e-06 1.1540539903138337e-05 0.0000000000000000e+00  -9.9555553606751571e-06 1.4780554810487439e-05 0.0000000000000000e+00  -1.0840366176594280e-05 1.8204645489685161e-05 0.0000000000000000e+00  -1.2966176694855696e-05 2.2531364978898563e-05 0.0000000000000000e+00  -1.5189595071895117e-06 1.0010835565056720e-06 0.0000000000000000e+00  0.0000000000000000e+00 0.0000000000000000e+00 0.0000000000000000e+00  -2.8963611069877874e-06 1.9871819153197845e-06 0.0000000000000000e+00  -4.0602886104085857e-06 3.1742994439198757e-06 0.0000000000000000e+00  -5.1824557000091375e-06 4.5694301944380607e-06 0.0000000000000000e+00  -7.1096551068276480e-06 6.5187914139171235e-06 0.0000000000000000e+00  -9.5672918646202136e-06 9.1351473103760486e-06 0.0000000000000000e+00  -1.1159613492763438e-05 1.1955882680195596e-05 0.0000000000000000e+00  -1.3171733986585715e-05 1.5175450777515744e-05 0.0000000000000000e+00  -1.3252482545258618e-05 1.9042222555774599e-05 0.0000000000000000e+00  -1.3499390226195387e-05 2.4353528483895120e-05 0.0000000000000000e+00  -1.4901918657526759e-05 2.7208582546005674e-05 0.0000000000000000e+00  -1.4398649760244825e-05 2.9212242340870184e-05 0.0000000000000000e+00  -1.6819079036349015e-05 3.2134315679454285e-05 0.0000000000000000e+00  -1.5349526772833637e-05 3.4345532026299579e-05 0.0000000000000000e+00  -1.5763088697539654e-05 3.9127803396765570e-05 0.0000000000000000e+00  -1.5976665956686800e-05 4.0255154064705031e-05 0.0000000000000000e+00  -1.5973844553169371e-05 4.5586350485065402e-05 0.0000000000000000e+00  -1.6294873926545585e-05 4.6871767349281080e-05 0.0000000000000000e+00  -1.6425613587675812e-05 5.2138162177457778e-05 0.0000000000000000e+00  -1.6704430958987753e-05 5.3630854639499436e-05 0.0000000000000000e+00  -1.6587244720294016e-05 5.9606548296354477e-05 0.0000000000000000e+00  -1.7114342470432942e-05 6.0929124675584349e-05 0.0000000000000000e+00  -1.7390587074694886e-05 6.8822453384676522e-05 0.0000000000000000e+00  -2.5271907903887750e-06 1.5065867915654671e-06 0.0000000000000000e+00  0.0000000000000000e+00 0.0000000000000000e+00 0.0000000000000000e+00  -3.8882646652651253e-06 2.4459837384716856e-06 0.0000000000000000e+00  -5.0246353903450863e-06 3.6121776996646782e-06 0.0000000000000000e+00  -5.6200999631260908e-06 5.8090399562493964e-06 0.0000000000000000e+00  -6.8670910730594143e-06 8.1768457225743839e-06 0.0000000000000000e+00  -8.3889385276917370e-06 1.0907925991128638e-05 0.0000000000000000e+00  -9.8644654304997684e-06 1.3754865528762183e-05 0.0000000000000000e+00  -1.1229671067755789e-05 1.7110625911495448e-05 0.0000000000000000e+00  -1.2343434111696133e-05 2.0807401893442942e-05 0.0000000000000000e+00  -1.3257948701588156e-05 2.5672337115678245e-05 0.0000000000000000e+00  -1.4075430702330019e-05 3.0751942490117801e-05 0.0000000000000000e+00  -1.4958623395216743e-05 3.6040164356706278e-05 0.0000000000000000e+00  -1.5800950258874597e-05 4.1837350418838355e-05 0.0000000000000000e+00  -1.6510645655774372e-05 4.8211753441880795e-05 0.0000000000000000e+00  -1.7120245848747900e-05 5.4984791616888571e-05 0.0000000000000000e+00  -1.7706690400361643e-05 6.2213688844381908e-05 0.0000000000000000e+00  -1.8226118154560393e-05 6.9936770657957998e-05 0.0000000000000000e+00  -1.8652239095220921e-05 7.8132478830499167e-05 0.0000000000000000e+00  -1.3085729318581420e-06 1.9146571744542472e-06 0.0000000000000000e+00  0.0000000000000000e+00 0.0000000000000000e+00 0.0000000000000000e+00  -2.6056409098301382e-06 3.1776368964622567e-06 0.0000000000000000e+00  -3.8716184566653693e-06 4.6963093326757728e-06 0.0000000000000000e+00  -5.1089671382111871e-06 6.8150745080664282e-06 0.0000000000000000e+00  -6.3437858163625110e-06 9.4163091493373275e-06 0.0000000000000000e+00  -7.6670845944125970e-06 1.2282439663051223e-05 0.0000000000000000e+00  -9.0087812032128015e-06 1.5330055205008632e-05 0.0000000000000000e+00  -1.0340715573394219e-05 1.8763825589874354e-05 0.0000000000000000e+00  -1.1607314790781308e-05 2.2613356683049306e-05 0.0000000000000000e+00  -1.2797647908734760e-05 2.7216502002974253e-05 0.0000000000000000e+00  -1.3837574025616665e-05 3.2229503465219878e-05 0.0000000000000000e+00  -1.4829313367783643e-05 3.7581449859756507e-05 0.0000000000000000e+00  -1.5799430623993175e-05 4.3360989268831056e-05 0.0000000000000000e+00  -1.6706015276993486e-05 4.9619417259724941e-05 0.0000000000000000e+00  -1.7531055643085526e-05 5.6310610039164340e-05 0.0000000000000000e+00  -1.8296940710728253e-05 6.3450305591110926e-05 0.0000000000000000e+00  -1.8999154394577495e-05 7.1037342901533385e-05 0.0000000000000000e+00  -1.9621470172383222e-05 7.9057797171027295e-05 0.0000000000000000e+00  -2.0155516929640202e-05 8.7478668864754915e-05 0.0000000000000000e+00  -9.9303192035077161e-07 2.0638403890657712e-06 0.0000000000000000e+00  0.0000000000000000e+00 0.0000000000000000e+00 0.0000000000000000e+00  -2.0745435037577982e-06 3.7857998547983374e-06 0.0000000000000000e+00  -3.2962324065657574e-06 5.6371570163275730e-06 0.0000000000000000e+00  -4.5867005703218274e-06 7.8934999165003864e-06 0.0000000000000000e+00  -5.8858198767208447e-06 1.0554035948060673e-05 0.0000000000000000e+00  -7.1872056057736234e-06 1.3520435559965558e-05 0.0000000000000000e+00  -8.5048948965923545e-06 1.6730492400072983e-05 0.0000000000000000e+00  -9.8421294292071725e-06 2.0285330024205663e-05 0.0000000000000000e+00  -1.1171929303833742e-05 2.4248515179155218e-05 0.0000000000000000e+00  -1.2466160761856666e-05 2.8767881879099125e-05 0.0000000000000000e+00  -1.3668338904947019e-05 3.3715006990783947e-05 0.0000000000000000e+00  -1.4805802731010174e-05 3.9055899727520959e-05 0.0000000000000000e+00  -1.5902698833740595e-05 4.4811783313212411e-05 0.0000000000000000e+00  -1.6951037643652824e-05 5.0999764031320541e-05 0.0000000000000000e+00  -1.7937590012399026e-05 5.7609125651767301e-05 0.0000000000000000e+00  -1.8862474015275047e-05 6.4646925193386981e-05 0.0000000000000000e+00  -1.9720659823138863e-05 7.2105305232165377e-05 0.0000000000000000e+00  -2.0503473792680775e-05 7.9967934906431340e-05 0.0000000000000000e+00  -2.1203033690218377e-05 8.8209141974249857e-05 0.0000000000000000e+00  -2.1815921148177345e-05 9.6796112952810231e-05 0.0000000000000000e+00  -8.9308995726828738e-07 2.1942407969190840e-06 0.0000000000000000e+00  0.0000000000000000e+00 0.0000000000000000e+00 0.0000000000000000e+00  -1.8866711614995576e-06 4.2507867691585872e-06 0.0000000000000000e+00  -3.0285704161926140e-06 6.4112469293804550e-06 0.0000000000000000e+00  -4.2777711610817732e-06 8.8509163350393768e-06 0.0000000000000000e+00  -5.5738032310556580e-06 1.1613193491706089e-05 0.0000000000000000e+00  -6.8875110834253598e-06 1.4672935804742283e-05 0.0000000000000000e+00  -8.2198622053149403e-06 1.8012147566173378e-05 0.0000000000000000e+00  -9.5773915521369354e-06 2.1682423959309638e-05 0.0000000000000000e+00  -1.0946004715896027e-05 2.5735543634475879e-05 0.0000000000000000e+00  -1.2300684410621188e-05 3.0242545933410352e-05 0.0000000000000000e+00  -1.3605001355266457e-05 3.5159973634169212e-05 0.0000000000000000e+00  -1.4859566210768151e-05 4.0476171941250480e-05 0.0000000000000000e+00  -1.6070993110963349e-05 4.6197208870822397e-05 0.0000000000000000e+00  -1.7236830467826843e-05 5.2326472705123275e-05 0.0000000000000000e+00  -1.8349987149355273e-05 5.8859547492070126e-05 0.0000000000000000e+00  -1.9405419733578086e-05 6.5797937988818595e-05 0.0000000000000000e+00  -2.0396095800211381e-05 7.3133298820873786e-05 0.0000000000000000e+00  -2.1314637997025266e-05 8.0849902883379401e-05 0.0000000000000000e+00  -2.2154484993069836e-05 8.8925598555667358e-05 0.0000000000000000e+00  -2.2911490364849882e-05 9.7333332477070097e-05 0.0000000000000000e+00  -2.3584452938400758e-05 1.0604391049322789e-04 0.0000000000000000e+00  -8.6872039073495164e-07 2.3294308737849071e-06 0.0000000000000000e+00  0.0000000000000000e+00 0.0000000000000000e+00 0.0000000000000000e+00  -1.8365762615687827e-06 4.6359354044760173e-06 0.0000000000000000e+00  -2.9339926073298793e-06 7.0493975619263819e-06 0.0000000000000000e+00  -4.1414743709308503e-06 9.6783751881348389e-06 0.0000000000000000e+00  -5.4192072761196081e-06 1.2571825590448210e-05 0.0000000000000000e+00  -6.7386298742340224e-06 1.5740678481224235e-05 0.0000000000000000e+00  -8.0900061425539393e-06 1.9193735334429426e-05 0.0000000000000000e+00  -9.4710158250046144e-06 2.2966228898999761e-05 0.0000000000000000e+00  -1.0870683490919530e-05 2.7095702430132588e-05 0.0000000000000000e+00  -1.2269611585582581e-05 3.1620913727651015e-05 0.0000000000000000e+00  -1.3643524452832338e-05 3.6532146820009196e-05 0.0000000000000000e+00  -1.4984219703965928e-05 4.1828833760137455e-05 0.0000000000000000e+00  -1.6288434649983672e-05 4.7514490804741934e-05 0.0000000000000000e+00  -1.7551484237331458e-05 5.3589373364290715e-05 0.0000000000000000e+00  -1.8767323256873568e-05 6.0050162198879202e-05 0.0000000000000000e+00  -1.9929789876112185e-05 6.6894643194288276e-05 0.0000000000000000e+00  -2.1031469986700937e-05 7.4114395736958247e-05 0.0000000000000000e+00  -2.2065184862337982e-05 8.1695159995146671e-05 0.0000000000000000e+00  -2.3024820245713404e-05 8.9617585829031057e-05 0.0000000000000000e+00  -2.3906055837558489e-05 9.7858482612377156e-05 0.0000000000000000e+00  -2.4706714844935358e-05 1.0639244192121805e-04 0.0000000000000000e+00  -2.5426504373692267e-05 1.1519306529678321e-04 0.0000000000000000e+00  -8.7810566133222835e-07 2.4658271897593248e-06 0.0000000000000000e+00  0.0000000000000000e+00 0.0000000000000000e+00 0.0000000000000000e+00  -1.8506259975417276e-06 4.9716217359275423e-06 0.0000000000000000e+00  -2.9350095214981201e-06 7.5922638830039536e-06 0.0000000000000000e+00  -4.1219373302598299e-06 1.0397643014516774e-05 0.0000000000000000e+00  -5.3876307914439743e-06 1.3431534879050274e-05 0.0000000000000000e+00  -6.7103345652615179e-06 1.6718563557136336e-05 0.0000000000000000e+00  -8.0769502473869623e-06 2.0279890193989035e-05 0.0000000000000000e+00  -9.4790759460841165e-06 2.4145098572161213e-05 0.0000000000000000e+00  -1.0905231766371682e-05 2.8343255089861512e-05 0.0000000000000000e+00  -1.2339595924935420e-05 3.2899601762369506e-05 0.0000000000000000e+00  -1.3764414330769312e-05 3.7817663771706898e-05 0.0000000000000000e+00  -1.5168918262775432e-05 4.3102030838125309e-05 0.0000000000000000e+00  -1.6545421664383956e-05 4.8756492107730446e-05 0.0000000000000000e+00  -1.7886836010389945e-05 5.4781359298880419e-05 0.0000000000000000e+00  -1.9186258439042460e-05 6.1173969532770831e-05 0.0000000000000000e+00  -2.0436833550560456e-05 6.7930407014614810e-05 0.0000000000000000e+00  -2.1631200768778545e-05 7.5042343892633422e-05 0.0000000000000000e+00  -2.2762372337855253e-05 8.2496917550238809e-05 0.0000000000000000e+00  -2.3824396948287500e-05 9.0277140271964484e-05 0.0000000000000000e+00  -2.4812830077212216e-05 9.8362779072540141e-05 0.0000000000000000e+00  -2.5724942472678632e-05 1.0673143200061907e-04 0.0000000000000000e+00  -2.6559615116791071e-05 1.1535941908491729e-04 0.0000000000000000e+00  -2.7317017354124237e-05 1.2422254799758278e-04 0.0000000000000000e+00  -9.0511906613415418e-07 2.5989174384786958e-06 0.0000000000000000e+00  0.0000000000000000e+00 0.0000000000000000e+00 0.0000000000000000e+00  -1.8990186234340502e-06 5.2723666377458241e-06 0.0000000000000000e+00  -2.9912906021549461e-06 8.0674007830932406e-06 0.0000000000000000e+00  -4.1770836770492746e-06 1.1031904601459532e-05 0.0000000000000000e+00  -5.4421467848891697e-06 1.4202952729237695e-05 0.0000000000000000e+00  -6.7709381612555529e-06 1.7608489094377769e-05 0.0000000000000000e+00  -8.1508176123063870e-06 2.1273652777828680e-05 0.0000000000000000e+00  -9.5711009033154903e-06 2.5225140511716279e-05 0.0000000000000000e+00  -1.1019893083196215e-05 2.9487347746711585e-05 0.0000000000000000e+00  -1.2483365861861757e-05 3.4079928236653777e-05 0.0000000000000000e+00  -1.3947128145870321e-05 3.9011587945078023e-05 0.0000000000000000e+00  -1.5399951494158416e-05 4.4289241138626701e-05 0.0000000000000000e+00  -1.6832435836598363e-05 4.9917348571599024e-05 0.0000000000000000e+00  -1.8236103758398936e-05 5.5896944689975743e-05 0.0000000000000000e+00  -1.9603141508967364e-05 6.2226069679521169e-05 0.0000000000000000e+00  -2.0926126062969389e-05 6.8900438297154600e-05 0.0000000000000000e+00  -2.2197726191900875e-05 7.5912160419950613e-05 0.0000000000000000e+00  -2.3411140146467948e-05 8.3249656318037273e-05 0.0000000000000000e+00  -2.4560540697169240e-05 9.0897925126868023e-05 0.0000000000000000e+00  -2.5641409921908864e-05 9.8839143649064452e-05 0.0000000000000000e+00  -2.6650692898616458e-05 1.0705340778633567e-04 0.0000000000000000e+00  -2.7586762312445366e-05 1.1551939442458768e-04 0.0000000000000000e+00  -2.8449252910393896e-05 1.2421489698389402e-04 0.0000000000000000e+00  -2.9238853469355454e-05 1.3311699026032837e-04 0.0000000000000000e+00  -9.4216266615667510e-07 2.7261614364082522e-06 0.0000000000000000e+00  0.0000000000000000e+00 0.0000000000000000e+00 0.0000000000000000e+00  -1.9673698556725010e-06 5.5458893024692826e-06 0.0000000000000000e+00  -3.0806768209516807e-06 8.4916547503156162e-06 0.0000000000000000e+00  -4.2791224060941820e-06 1.1598564288414794e-05 0.0000000000000000e+00  -5.5536968994014112e-06 1.4897819256013261e-05 0.0000000000000000e+00  -6.8932147677519681e-06 1.8416507857484299e-05 0.0000000000000000e+00  -8.2866864666131049e-06 2.2179756389363042e-05 0.0000000000000000e+00  -9.7233698304232878e-06 2.6211912777456853e-05 0.0000000000000000e+00  -1.1191735181703958e-05 3.0534502922749455e-05 0.0000000000000000e+00  -1.2679342511749543e-05 3.5164681921645878e-05 0.0000000000000000e+00  -1.4173684096359855e-05 4.0113128002954516e-05 0.0000000000000000e+00  -1.5663785453385081e-05 4.5387783527526502e-05 0.0000000000000000e+00  -1.7139785349533716e-05 5.0993658294123962e-05 0.0000000000000000e+00  -1.8592645385358817e-05 5.6932492174399234e-05 0.0000000000000000e+00  -2.0014053233158931e-05 6.3203020783482572e-05 0.0000000000000000e+00  -2.1396266297641761e-05 6.9801257700660431e-05 0.0000000000000000e+00  -2.2731982498219812e-05 7.6720024966568239e-05 0.0000000000000000e+00  -2.4014564337777282e-05 8.3948975523060718e-05 0.0000000000000000e+00  -2.5238315334406584e-05 9.1474824500973150e-05 0.0000000000000000e+00  -2.6398711316788217e-05 9.9281783105734759e-05 0.0000000000000000e+00  -2.7492522991648249e-05 1.0735209205960598e-04 0.0000000000000000e+00  -2.8517821135908646e-05 1.1566652873660684e-04 0.0000000000000000e+00  -2.9473901194794141e-05 1.2420483192491315e-04 0.0000000000000000e+00  -3.0361186095096513e-05 1.3294595680291880e-04 0.0000000000000000e+00  -2.9957245751531959e-05 1.4220213167712918e-04 0.0000000000000000e+00  -3.1181196979438164e-05 1.4186830806567279e-04 0.0000000000000000e+00  -3.1936594761141433e-05 1.5095006962956837e-04 0.0000000000000000e+00  -9.8503457056605447e-07 2.8464421851255892e-06 0.0000000000000000e+00  0.0000000000000000e+00 0.0000000000000000e+00 0.0000000000000000e+00  -2.0475350283194681e-06 5.7966959418461922e-06 0.0000000000000000e+00  -3.1899087036452964e-06 8.8752679449398349e-06 0.0000000000000000e+00  -4.4099341386726440e-06 1.2109569296286831e-05 0.0000000000000000e+00  -5.7014206905570136e-06 1.5526123340477880e-05 0.0000000000000000e+00  -7.0560029803247559e-06 1.9149765583194695e-05 0.0000000000000000e+00  -8.4644182570399277e-06 2.3004013715408043e-05 0.0000000000000000e+00  -9.9168018989217865e-06 2.7110996081205656e-05 0.0000000000000000e+00  -1.1402518536807764e-05 3.1490149578266723e-05 0.0000000000000000e+00  -1.2910352248018838e-05 3.6157216799011536e-05 0.0000000000000000e+00  -1.4429094096852975e-05 4.1123484996951433e-05 0.0000000000000000e+00  -1.5948311172063472e-05 4.6397307926338687e-05 0.0000000000000000e+00  -1.7458274699091041e-05 5.1984063987535616e-05 0.0000000000000000e+00  -1.8949913009807366e-05 5.7886052497751136e-05 0.0000000000000000e+00  -2.0414815125179066e-05 6.4102645630305204e-05 0.0000000000000000e+00  -2.1845188711357184e-05 7.0630428629957001e-05 0.0000000000000000e+00  -2.3233839205015100e-05 7.7463069272357599e-05 0.0000000000000000e+00  -2.4574308940790643e-05 8.4591410967527577e-05 0.0000000000000000e+00  -2.5861055410849850e-05 9.2003693032919321e-05 0.0000000000000000e+00  -2.7089611052854089e-05 9.9685892461729103e-05 0.0000000000000000e+00  -2.8256681507038775e-05 1.0762213199415413e-04 0.0000000000000000e+00  -2.9360172524885522e-05 1.1579508552580544e-04 0.0000000000000000e+00  -3.0399165674356288e-05 1.2418634064979337e-04 0.0000000000000000e+00  -3.1373878654957114e-05 1.3277668688327211e-04 0.0000000000000000e+00  -3.2285653597239278e-05 1.4154640000400726e-04 0.0000000000000000e+00  -3.3136975121885198e-05 1.5047557582531472e-04 0.0000000000000000e+00  -3.3931494863255684