<?xml version="1.0"?>
<VTKFile type="UnstructuredGrid"  version="0.1"  >
<UnstructuredGrid>
<Piece  NumberOfPoints="2534" NumberOfCells="4827">
<Points>
<DataArray  type="Float64"  NumberOfComponents="3"  format="ascii">2.81695652173913 0.225 0  2.825217391304347 0.225 0  2.825217391304347 0.2333333333333333 0  2.81695652173913 0.2333333333333333 0  2.833478260869565 0.2333333333333333 0  2.825217391304347 0.2416666666666667 0  2.81695652173913 0.2416666666666667 0  2.833478260869565 0.2416666666666667 0  2.841739130434783 0.2416666666666667 0  2.825217391304347 0.25 0  2.81695652173913 0.25 0  2.833478260869565 0.25 0  2.841739130434783 0.25 0  2.85 0.25 0  2.825217391304347 0.2583333333333334 0  2.81695652173913 0.2583333333333334 0  2.833478260869565 0.2583333333333334 0  2.841739130434783 0.2583333333333334 0  2.85 0.2583333333333334 0  2.858260869565217 0.2583333333333334 0  2.825217391304347 0.2666666666666667 0  2.81695652173913 0.2666666666666667 0  2.833478260869565 0.2666666666666667 0  2.841739130434783 0.2666666666666667 0  2.85 0.2666666666666667 0  2.858260869565217 0.2666666666666667 0  2.866521739130435 0.2666666666666667 0  2.825217391304347 0.275 0  2.81695652173913 0.275 0  2.833478260869565 0.275 0  2.841739130434783 0.275 0  2.85 0.275 0  2.858260869565217 0.275 0  2.866521739130435 0.275 0  2.874782608695652 0.275 0  2.197391304347826 0.275 0  2.205652173913043 0.275 0  2.205652173913043 0.2833333333333333 0  2.197391304347826 0.2833333333333333 0  2.213913043478261 0.275 0  2.213913043478261 0.2833333333333333 0  2.222173913043478 0.275 0  2.222173913043478 0.2833333333333333 0  2.230434782608695 0.275 0  2.230434782608695 0.2833333333333333 0  2.238695652173913 0.275 0  2.238695652173913 0.2833333333333333 0  2.24695652173913 0.275 0  2.24695652173913 0.2833333333333333 0  2.255217391304348 0.275 0  2.255217391304348 0.2833333333333333 0  2.263478260869565 0.275 0  2.263478260869565 0.2833333333333333 0  2.271739130434783 0.275 0  2.271739130434783 0.2833333333333333 0  2.28 0.275 0  2.28 0.2833333333333333 0  2.288260869565217 0.275 0  2.288260869565217 0.2833333333333333 0  2.296521739130434 0.275 0  2.296521739130434 0.2833333333333333 0  2.304782608695652 0.275 0  2.304782608695652 0.2833333333333333 0  2.31304347826087 0.275 0  2.31304347826087 0.2833333333333333 0  2.321304347826087 0.275 0  2.321304347826087 0.2833333333333333 0  2.329565217391304 0.275 0  2.329565217391304 0.2833333333333333 0  2.337826086956521 0.275 0  2.337826086956521 0.2833333333333333 0  2.346086956521739 0.275 0  2.346086956521739 0.2833333333333333 0  2.354347826086956 0.275 0  2.354347826086956 0.2833333333333333 0  2.362608695652174 0.275 0  2.362608695652174 0.2833333333333333 0  2.370869565217391 0.275 0  2.370869565217391 0.2833333333333333 0  2.379130434782609 0.275 0  2.379130434782609 0.2833333333333333 0  2.387391304347826 0.275 0  2.387391304347826 0.2833333333333333 0  2.395652173913044 0.275 0  2.395652173913044 0.2833333333333333 0  2.403913043478261 0.275 0  2.403913043478261 0.2833333333333333 0  2.412173913043478 0.275 0  2.412173913043478 0.2833333333333333 0  2.420434782608695 0.275 0  2.420434782608695 0.2833333333333333 0  2.428695652173913 0.275 0  2.428695652173913 0.2833333333333333 0  2.43695652173913 0.275 0  2.43695652173913 0.2833333333333333 0  2.445217391304348 0.275 0  2.445217391304348 0.2833333333333333 0  2.453478260869565 0.275 0  2.453478260869565 0.2833333333333333 0  2.461739130434782 0.275 0  2.461739130434782 0.2833333333333333 0  2.47 0.275 0  2.47 0.2833333333333333 0  2.478260869565217 0.275 0  2.478260869565217 0.2833333333333333 0  2.486521739130435 0.275 0  2.486521739130435 0.2833333333333333 0  2.494782608695652 0.275 0  2.494782608695652 0.2833333333333333 0  2.503043478260869 0.275 0  2.503043478260869 0.2833333333333333 0  2.511304347826087 0.275 0  2.511304347826087 0.2833333333333333 0  2.519565217391305 0.275 0  2.519565217391305 0.2833333333333333 0  2.527826086956522 0.275 0  2.527826086956522 0.2833333333333333 0  2.536086956521739 0.275 0  2.536086956521739 0.2833333333333333 0  2.544347826086956 0.275 0  2.544347826086956 0.2833333333333333 0  2.552608695652174 0.275 0  2.552608695652174 0.2833333333333333 0  2.560869565217391 0.275 0  2.560869565217391 0.2833333333333333 0  2.569130434782608 0.275 0  2.569130434782608 0.2833333333333333 0  2.577391304347826 0.275 0  2.577391304347826 0.2833333333333333 0  2.585652173913043 0.275 0  2.585652173913043 0.2833333333333333 0  2.593913043478261 0.275 0  2.593913043478261 0.2833333333333333 0  2.602173913043478 0.275 0  2.602173913043478 0.2833333333333333 0  2.610434782608696 0.275 0  2.610434782608696 0.2833333333333333 0  2.618695652173913 0.275 0  2.618695652173913 0.2833333333333333 0  2.62695652173913 0.275 0  2.62695652173913 0.2833333333333333 0  2.635217391304348 0.275 0  2.635217391304348 0.2833333333333333 0  2.643478260869565 0.275 0  2.643478260869565 0.2833333333333333 0  2.651739130434783 0.275 0  2.651739130434783 0.2833333333333333 0  2.66 0.275 0  2.66 0.2833333333333333 0  2.668260869565217 0.275 0  2.668260869565217 0.2833333333333333 0  2.676521739130435 0.275 0  2.676521739130435 0.2833333333333333 0  2.684782608695652 0.275 0  2.684782608695652 0.2833333333333333 0  2.693043478260869 0.275 0  2.693043478260869 0.2833333333333333 0  2.701304347826087 0.275 0  2.701304347826087 0.2833333333333333 0  2.709565217391304 0.275 0  2.709565217391304 0.2833333333333333 0  2.717826086956522 0.275 0  2.717826086956522 0.2833333333333333 0  2.726086956521739 0.275 0  2.726086956521739 0.2833333333333333 0  2.734347826086956 0.275 0  2.734347826086956 0.2833333333333333 0  2.742608695652174 0.275 0  2.742608695652174 0.2833333333333333 0  2.750869565217391 0.275 0  2.750869565217391 0.2833333333333333 0  2.759130434782609 0.275 0  2.759130434782609 0.2833333333333333 0  2.767391304347826 0.275 0  2.767391304347826 0.2833333333333333 0  2.775652173913044 0.275 0  2.775652173913044 0.2833333333333333 0  2.783913043478261 0.275 0  2.783913043478261 0.2833333333333333 0  2.792173913043478 0.275 0  2.792173913043478 0.2833333333333333 0  2.800434782608696 0.275 0  2.800434782608696 0.2833333333333333 0  2.808695652173913 0.275 0  2.808695652173913 0.2833333333333333 0  2.81695652173913 0.2833333333333333 0  2.825217391304347 0.2833333333333333 0  2.833478260869565 0.2833333333333333 0  2.841739130434783 0.2833333333333333 0  2.85 0.2833333333333333 0  2.858260869565217 0.2833333333333333 0  2.866521739130435 0.2833333333333333 0  2.874782608695652 0.2833333333333333 0  2.88304347826087 0.2833333333333333 0  2.205652173913043 0.2916666666666667 0  2.213913043478261 0.2916666666666667 0  2.222173913043478 0.2916666666666667 0  2.230434782608695 0.2916666666666667 0  2.238695652173913 0.2916666666666667 0  2.24695652173913 0.2916666666666667 0  2.255217391304348 0.2916666666666667 0  2.263478260869565 0.2916666666666667 0  2.271739130434783 0.2916666666666667 0  2.28 0.2916666666666667 0  2.288260869565217 0.2916666666666667 0  2.296521739130434 0.2916666666666667 0  2.304782608695652 0.2916666666666667 0  2.31304347826087 0.2916666666666667 0  2.321304347826087 0.2916666666666667 0  2.329565217391304 0.2916666666666667 0  2.337826086956521 0.2916666666666667 0  2.346086956521739 0.2916666666666667 0  2.354347826086956 0.2916666666666667 0  2.362608695652174 0.2916666666666667 0  2.370869565217391 0.2916666666666667 0  2.379130434782609 0.2916666666666667 0  2.387391304347826 0.2916666666666667 0  2.395652173913044 0.2916666666666667 0  2.403913043478261 0.2916666666666667 0  2.412173913043478 0.2916666666666667 0  2.420434782608695 0.2916666666666667 0  2.428695652173913 0.2916666666666667 0  2.43695652173913 0.2916666666666667 0  2.445217391304348 0.2916666666666667 0  2.453478260869565 0.2916666666666667 0  2.461739130434782 0.2916666666666667 0  2.47 0.2916666666666667 0  2.478260869565217 0.2916666666666667 0  2.486521739130435 0.2916666666666667 0  2.494782608695652 0.2916666666666667 0  2.503043478260869 0.2916666666666667 0  2.511304347826087 0.2916666666666667 0  2.519565217391305 0.2916666666666667 0  2.527826086956522 0.2916666666666667 0  2.536086956521739 0.2916666666666667 0  2.544347826086956 0.2916666666666667 0  2.552608695652174 0.2916666666666667 0  2.560869565217391 0.2916666666666667 0  2.569130434782608 0.2916666666666667 0  2.577391304347826 0.2916666666666667 0  2.585652173913043 0.2916666666666667 0  2.593913043478261 0.2916666666666667 0  2.602173913043478 0.2916666666666667 0  2.610434782608696 0.2916666666666667 0  2.618695652173913 0.2916666666666667 0  2.62695652173913 0.2916666666666667 0  2.635217391304348 0.2916666666666667 0  2.643478260869565 0.2916666666666667 0  2.651739130434783 0.2916666666666667 0  2.66 0.2916666666666667 0  2.668260869565217 0.2916666666666667 0  2.676521739130435 0.2916666666666667 0  2.684782608695652 0.2916666666666667 0  2.693043478260869 0.2916666666666667 0  2.701304347826087 0.2916666666666667 0  2.709565217391304 0.2916666666666667 0  2.717826086956522 0.2916666666666667 0  2.726086956521739 0.2916666666666667 0  2.734347826086956 0.2916666666666667 0  2.742608695652174 0.2916666666666667 0  2.750869565217391 0.2916666666666667 0  2.759130434782609 0.2916666666666667 0  2.767391304347826 0.2916666666666667 0  2.775652173913044 0.2916666666666667 0  2.783913043478261 0.2916666666666667 0  2.792173913043478 0.2916666666666667 0  2.800434782608696 0.2916666666666667 0  2.808695652173913 0.2916666666666667 0  2.81695652173913 0.2916666666666667 0  2.825217391304347 0.2916666666666667 0  2.833478260869565 0.2916666666666667 0  2.841739130434783 0.2916666666666667 0  2.85 0.2916666666666667 0  2.858260869565217 0.2916666666666667 0  2.866521739130435 0.2916666666666667 0  2.874782608695652 0.2916666666666667 0  2.88304347826087 0.2916666666666667 0  2.891304347826087 0.2916666666666667 0  2.213913043478261 0.3 0  2.222173913043478 0.3 0  2.2
[...]
<CellData  Scalars="rho_bar"> 
<DataArray  type="Float64"  Name="rho_bar"  format="ascii">0.0000000000000000e+00   0.0000000000000000e+00   0.0000000000000000e+00   0.0000000000000000e+00   0.0000000000000000e+00   0.0000000000000000e+00   0.0000000000000000e+00   0.0000000000000000e+00   0.0000000000000000e+00   0.0000000000000000e+00   0.0000000000000000e+00   0.0000000000000000e+00   0.0000000000000000e+00   0.0000000000000000e+00   0.0000000000000000e+00   0.0000000000000000e+00   0.0000000000000000e+00   0.0000000000000000e+00   0.0000000000000000e+00   0.0000000000000000e+00   0.0000000000000000e+00   0.0000000000000000e+00   0.0000000000000000e+00   0.0000000000000000e+00   0.0000000000000000e+00   0.0000000000000000e+00   0.0000000000000000e+00   0.0000000000000000e+00   0.0000000000000000e+00   0.0000000000000000e+00   0.0000000000000000e+00   0.0000000000000000e+00   0.0000000000000000e+00   0.0000000000000000e+00   0.0000000000000000e+00   0.0000000000000000e+00   0.0000000000000000e+00   0.0000000000000000e+00   0.0000000000000000e+00   0.0000000000000000e+00   0.0000000000000000e+00   0.0000000000000000e+00   0.0000000000000000e+00   0.0000000000000000e+00   0.0000000000000000e+00   0.0000000000000000e+00   0.0000000000000000e+00   0.0000000000000000e+00   9.6120162281673938e-01   9.4971075481499012e-01   9.9998582515789014e-01   9.9998304152369599e-01   9.9999977266377260e-01   9.9999976288939807e-01   9.9999957337244005e-01   9.9999962690241651e-01   9.9992314925313230e-01   9.9994116922510745e-01   7.7330365783015920e-01   8.0971224698578681e-01   3.9953422954335467e-02   6.6336497446476836e-02   1.0797816626939571e-07   2.3591627676400331e-07   2.0150547896946588e-14   4.3178423799380055e-14   0.0000000000000000e+00   0.0000000000000000e+00   0.0000000000000000e+00   0.0000000000000000e+00   0.0000000000000000e+00   0.0000000000000000e+00   0.0000000000000000e+00   0.0000000000000000e+00   0.0000000000000000e+00   0.0000000000000000e+00   0.0000000000000000e+00   0.0000000000000000e+00   0.0000000000000000e+00   0.0000000000000000e+00   0.0000000000000000e+00   0.0000000000000000e+00   0.0000000000000000e+00   0.0000000000000000e+00   0.0000000000000000e+00   0.0000000000000000e+00   0.0000000000000000e+00   0.0000000000000000e+00   0.0000000000000000e+00   0.0000000000000000e+00   0.0000000000000000e+00   0.0000000000000000e+00   0.0000000000000000e+00   0.0000000000000000e+00   0.0000000000000000e+00   0.0000000000000000e+00   0.0000000000000000e+00   0.0000000000000000e+00   0.0000000000000000e+00   0.0000000000000000e+00   0.0000000000000000e+00   0.0000000000000000e+00   0.0000000000000000e+00   0.0000000000000000e+00   0.0000000000000000e+00   0.0000000000000000e+00   0.0000000000000000e+00   0.0000000000000000e+00   0.0000000000000000e+00   0.0000000000000000e+00   0.0000000000000000e+00   0.0000000000000000e+00   0.0000000000000000e+00   0.0000000000000000e+00   0.0000000000000000e+00   0.0000000000000000e+00   0.0000000000000000e+00   0.0000000000000000e+00   0.0000000000000000e+00   0.0000000000000000e+00   0.0000000000000000e+00   0.0000000000000000e+00   0.0000000000000000e+00   0.0000000000000000e+00   0.0000000000000000e+00   0.0000000000000000e+00   0.0000000000000000e+00   0.0000000000000000e+00   0.0000000000000000e+00   0.0000000000000000e+00   0.0000000000000000e+00   0.0000000000000000e+00   0.0000000000000000e+00   0.0000000000000000e+00   0.0000000000000000e+00   0.0000000000000000e+00   0.0000000000000000e+00   0.0000000000000000e+00   0.0000000000000000e+00   0.0000000000000000e+00   0.0000000000000000e+00   0.0000000000000000e+00   0.0000000000000000e+00   0.0000000000000000e+00   0.0000000000000000e+00   0.0000000000000000e+00   0.0000000000000000e+00   0.0000000000000000e+00   0.0000000000000000e+00   0.0000000000000000e+00   7.4014868308343765e-17   0.0000000000000000e+00   4.1681845012557045e-10   4.3853809472693691e-15   3.7233507023251566e-04   2.7858659878976514e-08   5.5406092114655148e-01   1.1972477453398614e-02   9.9975441664158970e-01   9.2191128672649103e-01   9.9999903134963308e-01   9.9996673519603896e-01   9.9999990253418602e-01   9.9999969026007607e-01   9.9999971716546165e-01   9.9999991273523026e-01   9.9997624242130834e-01   9.9999928533328775e-01   9.5428065517097194e-01   9.9985313111807428e-01   2.6147892811874004e-02   6.6879800599493078e-01   8.4026893452474992e-08   9.0394752206417639e-04   1.2462253451417381e-14   1.0905962429437941e-09   0.0000000000000000e+00   1.2952601953960158e-16   0.0000000000000000e+00   0.0000000000000000e+00   0.0000000000000000e+00   0.0000000000000000e+00   0.0000000000000000e+00   0.0000000000000000e+00   0.0000000000000000e+00   0.0000000000000000e+00   0.0000000000000000e+00   0.0000000000000000e+00   0.0000000000000000e+00   0.0000000000000000e+00   0.0000000000000000e+00   0.0000000000000000e+00   0.0000000000000000e+00   0.0000000000000000e+00   0.0000000000000000e+00   0.0000000000000000e+00   0.0000000000000000e+00   0.0000000000000000e+00   0.0000000000000000e+00   0.0000000000000000e+00   0.0000000000000000e+00   0.0000000000000000e+00   0.0000000000000000e+00   0.0000000000000000e+00   0.0000000000000000e+00   0.0000000000000000e+00   0.0000000000000000e+00   0.0000000000000000e+00   0.0000000000000000e+00   0.0000000000000000e+00   7.5957758601437783e-15   5.2180482157382357e-15   1.4026874754306345e-08   9.9995377185583290e-01   9.9999966944289131e-01   9.9999964668160146e-01   9.9999977864039002e-01   9.9999980039225833e-01   9.9998353158915321e-01   9.9998701229068943e-01   9.4766379247816412e-01   9.6205419136970505e-01   1.9539978734954777e-01   2.4700273914794482e-01   2.7876181651435390e-06   6.0449676693163931e-06   7.2393017506537203e-13   1.6525299647203913e-12   0.0000000000000000e+00   0.0000000000000000e+00   0.0000000000000000e+00   0.0000000000000000e+00   0.0000000000000000e+00   0.0000000000000000e+00   0.0000000000000000e+00   0.0000000000000000e+00   0.0000000000000000e+00   0.0000000000000000e+00   0.0000000000000000e+00   0.0000000000000000e+00   0.0000000000000000e+00   0.0000000000000000e+00   0.0000000000000000e+00   0.0000000000000000e+00   0.0000000000000000e+00   0.0000000000000000e+00   0.0000000000000000e+00   0.0000000000000000e+00   0.0000000000000000e+00   0.0000000000000000e+00   0.0000000000000000e+00   0.0000000000000000e+00   0.0000000000000000e+00   0.0000000000000000e+00   0.0000000000000000e+00   0.0000000000000000e+00   0.0000000000000000e+00   0.0000000000000000e+00   0.0000000000000000e+00   0.0000000000000000e+00   0.0000000000000000e+00   0.0000000000000000e+00   0.0000000000000000e+00   0.0000000000000000e+00   0.0000000000000000e+00   0.0000000000000000e+00   0.0000000000000000e+00   0.0000000000000000e+00   0.0000000000000000e+00   0.0000000000000000e+00   0.0000000000000000e+00   0.0000000000000000e+00   0.0000000000000000e+00   0.0000000000000000e+00   0.0000000000000000e+00   0.0000000000000000e+00   0.0000000000000000e+00   0.0000000000000000e+00   0.0000000000000000e+00   0.0000000000000000e+00   0.0000000000000000e+00   0.0000000000000000e+00   0.0000000000000000e+00   0.0000000000000000e+00   0.0000000000000000e+00   0.0000000000000000e+00   0.0000000000000000e+00   0.0000000000000000e+00   0.0000000000000000e+00   0.0000000000000000e+00   0.0000000000000000e+00   0.0000000000000000e+00   0.0000000000000000e+00   0.0000000000000000e+00   0.0000000000000000e+00   0.0000000000000000e+00   0.0000000000000000e+00   0.0000000000000000e+00   0.0000000000000000e+00   0.0000000000000000e+00   0.0000000000000000e+00   0.0000000000000000e+00   0.0000000000000000e+00   0.0000000000000000e+00   0.0000000000000000e+00   0.0000000000000000e+00   0.0000000000000000e+00   0.0000000000000000e+00   0.0000000000000000e+00   0.0000000000000000e+00   0.0000000000000000e+00   0.0000000000000000e+00   0.0000000000000000e+00   0.0000000000000000e+00   0.0000000000000000e+00   0.0000000000000000e+00   1.9428902930940239e-16   0.0000000000000000e+00   1.2260383449221499e-09   1.3813024798044656e-14   9.9463398035673479e-04   8.8985189642768844e-08   6.9714324577273867e-01   3.1242214275353290e-02   9.9988161955591404e-01   9.6442969825972191e-01   9.9999941450694674e-01   9.9998332632387454e-01   9.9999992317357567e-01   9.9999979491179292e-01   9.9999969878170958e-01   9.9999992091841505e-01   9.9996495505714733e-01   9.9999909477239735e-01   9.1484391166435530e-01   9.9973008024872045e-01   9.2584683549742728e-03   5.1530903730660993e-01   1.6811134012639783e-08   2.1586298263525280e-04   1.8133642735544226e-15   1.4191918936331169e-10   0.0000000000000000e+00   1.8503717077085944e-17   0.0000000000000000e+00   0.0000000000000000e+00   0.0000000000000000e+00   0.0000000000000000e+00   0.0000000000000000e+00   0.0000000000000000e+00   0.0000000000000000e+00   0.0000000000000000e+00   0.0000000000000000e+00   0.0000000000000000e+00   0.0000000000000000e+00   0.0000000000000000e+00   0.0000000000000000e+00   0.0000000000000000e+00   0.0000000000000000e+00   0.0000000000000000e+00   0.0000000000000000e+00   0.0000000000000000e+00   0.0000000000000000e+00   0.0000000000000000e+00   0.0000000000000000e+00   0.0000000000000000e+00   0.0000000000000000e+00   0.0000000000000000e+00   0.0000000000000000e+00   0.0000000000000000e+00   0.0000000000000000e+00   0.0000000000000000e+00   1.4432899320127035e-15   1.1102230246251565e-15   3.4998439794412901e-09   2.4055655245547318e-09   1.9346126145394214e-03   1.3241106051759080e-03   5.1679743076689721e-01   9.9999985895654664e-01   9.9999569598140792e-01   9.9999650016212294e-01   9.9287115121162373e-01   9.9488430318543852e-01   3.5766189137725041e-01   4.4721169540962064e-01   5.8747707067578293e-05   1.1949116844168585e-04   2.7472450240632423e-11   6.0791899292311756e-11   0.0000000000000000e+00   9.2518585385429707e-18   0.0000000000000000e+00   0.0000000000000000e+00   0.0000000000000000e+00   0.0000000000000000e+00   0.0000000000000000e+00   0.0000000000000000e+00   0.0000000000000000e+00   0.0000000000000000e+00   0.0000000000000000e+00   0.0000000000000000e+00   0.0000000000000000e+00   0.0000000000000000e+00   0.0000000000000000e+00   0.0000000000000000e+00   0.0000000000000000e+00   0.0000000000000000e+00   0.0000000000000000e+00   0.0000000000000000e+00   0.0000000000000000e+00   0.0000000000000000e+00   0.0000000000000000e+00   0.0000000000000000e+00   0.0000000000000000e+00   0.0000000000000000e+00   0.0000000000000000e+00   0.0000000000000000e+00   0.0000000000000000e+00   0.0000000000000000e+00   0.0000000000000000e+00   0.0000000000000000e+00   0.0000000000000000e+00   0.0000000000000000e+00   0.0000000000000000e+00   0.0000000000000000e+00   0.0000000000000000e+00   0.0000000000000000e+00   0.0000000000000000e+00   0.0000000000000000e+00   0.0000000000000000e+00   0.0000000000000000e+00   0.0000000000000000e+00   0.0000000000000000e+00   0.0000000000000000e+00   0.0000000000000000e+00   0.0000000000000000e+00   0.0000000000000000e+00   0.0000000000000000e+00   0.0000000000000000e+00   0.0000000000000000e+00   0.0000000000000000e+00   0.0000000000000000e+00   0.0000000000000000e+00   0.0000000000000000e+00   0.0000000000000000e+00   0.0000000000000000e+00   0.0000000000000000e+00   0.0000000000000000e+00   0.0000000000000000e+00   0.0000000000000000e+00   0.0000000000000000e+00   0.0000000000000000e+00   0.0000000000000000e+00   0.0000000000000000e+00   0.0000000000000000e+00   0.0000000000000000e+00   0.0000000000000000e+00   0.0000000000000000e+00   0.0000000000000000e+00   0.0000000000000000e+00   0.0000000000000000e+00   0.0000000000000000e+00   0.0000000000000000e+00   0.0000000000000000e+00   0.0000000000000000e+00   0.0000000000000000e+00   0.0000000000000000e+00   0.0000000000000000e+00   0.0000000000000000e+00   0.0000000000000000e+00   0.0000000000000000e+00   0.0000000000000000e+00   0.0000000000000000e+00   0.0000000000000000e+00   0.0000000000000000e+00   0.0000000000000000e+00   0.0000000000000000e+00   0.0000000000000000e+00   0.0000000000000000e+00   0.0000000000000000e+00   0.0000000000000000e+00   6.4763009769800795e-16   0.0000000000000000e+00   4.3977185226751203e-09   5.4687735821327500e-14   3.0130234376779435e-03   3.3508766849229171e-07   8.3725522781964756e-01   8.2639950200363702e-02   9.9994310917708695e-01   9.8558150486918639e-01   9.9999961792081538e-01   9.9999123522483990e-01   9.9999992932090320e-01   9.9999984542219955e-01   9.9999959500750346e-01   9.9999991204524563e-01   9.9992841753282746e-01   9.9999847950055043e-01   8.1528902293740124e-01   9.9927465154409023e-01   1.8790122610995072e-03   3.5689540876950937e-01   1.6776349106203032e-09   2.8237345769029546e-05   1.8503717077085943e-16   1.0140083217535788e-11   0.0000000000000000e+00   0.0000000000000000e+00   0.0000000000000000e+00   0.0000000000000000e+00   0.0000000000000000e+00   0.0000000000000000e+00   0.0000000000000000e+00   0.0000000000000000e+00   0.0000000000000000e+00   0.0000000000000000e+00   0.0000000000000000e+00   0.0000000000000000e+00   0.0000000000000000e+00   0.0000000000000000e+00   0.0000000000000000e+00   0.0000000000000000e+00   0.0000000000000000e+00   0.0000000000000000e+00   0.0000000000000000e+00   0.0000000000000000e+00   0.0000000000000000e+00   0.0000000000000000e+00   0.0000000000000000e+00   0.0000000000000000e+00   0.0000000000000000e+00   0.0000000000000000e+00   4.4408920985006257e-16   4.0708177569589072e-16   7.4525379386199597e-10   5.6187285379927232e-10   4.6704787753148086e-04   3.3523381327723217e-04   4.8155776234013303e-01   4.3240680694630734e-01   9.9585164552639471e-01   9.9504628477248813e-01   9.9999619117421368e-01   9.9896593053276306e-01   5.1513445279999215e-01   6.0124221624768148e-01   9.5462371402125568e-04   1.8658309607620291e-03   8.2606845438111997e-10   1.7819437962233542e-09   1.0177044392397270e-16   2.2204460492503131e-16   0.0000000000000000e+00   0.0000000000000000e+00   0.0000000000000000e+00   0.0000000000000000e+00   0.0000000000000000e+00   0.0000000000000000e+00   0.0000000000000000e+00   0.0000000000000000e+00   0.0000000000000000e+00   0.0000000000000000e+00   0.0000000000000000e+00   0.0000000000000000e+00   0.0000000000000000e+00   0.0000000000000000e+00   0.0000000000000000e+00   0.0000000000000000e+00   0.0000000000000000e+00   0.0000000000000000e+00   0.0000000000000000e+00   0.0000000000000000e+00   0.0000000000000000e+00   0.0000000000000000e+00   0.0000000000000000e+00   0.0000000000000000e+00   0.0000000000000000e+00   0.0000000000000000e+00   0.0000000000000000e+00   0.0000000000000000e+00   0.0000000000000000e+00   0.0000000000000000e+00   0.0000000000000000e+00   0.0000000000000000e+00   0.0000000000000000e+00   0.0000000000000000e+00   0.0000000000000000e+00   0.0000000000000000e+00   0.0000000000000000e+00   0.0000000000000000e+00   0.0000000000000000e+00   0.0000000000000000e+00   0.0000000000000000e+00   0.0000000000000000e+00   0.0000000000000000e+00   0.0000000000000000e+00   0.0000000000000000e+00   0.0000000000000000e+00   0.0000000000000000e+00   0.0000000000000000e+00   0.0000000000000000e+00   0.0000000000000000e+00   0.0000000000000000e+00   0.0000000000000000e+00   0.0000000000000000e+00   0.0000000000000000e+00   0.0000000000000000e+00   0.0000000000000000e+00   0.0000000000000000e+00   0.0000000000000000e+00   0.0000000000000000e+00   0.0000000000000000e+00   0.0000000000000000e+00   0.0000000000000000e+00   0.0000000000000000e+00   0.0000000000000000e+00   0.0000000000000000e+00   0.0000000000000000e+00   0.0000000000000000e+00   0.0000000000000000e+00   0.0000000000000000e+00   0.0000000000000000e+00   0.0000000000000000e+00   0.0000000000000000e+00   0.0000000000000000e+00   0.0000000000000000e+00   0.0000000000000000e+00   0.0000000000000000e+00   0.0000000000000000e+00   0.0000000000000000e+00   0.0000000000000000e+00   0.0000000000000000e+00   0.0000000000000000e+00   0.0000000000000000e+00   0.0000000000000000e+00   0.0000000000000000e+00   0.0000000000000000e+00   0.0000000000000000e+00   0.0000000000000000e+00   0.0000000000000000e+00   0.0000000000000000e+00   0.0000000000000000e+00   0.0000000000000000e+00   0.0000000000000000e+00   0.0000000000000000e+00   0.0000000000000000e+00   2.7570538444858057e-15   0.0000000000000000e+00   1.8538249666836631e-08   2.6734170432973769e-13   9.6934823209568026e-03   1.4191029723183608e-06   9.2760596478415647e-01   1.8978292993880314e-01   9.9997026470533024e-01   9.9406344218716436e-01   9.9999970687111517e-01   9.9999467508499518e-01   9.9999991837119551e-01   9.9999985618553699e-01   9.9999927070582051e-01   9.9999987315281558e-01   9.9978769005766466e-01   9.9999652704842090e-01   6.7056848491037768e-01   9.9719793618963570e-01   2.3004444257476717e-04   2.0526452985147184e-01   1.0284604649394660e-10   2.4340894174227725e-06   1.8503717077085944e-17   6.5096076677188352e-13   0.0000000000000000e+00   0.0000000000000000e+00   0.0000000000000000e+00   0.0000000000000000e+00   0.0000000000000000e+00   0.0000000000000000e+00   0.0000000000000000e+00   0.0000000000000000e+00   0.0000000000000000e+00   0.0000000000000000e+00   0.0000000000000000e+00   0.0000000000000000e+00   0.0000000000000000e+00   0.0000000000000000e+00   0.0000000000000000e+00   0.0000000000000000e+00   0.0000000000000000e+00   0.0000000000000000e+00   0.0000000000000000e+00   0.0000000000000000e+00   0.0000000000000000e+00   0.0000000000000000e+00   3.7932620008026180e-16   4.7184478546569163e-16   2.7008193829540045e-10   2.5490333917706681e-10   1.4257636841870830e-04   1.1428633354303627e-04   3.9827762318313942e-01   3.6232726058796572e-01   9.8825414966282832e-01   9.8638490397133816e-01   9.9999324544044188e-01   9.9999252464962962e-01   9.9999985957542270e-01   9.9999985552750248e-01   9.9999978149654567e-01   1.2514288103348628e-02   2.1892767219459468e-08   4.7274275188913257e-08   3.5619655373390442e-15   7.6882944455292090e-15   0.0000000000000000e+00   0.0000000000000000e+00   0.0000000000000000e+00   0.0000000000000000e+00   0.0000000000000000e+00   0.0000000000000000e+00   0.0000000000000000e+00   0.0000000000000000e+00   0.0000000000000000e+00   0.0000000000000000e+00   0.0000000000000000e+00   0.0000000000000000e+00   0.0000000000000000e+00   0.0000000000000000e+00   0.0000000000000000e+00   0.0000000000000000e+00   0.0000000000000000e+00   0.0000000000000000e+00   0.0000000000000000e+00   0.0000000000000000e+00   0.0000000000000000e+00   0.0000000000000000e+00   0.0000000000000000e+00   0.0000000000000000e+00   0.0000000000000000e+00   0.0000000000000000e+00   0.0000000000000000e+00   0.0000000000000000e+00   0.0000000000000000e+00   0.0000000000000000e+00   0.0000000000000000e+00   0.0000000000000000e+00   0.0000000000000000e+00   0.0000000000000000e+00   0.0000000000000000e+00   0.0000000000000000e+00   0.0000000000000000e+00   0.0000000000000000e+00   0.0000000000000000e+00   0.0000000000000000e+00   0.0000000000000000e+00   0.0000000000000000e+00   0.0000000000000000e+00   0.0000000000000000e+00   0.0000000000000000e+00   0.0000000000000000e+00   0.0000000000000000e+00   0.0000000000000000e+00   0.0000000000000000e+00   0.0000000000000000e+00   0.0000000000000000e+00   0.0000000000000000e+00   0.0000000000000000e+00   0.0000000000000000e+00   0.0000000000000000e+00   0.0000000000000000e+00   0.0000000000000000e+00   0.0000000000000000e+00   0.0000000000000000e+00   0.0000000000000000e+00   0.0000000000000000e+00   0.0000000000000000e+00   0.0000000000000000e+00   0.0000000000000000e+00   0.0000000000000000e+00   0.0000000000000000e+00   0.0000000000000000e+00   0.0000000000000000e+00   0.0000000000000000e+00   0.0000000000000000e+00   0.0000000000000000e+00   0.0000000000000000e+00   0.0000000000000000e+00   0.0000000000000000e+00   0.0000000000000000e+00   0.0000000000000000e+00   0.0000000000000000e+00   0.0000000000000000e+00   0.0000000000000000e+00   0.0000000000000000e+00   0.00000000