<?xml version="1.0"?>
<VTKFile type="UnstructuredGrid"  version="0.1"  >
<UnstructuredGrid>
<Piece  NumberOfPoints="2293" NumberOfCells="4385">
<Points>
<DataArray  type="Float64"  NumberOfComponents="3"  format="ascii">2.147826086956522 0 0  2.156086956521739 0 0  2.156086956521739 0.008333333333333333 0  2.147826086956522 0.008333333333333333 0  2.164347826086956 0 0  2.164347826086956 0.008333333333333333 0  2.172608695652174 0 0  2.172608695652174 0.008333333333333333 0  2.180869565217391 0 0  2.180869565217391 0.008333333333333333 0  2.189130434782609 0 0  2.189130434782609 0.008333333333333333 0  2.197391304347826 0 0  2.197391304347826 0.008333333333333333 0  2.205652173913043 0 0  2.205652173913043 0.008333333333333333 0  2.213913043478261 0 0  2.213913043478261 0.008333333333333333 0  2.222173913043478 0 0  2.222173913043478 0.008333333333333333 0  2.230434782608695 0 0  2.230434782608695 0.008333333333333333 0  2.238695652173913 0 0  2.238695652173913 0.008333333333333333 0  2.24695652173913 0 0  2.24695652173913 0.008333333333333333 0  2.255217391304348 0 0  2.255217391304348 0.008333333333333333 0  2.263478260869565 0 0  2.263478260869565 0.008333333333333333 0  2.271739130434783 0 0  2.271739130434783 0.008333333333333333 0  2.28 0 0  2.28 0.008333333333333333 0  2.288260869565217 0 0  2.288260869565217 0.008333333333333333 0  2.296521739130434 0 0  2.296521739130434 0.008333333333333333 0  2.304782608695652 0 0  2.304782608695652 0.008333333333333333 0  2.31304347826087 0 0  2.31304347826087 0.008333333333333333 0  2.321304347826087 0 0  2.321304347826087 0.008333333333333333 0  2.329565217391304 0 0  2.329565217391304 0.008333333333333333 0  2.337826086956521 0 0  2.337826086956521 0.008333333333333333 0  2.346086956521739 0 0  2.346086956521739 0.008333333333333333 0  2.354347826086956 0 0  2.354347826086956 0.008333333333333333 0  2.362608695652174 0 0  2.362608695652174 0.008333333333333333 0  2.370869565217391 0 0  2.370869565217391 0.008333333333333333 0  2.379130434782609 0 0  2.379130434782609 0.008333333333333333 0  2.387391304347826 0 0  2.387391304347826 0.008333333333333333 0  2.395652173913044 0 0  2.395652173913044 0.008333333333333333 0  2.403913043478261 0 0  2.403913043478261 0.008333333333333333 0  2.412173913043478 0 0  2.412173913043478 0.008333333333333333 0  2.420434782608695 0 0  2.420434782608695 0.008333333333333333 0  2.428695652173913 0 0  2.428695652173913 0.008333333333333333 0  2.43695652173913 0 0  2.43695652173913 0.008333333333333333 0  2.445217391304348 0 0  2.445217391304348 0.008333333333333333 0  2.453478260869565 0 0  2.453478260869565 0.008333333333333333 0  2.461739130434782 0 0  2.461739130434782 0.008333333333333333 0  2.47 0 0  2.47 0.008333333333333333 0  2.478260869565217 0 0  2.478260869565217 0.008333333333333333 0  2.486521739130435 0 0  2.486521739130435 0.008333333333333333 0  2.494782608695652 0 0  2.494782608695652 0.008333333333333333 0  2.503043478260869 0 0  2.503043478260869 0.008333333333333333 0  2.511304347826087 0 0  2.511304347826087 0.008333333333333333 0  2.519565217391305 0 0  2.519565217391305 0.008333333333333333 0  2.527826086956522 0 0  2.527826086956522 0.008333333333333333 0  2.536086956521739 0 0  2.536086956521739 0.008333333333333333 0  2.544347826086956 0 0  2.544347826086956 0.008333333333333333 0  2.552608695652174 0 0  2.552608695652174 0.008333333333333333 0  2.560869565217391 0 0  2.560869565217391 0.008333333333333333 0  2.569130434782608 0 0  2.569130434782608 0.008333333333333333 0  2.577391304347826 0 0  2.577391304347826 0.008333333333333333 0  2.585652173913043 0 0  2.585652173913043 0.008333333333333333 0  2.593913043478261 0 0  2.593913043478261 0.008333333333333333 0  2.602173913043478 0 0  2.602173913043478 0.008333333333333333 0  2.610434782608696 0 0  2.610434782608696 0.008333333333333333 0  2.618695652173913 0 0  2.618695652173913 0.008333333333333333 0  2.156086956521739 0.01666666666666667 0  2.164347826086956 0.01666666666666667 0  2.172608695652174 0.01666666666666667 0  2.180869565217391 0.01666666666666667 0  2.189130434782609 0.01666666666666667 0  2.197391304347826 0.01666666666666667 0  2.205652173913043 0.01666666666666667 0  2.213913043478261 0.01666666666666667 0  2.222173913043478 0.01666666666666667 0  2.230434782608695 0.01666666666666667 0  2.238695652173913 0.01666666666666667 0  2.24695652173913 0.01666666666666667 0  2.255217391304348 0.01666666666666667 0  2.263478260869565 0.01666666666666667 0  2.271739130434783 0.01666666666666667 0  2.28 0.01666666666666667 0  2.288260869565217 0.01666666666666667 0  2.296521739130434 0.01666666666666667 0  2.304782608695652 0.01666666666666667 0  2.31304347826087 0.01666666666666667 0  2.321304347826087 0.01666666666666667 0  2.329565217391304 0.01666666666666667 0  2.337826086956521 0.01666666666666667 0  2.346086956521739 0.01666666666666667 0  2.354347826086956 0.01666666666666667 0  2.362608695652174 0.01666666666666667 0  2.370869565217391 0.01666666666666667 0  2.379130434782609 0.01666666666666667 0  2.387391304347826 0.01666666666666667 0  2.395652173913044 0.01666666666666667 0  2.403913043478261 0.01666666666666667 0  2.412173913043478 0.01666666666666667 0  2.420434782608695 0.01666666666666667 0  2.428695652173913 0.01666666666666667 0  2.43695652173913 0.01666666666666667 0  2.445217391304348 0.01666666666666667 0  2.453478260869565 0.01666666666666667 0  2.461739130434782 0.01666666666666667 0  2.47 0.01666666666666667 0  2.478260869565217 0.01666666666666667 0  2.486521739130435 0.01666666666666667 0  2.494782608695652 0.01666666666666667 0  2.503043478260869 0.01666666666666667 0  2.511304347826087 0.01666666666666667 0  2.519565217391305 0.01666666666666667 0  2.527826086956522 0.01666666666666667 0  2.536086956521739 0.01666666666666667 0  2.544347826086956 0.01666666666666667 0  2.552608695652174 0.01666666666666667 0  2.560869565217391 0.01666666666666667 0  2.569130434782608 0.01666666666666667 0  2.577391304347826 0.01666666666666667 0  2.585652173913043 0.01666666666666667 0  2.593913043478261 0.01666666666666667 0  2.602173913043478 0.01666666666666667 0  2.610434782608696 0.01666666666666667 0  2.618695652173913 0.01666666666666667 0  2.164347826086956 0.025 0  2.172608695652174 0.025 0  2.180869565217391 0.025 0  2.189130434782609 0.025 0  2.197391304347826 0.025 0  2.205652173913043 0.025 0  2.213913043478261 0.025 0  2.222173913043478 0.025 0  2.230434782608695 0.025 0  2.238695652173913 0.025 0  2.24695652173913 0.025 0  2.255217391304348 0.025 0  2.263478260869565 0.025 0  2.271739130434783 0.025 0  2.28 0.025 0  2.288260869565217 0.025 0  2.296521739130434 0.025 0  2.304782608695652 0.025 0  2.31304347826087 0.025 0  2.321304347826087 0.025 0  2.329565217391304 0.025 0  2.337826086956521 0.025 0  2.346086956521739 0.025 0  2.354347826086956 0.025 0  2.362608695652174 0.025 0  2.370869565217391 0.025 0  2.379130434782609 0.025 0  2.387391304347826 0.025 0  2.395652173913044 0.025 0  2.403913043478261 0.025 0  2.412173913043478 0.025 0  2.420434782608695 0.025 0  2.428695652173913 0.025 0  2.43695652173913 0.025 0  2.445217391304348 0.025 0  2.453478260869565 0.025 0  2.461739130434782 0.025 0  2.47 0.025 0  2.478260869565217 0.025 0  2.486521739130435 0.025 0  2.494782608695652 0.025 0  2.503043478260869 0.025 0  2.511304347826087 0.025 0  2.519565217391305 0.025 0  2.527826086956522 0.025 0  2.536086956521739 0.025 0  2.544347826086956 0.025 0  2.552608695652174 0.025 0  2.560869565217391 0.025 0  2.569130434782608 0.025 0  2.577391304347826 0.025 0  2.585652173913043 0.025 0  2.593913043478261 0.025 0  2.602173913043478 0.025 0  2.610434782608696 0.025 0  2.618695652173913 0.025 0  2.62695652173913 0.025 0  2.172608695652174 0.03333333333333333 0  2.180869565217391 0.03333333333333333 0  2.189130434782609 0.03333333333333333 0  2.197391304347826 0.03333333333333333 0  2.205652173913043 0.03333333333333333 0  2.213913043478261 0.03333333333333333 0  2.222173913043478 0.03333333333333333 0  2.230434782608695 0.03333333333333333 0  2.238695652173913 0.03333333333333333 0  2.24695652173913 0.03333333333333333 0  2.255217391304348 0.03333333333333333 0  2.263478260869565 0.03333333333333333 0  2.271739130434783 0.03333333333333333 0  2.28 0.03333333333333333 0  2.288260869565217 0.03333333333333333 0  2.296521739130434 0.03333333333333333 0  2.304782608695652 0.03333333333333333 0  2.31304347826087 0.03333333333333333 0  2.321304347826087 0.03333333333333333 0  2.329565217391304 0.03333333333333333 0  2.337826086956521 0.03333333333333333 0  2.346086956521739 0.03333333333333333 0  2.354347826086956 0.03333333333333333 0  2.362608695652174 0.03333333333333333 0  2.370869565217391 0.03333333333333333 0  2.379130434782609 0.03333333333333333 0  2.387391304347826 0.03333333333333333 0  2.395652173913044 0.03333333333333333 0  2.403913043478261 0.03333333333333333 0  2.412173913043478 0.03333333333333333 0  2.420434782608695 0.03333333333333333 0  2.428695652173913 0.03333333333333333 0  2.43695652173913 0.03333333333333333 0  2.445217391304348 0.03333333333333333 0  2.453478260869565 0.03333333333333333 0  2.461739130434782 0.03333333333333333 0  2.47 0.03333333333333333 0  2.478260869565217 0.03333333333333333 0  2.486521739130435 0.03333333333333333 0  2.494782608695652 0.03333333333333333 0  2.503043478260869 0.03333333333333333 0  2.511304347826087 0.03333333333333333 0  2.519565217391305 0.03333333333333333 0  2.527826086956522 0.03333333333333333 0  2.536086956521739 0.03333333333333333 0  2.544347826086956 0.03333333333333333 0  2.552608695652174 0.03333333333333333 0  2.560869565217391 0.03333333333333333 0  2.569130434782608 0.03333333333333333 0  2.577391304347826 0.03333333333333333 0  2.585652173913043 0.03333333333333333 0  2.593913043478261 0.03333333333333333 0  2.602173913043478 0.03333333333333333 0  2.610434782608696 0.03333333333333333 0  2.618695652173913 0.03333333333333333 0  2.62695652173913 0.033333
[...]
<CellData  Scalars="rho_bar"> 
<DataArray  type="Float64"  Name="rho_bar"  format="ascii">9.9999999943418116e-01   9.9999999867994627e-01   9.9999999944399365e-01   9.9999999868562794e-01   9.9999999947147378e-01   9.9999999873825929e-01   9.9999999950879059e-01   9.9999999882198420e-01   9.9999999954630259e-01   9.9999999891469682e-01   9.9999999957494723e-01   9.9999999899402703e-01   9.9999999958630281e-01   9.9999999903984615e-01   9.9999999957094010e-01   9.9999999903193493e-01   9.9999999951359608e-01   9.9999999894142944e-01   9.9999999938383899e-01   9.9999999871372114e-01   9.9999999911404125e-01   9.9999999822944097e-01   9.9999999854978938e-01   9.9999999721387833e-01   9.9999999734946876e-01   9.9999999503493409e-01   9.9999999490098967e-01   9.9999999040571541e-01   9.9999999074809320e-01   9.9999998167046722e-01   9.9999998636314225e-01   9.9999996978174255e-01   9.9999998649526312e-01   9.9999996369579991e-01   9.9999999315371368e-01   9.9999997464987478e-01   9.9999999879144641e-01   9.9999999257486138e-01   9.9999999994503985e-01   9.9999999937680928e-01   9.9999999999939815e-01   9.9999999998877831e-01   9.9999999999999800e-01   9.9999999999995681e-01   9.9999999999999978e-01   9.9999999999999978e-01   9.9999999999999978e-01   9.9999999999999978e-01   9.9999999999999978e-01   9.9999999999999978e-01   1.0000000000000000e+00   1.0000000000000000e+00   9.9999999999999978e-01   9.9999999999999978e-01   1.0000000000000000e+00   1.0000000000000000e+00   1.0000000000000000e+00   1.0000000000000000e+00   1.0000000000000000e+00   1.0000000000000000e+00   9.9999999999999978e-01   9.9999999999999978e-01   1.0000000000000000e+00   1.0000000000000000e+00   9.9999999999999978e-01   9.9999999999999978e-01   1.0000000000000000e+00   1.0000000000000000e+00   1.0000000000000000e+00   1.0000000000000000e+00   9.9999999999999978e-01   9.9999999999999978e-01   1.0000000000000000e+00   1.0000000000000000e+00   9.9999999999999978e-01   9.9999999999999978e-01   9.9999999999999978e-01   9.9999999999999978e-01   9.9999999999999978e-01   9.9999999999999978e-01   1.0000000000000000e+00   1.0000000000000000e+00   9.9999999999999978e-01   9.9999999999999978e-01   1.0000000000000000e+00   1.0000000000000000e+00   1.0000000000000000e+00   1.0000000000000000e+00   1.0000000000000000e+00   1.0000000000000000e+00   9.9999999999999978e-01   9.9999999999999978e-01   9.9999999999999978e-01   9.9999999999999978e-01   9.9999999999994016e-01   9.9999999999997458e-01   9.9999999998518163e-01   9.9999999999106026e-01   9.9999999916437377e-01   9.9999999925330607e-01   9.9999998884420704e-01   9.9999998537143342e-01   9.9999995289447174e-01   9.9999991508752462e-01   9.9999991166776492e-01   9.9999980073747285e-01   9.9999990399408067e-01   9.9999974975873118e-01   9.9999992538378091e-01   9.9999978999641514e-01   9.9999995129309638e-01   9.9999985941047309e-01   9.9999996961179793e-01   9.9999991362048923e-01   9.9999979559220742e-01   9.9999980147538203e-01   9.9999823631841644e-01   9.9999981507306057e-01   9.9999833541564709e-01   9.9999983266325798e-01   9.9999848559085913e-01   9.9999985014665860e-01   9.9999864960241913e-01   9.9999986399591756e-01   9.9999879305281925e-01   9.9999987146188751e-01   9.9999888949740490e-01   9.9999986965947696e-01   9.9999891605662239e-01   9.9999985393281554e-01   9.9999884183742738e-01   9.9999981403217264e-01   9.9999860361881954e-01   9.9999972484490651e-01   9.9999804826767580e-01   9.9999951940158249e-01   9.9999676821103978e-01   9.9999901031230509e-01   9.9999359601059834e-01   9.9999771774944546e-01   9.9998523432577324e-01   9.9999484942475592e-01   9.9996438050380931e-01   9.9999023761872097e-01   9.9992280592719751e-01   9.9998654844867230e-01   9.9986933086806906e-01   9.9998947450800002e-01   9.9985587998288727e-01   9.9999771263847625e-01   9.9993520780338752e-01   9.9999992756438116e-01   9.9999372823570243e-01   9.9999999973016029e-01   9.9999992196943055e-01   9.9999999999977851e-01   9.9999999988688837e-01   9.9999999999999978e-01   9.9999999999996214e-01   9.9999999999999978e-01   9.9999999999999978e-01   9.9999999999999978e-01   9.9999999999999978e-01   1.0000000000000000e+00   1.0000000000000000e+00   9.9999999999999978e-01   9.9999999999999978e-01   1.0000000000000000e+00   1.0000000000000000e+00   1.0000000000000000e+00   1.0000000000000000e+00   1.0000000000000000e+00   1.0000000000000000e+00   9.9999999999999978e-01   9.9999999999999978e-01   1.0000000000000000e+00   1.0000000000000000e+00   9.9999999999999978e-01   9.9999999999999978e-01   1.0000000000000000e+00   1.0000000000000000e+00   1.0000000000000000e+00   1.0000000000000000e+00   9.9999999999999978e-01   9.9999999999999978e-01   1.0000000000000000e+00   1.0000000000000000e+00   9.9999999999999978e-01   9.9999999999999978e-01   9.9999999999999978e-01   9.9999999999999978e-01   9.9999999999999978e-01   9.9999999999999978e-01   1.0000000000000000e+00   1.0000000000000000e+00   9.9999999999999978e-01   9.9999999999999978e-01   1.0000000000000000e+00   1.0000000000000000e+00   1.0000000000000000e+00   1.0000000000000000e+00   1.0000000000000000e+00   1.0000000000000000e+00   9.9999999999999978e-01   9.9999999999999978e-01   9.9999999999996958e-01   9.9999999999997435e-01   9.9999999992863942e-01   9.9999999990461341e-01   9.9999996743272779e-01   9.9999992287239592e-01   9.9999793859531483e-01   9.9999152498321486e-01   9.9997905583736635e-01   9.9986001233825916e-01   9.9994069656925655e-01   9.9944954893160232e-01   9.9992139066025632e-01   9.9913646087350139e-01   9.9993649102684545e-01   9.9922580192714794e-01   9.9996109660838128e-01   9.9950882766801508e-01   9.9997907011796006e-01   9.9973845153154250e-01   9.9998861992412225e-01   9.9986604118136069e-01   9.7192657330749099e-01   9.7450634428533311e-01   6.7570048989076703e-01   9.7779604918736496e-01   6.9514572141077191e-01   9.8106082270808570e-01   7.1913639860121137e-01   9.8375346810545217e-01   7.4363976783232666e-01   9.8552089021912392e-01   7.6411249658974123e-01   9.8609769906045197e-01   7.7589141169494469e-01   9.8507619325752727e-01   7.7423987923101001e-01   9.8148440995376063e-01   7.5383646651614156e-01   9.7275793529494503e-01   7.0822214778355685e-01   9.5183458555008760e-01   6.3123223729617284e-01   9.0073395035139514e-01   5.2477288251577847e-01   8.0570507716761330e-01   4.1914187890130622e-01   7.2251065584043961e-01   3.5542519592804206e-01   6.8280156972328676e-01   3.2321707865455696e-01   6.6483870909774434e-01   2.9543563208100543e-01   6.6167033658884244e-01   2.7443182336546407e-01   6.9108916278608379e-01   2.9040321582053186e-01   9.2325188467705754e-01   3.7781786547416657e-01   9.9980537716892370e-01   8.4553637779714841e-01   9.9999997259593221e-01   9.9983025153069793e-01   9.9999999999899358e-01   9.9999999154454389e-01   9.9999999999999978e-01   9.9999999999984734e-01   1.0000000000000000e+00   1.0000000000000000e+00   9.9999999999999989e-01   9.9999999999999989e-01   1.0000000000000000e+00   1.0000000000000000e+00   9.9999999999999989e-01   9.9999999999999989e-01   9.9999999999999989e-01   9.9999999999999989e-01   9.9999999999999989e-01   9.9999999999999989e-01   1.0000000000000000e+00   1.0000000000000000e+00   9.9999999999999989e-01   9.9999999999999989e-01   1.0000000000000000e+00   1.0000000000000000e+00   9.9999999999999989e-01   9.9999999999999989e-01   9.9999999999999989e-01   9.9999999999999989e-01   1.0000000000000000e+00   1.0000000000000000e+00   9.9999999999999989e-01   9.9999999999999989e-01   1.0000000000000000e+00   1.0000000000000000e+00   9.9999999999999989e-01   9.9999999999999989e-01   1.0000000000000000e+00   1.0000000000000000e+00   9.9999999999999989e-01   9.9999999999999989e-01   1.0000000000000000e+00   1.0000000000000000e+00   9.9999999999999989e-01   9.9999999999999989e-01   9.9999999999999989e-01   9.9999999999999989e-01   9.9999999999999989e-01   9.9999999999999989e-01   9.9999999999992706e-01   9.9999999999992550e-01   9.9999999760246583e-01   9.9999999632830239e-01   9.9997471458736908e-01   9.9992683824160955e-01   9.7270098015120166e-01   8.9251191503394567e-01   6.9803218211374085e-01   3.9789843869597885e-01   6.4586604910736989e-01   2.9200440020932722e-01   6.0743372614332358e-01   1.8168216255913475e-01   5.9956982276189774e-01   1.4544145225219413e-01   6.1982426341970021e-01   1.6606276691977026e-01   6.4711147455150819e-01   2.1684378054546730e-01   6.7557466674606592e-01   2.7070566577343824e-01   7.0945375663752730e-01   3.1061596460226604e-01   3.3746271237419107e-01   3.9066686150791641e-03   4.5939151883259231e-03   3.5945457116409729e-05   5.5890451330441911e-03   4.4380982377439919e-05   6.8295656970923180e-03   5.5963441229730140e-05   8.0959712590123658e-03   6.9612618808306839e-05   8.9528500947631054e-03   8.1957356668355117e-05   8.8656809875944636e-03   8.7280061596176989e-05   7.5532300941450834e-03   8.0366836672451925e-05   5.3320768838851767e-03   6.1511158459296805e-05   2.9966347938042794e-03   3.7876333702613341e-05   1.2680548021395766e-03   1.8061881716546765e-05   3.9246341294533560e-04   6.3582627319869172e-06   1.0247226149423526e-04   1.7420407196118888e-06   2.9406676128699658e-05   4.9832401269322968e-07   1.0829224337640294e-05   1.8582492032163481e-07   6.9771368347848481e-06   1.0502071622527551e-07   1.7586965666782639e-05   1.5882623116691971e-07   4.5594908621018887e-04   1.4202777483263151e-06   1.3314960443299156e-01   1.4563923314137950e-04   8.8672745506493422e-01   1.4644019025647681e-01   9.9999858886981285e-01   9.5713055252029677e-01   9.9999999999514888e-01   9.9999983060890996e-01   9.9999999999999978e-01   9.9999999999956646e-01   9.9999999999999989e-01   9.9999999999999989e-01   1.0000000000000000e+00   1.0000000000000000e+00   9.9999999999999989e-01   9.9999999999999989e-01   9.9999999999999989e-01   9.9999999999999989e-01   9.9999999999999989e-01   9.9999999999999989e-01   1.0000000000000000e+00   1.0000000000000000e+00   9.9999999999999989e-01   9.9999999999999989e-01   1.0000000000000000e+00   1.0000000000000000e+00   9.9999999999999989e-01   9.9999999999999989e-01   9.9999999999999989e-01   9.9999999999999989e-01   1.0000000000000000e+00   1.0000000000000000e+00   9.9999999999999989e-01   9.9999999999999989e-01   1.0000000000000000e+00   1.0000000000000000e+00   9.9999999999999989e-01   9.9999999999999989e-01   1.0000000000000000e+00   1.0000000000000000e+00   9.9999999999999989e-01   9.9999999999999989e-01   1.0000000000000000e+00   1.0000000000000000e+00   9.9999999999999989e-01   9.9999999999999989e-01   9.9999999999999989e-01   9.9999999999999989e-01   9.9999999999988087e-01   9.9999999999987776e-01   9.9999998058093775e-01   9.9999997677062602e-01   9.9745149185869464e-01   9.9569835025357278e-01   6.1251918302719488e-01   4.4969767171616443e-01   6.2137388494081951e-02   1.4924594143543336e-02   1.6780203671375635e-04   1.6898891363239150e-05   4.4501662267530202e-06   2.1092581728443527e-07   1.0345426493807426e-06   2.2061237827294036e-08   1.0315115384629259e-06   1.1703337401044085e-08   2.1494388833439193e-06   1.7054680769475653e-08   5.7348617917007960e-06   3.9611223745517066e-08   1.6642145482239263e-05   1.0446541791793902e-07   4.5631614962173460e-05   2.9307309109179635e-07   9.9556265478908002e-05   7.0689863357342720e-07   1.2845808821382307e-06   5.8226201637978647e-12   3.0198066269804258e-14   7.7740499223229628e-12   3.9931021452351453e-14   1.0590981795270219e-11   5.4835765557944186e-14   1.4125608090627866e-11   7.5411898947663758e-14   1.7556733844514835e-11   9.9374212562490045e-14   1.9293983077872664e-11   1.1933972328866579e-13   1.7855041519373081e-11   1.2433572689947897e-13   1.3426953993089795e-11   1.0796918914479649e-13   8.0668897487849254e-12   7.6670151708905594e-14   3.8356725203432981e-12   4.4686476741162544e-14   1.4637827986755758e-12   2.1612341546036376e-14   5.1388523066483062e-13   9.2888659726971420e-15   2.2037927038809355e-13   4.4964032497318840e-15   1.4973207858777943e-13   3.2844097811827542e-15   2.2197059005672296e-13   4.4038846643464540e-15   1.4556411631616582e-12   1.6560826783991914e-14   7.8018351038859178e-11   3.4413213019964434e-13   4.5401482628992775e-08   5.5790686885141362e-11   3.5784779516754656e-04   9.4862078923544756e-08   4.6436828365554256e-01   2.1922761647398723e-03   9.9999122266766394e-01   8.2020152756960818e-01   9.9999999999074896e-01   9.9999962575238532e-01   9.9999999999999989e-01   9.9999999999950062e-01   1.0000000000000000e+00   1.0000000000000000e+00   9.9999999999999989e-01   9.9999999999999989e-01   9.9999999999999989e-01   9.9999999999999989e-01   9.9999999999999989e-01   9.9999999999999989e-01   1.0000000000000000e+00   1.0000000000000000e+00   9.9999999999999989e-01   9.9999999999999989e-01   1.0000000000000000e+00   1.0000000000000000e+00   9.9999999999999989e-01   9.9999999999999989e-01   9.9999999999999989e-01   9.9999999999999989e-01   1.0000000000000000e+00   1.0000000000000000e+00   9.9999999999999989e-01   9.9999999999999989e-01   1.0000000000000000e+00   1.0000000000000000e+00   9.9999999999999989e-01   9.9999999999999989e-01   1.0000000000000000e+00   1.0000000000000000e+00   9.9999999999999989e-01   9.9999999999999989e-01   1.0000000000000000e+00   1.0000000000000000e+00   9.9999999999999989e-01   9.9999999999999989e-01   9.9999999999989475e-01   9.9999999999988820e-01   9.9999997632466464e-01   9.9999997778153604e-01   9.9071359377529267e-01   9.9070740059431794e-01   3.9923372938512514e-01   3.7066451710242038e-01   3.0718377369470801e-04   1.7752894430359911e-04   3.7900013831008529e-08   1.4191318916297506e-08   5.6791663964143397e-11   1.2887635403302509e-11   7.2615987297316065e-13   9.3166215483127715e-14   5.6686137265652770e-14   3.8950324447265895e-15   1.9031073013782894e-14   6.7538567331363686e-16   1.8327931764853624e-14   3.7007434154171886e-16   2.9976021664879227e-14   4.1633363423443365e-16   6.0534910417686648e-14   6.1987452208237884e-16   1.2911893776390571e-13   1.0917193075480707e-15   2.4225066397320916e-13   1.9058828589398522e-15   3.5398535954319265e-13   2.7755575615628914e-15   3.1733874787202386e-15   0.0000000000000000e+00   0.0000000000000000e+00   0.0000000000000000e+00   0.0000000000000000e+00   0.0000000000000000e+00   0.0000000000000000e+00   0.0000000000000000e+00   0.0000000000000000e+00   0.0000000000000000e+00   0.0000000000000000e+00   0.0000000000000000e+00   0.0000000000000000e+00   0.0000000000000000e+00   0.0000000000000000e+00   0.0000000000000000e+00   0.0000000000000000e+00   0.0000000000000000e+00   0.0000000000000000e+00   0.0000000000000000e+00   0.0000000000000000e+00   0.0000000000000000e+00   0.0000000000000000e+00   0.0000000000000000e+00   0.0000000000000000e+00   0.0000000000000000e+00   0.0000000000000000e+00   0.0000000000000000e+00   0.0000000000000000e+00   0.0000000000000000e+00   0.0000000000000000e+00   0.0000000000000000e+00   2.8680761469483207e-16   0.0000000000000000e+00   1.9066230076229354e-13   4.7184478546569153e-16   1.0274805265867806e-09   8.8583769948987379e-13   5.1434383934428882e-05   1.3397074440553894e-08   4.2424723489686667e-01   1.6716363769656661e-03   9.9999357535868882e-01   9.0404242112461874e-01   9.9999999999358635e-01   9.9999989463497096e-01   9.9999999999999956e-01   9.9999999999968237e-01   9.9999999999999967e-01   9.9999999999999967e-01   9.9999999999999967e-01   9.9999999999999967e-01   9.9999999999999967e-01   9.9999999999999967e-01   9.9999999999999956e-01   9.9999999999999811e-01   9.9999999999998146e-01   9.9999999999974698e-01   9.9999999999879430e-01   9.9999999997130762e-01   9.9999999997683253e-01   9.9999999897712821e-01   9.9999999992170863e-01   9.9999999298385966e-01   9.9999999996163091e-01   9.9999999226347314e-01   9.9999999999699285e-01   9.9999999865240330e-01   9.9999999999994227e-01   9.9999999995735900e-01   9.9999999999999922e-01   9.9999999999961031e-01   9.9999999999999989e-01   9.9999999999999689e-01   9.9999999999999967e-01   9.9999999999999967e-01   9.9999999999999956e-01   9.9999999999999956e-01   9.9999999999993539e-01   9.9999999999990796e-01   9.9999999497011260e-01   9.9999999615953172e-01   9.9790850658863262e-01   9.9871459415560215e-01   3.7966830585313133e-01   4.5240838749352713e-01   9.2330578285180557e-05   1.2655434601324678e-04   2.0452598781250941e-09   2.1257412404403669e-09   3.7278513609351199e-13   2.7033930649622557e-13   4.9034850254277750e-16   2.2204460492503131e-16   0.0000000000000000e+00   0.0000000000000000e+00   0.0000000000000000e+00   0.0000000000000000e+00   0.0000000000000000e+00   0.0000000000000000e+00   0.0000000000000000e+00   0.0000000000000000e+00   0.0000000000000000e+00   0.0000000000000000e+00   0.0000000000000000e+00   0.0000000000000000e+00   0.0000000000000000e+00   0.0000000000000000e+00   0.0000000000000000e+00   0.0000000000000000e+00   0.0000000000000000e+00   0.0000000000000000e+00   0.0000000000000000e+00   0.0000000000000000e+00   0.0000000000000000e+00   0.0000000000000000e+00   0.0000000000000000e+00   0.0000000000000000e+00   0.0000000000000000e+00   0.0000000000000000e+00   0.0000000000000000e+00   0.0000000000000000e+00   0.0000000000000000e+00   0.0000000000000000e+00   0.0000000000000000e+00   0.0000000000000000e+00   0.0000000000000000e+00   0.0000000000000000e+00   0.0000000000000000e+00   0.0000000000000000e+00   0.0000000000000000e+00   0.0000000000000000e+00   0.0000000000000000e+00   0.0000000000000000e+00   0.0000000000000000e+00   0.0000000000000000e+00   0.0000000000000000e+00   0.0000000000000000e+00   0.0000000000000000e+00   0.0000000000000000e+00   0.0000000000000000e+00   0.0000000000000000e+00   0.0000000000000000e+00   0.0000000000000000e+00   0.0000000000000000e+00   0.0000000000000000e+00   0.0000000000000000e+00   1.8503717077085938e-17   0.0000000000000000e+00   7.5430402664740840e-14   2.5905203907920321e-16   1.9931831463093630e-09   3.7192471324942744e-12   3.0579905892214959e-04   2.5733084262532136e-07   7.5777190380618620e-01   6.1656875108818593e-02   9.9999941597499731e-01   9.9802992054128159e-01   9.9999999999680989e-01   9.9999999561834740e-01   9.9999999999999034e-01   9.9999999999940126e-01   9.9999999999997868e-01   9.9999999999984501e-01   9.9999999999666489e-01   9.9999999998239797e-01   9.9999999750833024e-01   9.9999998154388881e-01   9.9999849611706593e-01   9.9998157053910053e-01   9.9971441134318828e-01   9.9429770304168841e-01   9.9153360549936831e-01   8.3785207671148643e-01   9.6891103737808748e-01   5.9412586179331961e-01   9.8456925328798461e-01   5.7594669526858022e-01   9.9907378485120613e-01   8.0787927156943629e-01   9.9999278121229018e-01   9.9163150460047189e-01   9.9999999003174567e-01   9.9997286742674074e-01   9.9999999999137756e-01   9.9999998103867704e-01   9.9999999999989708e-01   9.9999999998101419e-01   9.9999999999977995e-01   9.9999999999856082e-01   9.9999999977763609e-01   9.9999999978280374e-01   9.9997753005026446e-01   9.9999169869778193e-01   5.5780640259868453e-01   7.1500525130866166e-01   1.0872700225614078e-03   3.5166473495125967e-03   9.3658616603005864e-09   2.5489539710414160e-08   3.9499884844455363e-13   8.1572711548479516e-13   8.3266726846886728e-17   1.2952601953960156e-16   0.0000000000000000e+00   0.0000000000000000e+00   0.0000000000000000e+00   0.0000000000000000e+00   0.0000000000000000e+00   0.0000000000000000e+00   0.0000000000000000e+00   0.0000000000000000e+00   0.0000000000000000e+00   0.0000000000000000e+00   0.0000000000000000e+00   0.0000000000000000e+00   0.0000000000000000e+00   0.0000000000000000e+00   0.0000000000000000e+00   0.0000000000000000e+00   0.0000000000000000e+00   0.0000000000000000e+00   0.0000000000000000e+00   0.0000000000000000e+00   0.0000000000000000e+00   0.0000000000000000e+00   0.0000000000000000e+00   0.0000000000000000e+00   0.0000000000000000e+00   0.0000000000000000e+00   0.0000000000000000e+00   0.0000000000000000e+00   0.00000000