<?xml version="1.0"?>
<VTKFile type="UnstructuredGrid"  version="0.1"  >
<UnstructuredGrid>
<Piece  NumberOfPoints="2394" NumberOfCells="4583">
<Points>
<DataArray  type="Float64"  NumberOfComponents="3"  format="ascii">1.734782608695652 0 0  1.743043478260869 0 0  1.743043478260869 0.008333333333333333 0  1.751304347826087 0 0  1.751304347826087 0.008333333333333333 0  1.759565217391304 0 0  1.759565217391304 0.008333333333333333 0  1.767826086956522 0 0  1.767826086956522 0.008333333333333333 0  1.776086956521739 0 0  1.776086956521739 0.008333333333333333 0  1.784347826086957 0 0  1.784347826086957 0.008333333333333333 0  1.792608695652174 0 0  1.792608695652174 0.008333333333333333 0  1.800869565217391 0 0  1.800869565217391 0.008333333333333333 0  1.809130434782608 0 0  1.809130434782608 0.008333333333333333 0  1.817391304347826 0 0  1.817391304347826 0.008333333333333333 0  1.825652173913043 0 0  1.825652173913043 0.008333333333333333 0  1.833913043478261 0 0  1.833913043478261 0.008333333333333333 0  1.842173913043478 0 0  1.842173913043478 0.008333333333333333 0  1.850434782608696 0 0  1.850434782608696 0.008333333333333333 0  1.858695652173913 0 0  1.858695652173913 0.008333333333333333 0  1.86695652173913 0 0  1.86695652173913 0.008333333333333333 0  1.875217391304348 0 0  1.875217391304348 0.008333333333333333 0  1.883478260869565 0 0  1.883478260869565 0.008333333333333333 0  1.891739130434782 0 0  1.891739130434782 0.008333333333333333 0  1.9 0 0  1.9 0.008333333333333333 0  1.908260869565217 0 0  1.908260869565217 0.008333333333333333 0  1.916521739130435 0 0  1.916521739130435 0.008333333333333333 0  1.924782608695652 0 0  1.924782608695652 0.008333333333333333 0  1.933043478260869 0 0  1.933043478260869 0.008333333333333333 0  1.941304347826087 0 0  1.941304347826087 0.008333333333333333 0  1.949565217391304 0 0  1.949565217391304 0.008333333333333333 0  1.957826086956522 0 0  1.957826086956522 0.008333333333333333 0  1.966086956521739 0 0  1.966086956521739 0.008333333333333333 0  1.974347826086956 0 0  1.974347826086956 0.008333333333333333 0  1.982608695652174 0 0  1.982608695652174 0.008333333333333333 0  1.990869565217391 0 0  1.990869565217391 0.008333333333333333 0  1.999130434782608 0 0  1.999130434782608 0.008333333333333333 0  2.007391304347826 0 0  2.007391304347826 0.008333333333333333 0  2.015652173913043 0 0  2.015652173913043 0.008333333333333333 0  2.023913043478261 0 0  2.023913043478261 0.008333333333333333 0  2.032173913043478 0 0  2.032173913043478 0.008333333333333333 0  2.040434782608695 0 0  2.040434782608695 0.008333333333333333 0  2.048695652173913 0 0  2.048695652173913 0.008333333333333333 0  2.05695652173913 0 0  2.05695652173913 0.008333333333333333 0  2.065217391304348 0 0  2.065217391304348 0.008333333333333333 0  2.073478260869565 0 0  2.073478260869565 0.008333333333333333 0  2.081739130434782 0 0  2.081739130434782 0.008333333333333333 0  2.09 0 0  2.09 0.008333333333333333 0  2.098260869565217 0 0  2.098260869565217 0.008333333333333333 0  2.106521739130435 0 0  2.106521739130435 0.008333333333333333 0  2.114782608695652 0 0  2.114782608695652 0.008333333333333333 0  2.12304347826087 0 0  2.12304347826087 0.008333333333333333 0  2.131304347826087 0 0  2.131304347826087 0.008333333333333333 0  2.139565217391304 0 0  2.139565217391304 0.008333333333333333 0  2.147826086956522 0 0  2.147826086956522 0.008333333333333333 0  1.751304347826087 0.01666666666666667 0  1.743043478260869 0.01666666666666667 0  1.759565217391304 0.01666666666666667 0  1.767826086956522 0.01666666666666667 0  1.776086956521739 0.01666666666666667 0  1.784347826086957 0.01666666666666667 0  1.792608695652174 0.01666666666666667 0  1.800869565217391 0.01666666666666667 0  1.809130434782608 0.01666666666666667 0  1.817391304347826 0.01666666666666667 0  1.825652173913043 0.01666666666666667 0  1.833913043478261 0.01666666666666667 0  1.842173913043478 0.01666666666666667 0  1.850434782608696 0.01666666666666667 0  1.858695652173913 0.01666666666666667 0  1.86695652173913 0.01666666666666667 0  1.875217391304348 0.01666666666666667 0  1.883478260869565 0.01666666666666667 0  1.891739130434782 0.01666666666666667 0  1.9 0.01666666666666667 0  1.908260869565217 0.01666666666666667 0  1.916521739130435 0.01666666666666667 0  1.924782608695652 0.01666666666666667 0  1.933043478260869 0.01666666666666667 0  1.941304347826087 0.01666666666666667 0  1.949565217391304 0.01666666666666667 0  1.957826086956522 0.01666666666666667 0  1.966086956521739 0.01666666666666667 0  1.974347826086956 0.01666666666666667 0  1.982608695652174 0.01666666666666667 0  1.990869565217391 0.01666666666666667 0  1.999130434782608 0.01666666666666667 0  2.007391304347826 0.01666666666666667 0  2.015652173913043 0.01666666666666667 0  2.023913043478261 0.01666666666666667 0  2.032173913043478 0.01666666666666667 0  2.040434782608695 0.01666666666666667 0  2.048695652173913 0.01666666666666667 0  2.05695652173913 0.01666666666666667 0  2.065217391304348 0.01666666666666667 0  2.073478260869565 0.01666666666666667 0  2.081739130434782 0.01666666666666667 0  2.09 0.01666666666666667 0  2.098260869565217 0.01666666666666667 0  2.106521739130435 0.01666666666666667 0  2.114782608695652 0.01666666666666667 0  2.12304347826087 0.01666666666666667 0  2.131304347826087 0.01666666666666667 0  2.139565217391304 0.01666666666666667 0  2.147826086956522 0.01666666666666667 0  2.156086956521739 0.01666666666666667 0  1.751304347826087 0.025 0  1.759565217391304 0.025 0  1.767826086956522 0.025 0  1.776086956521739 0.025 0  1.784347826086957 0.025 0  1.792608695652174 0.025 0  1.800869565217391 0.025 0  1.809130434782608 0.025 0  1.817391304347826 0.025 0  1.825652173913043 0.025 0  1.833913043478261 0.025 0  1.842173913043478 0.025 0  1.850434782608696 0.025 0  1.858695652173913 0.025 0  1.86695652173913 0.025 0  1.875217391304348 0.025 0  1.883478260869565 0.025 0  1.891739130434782 0.025 0  1.9 0.025 0  1.908260869565217 0.025 0  1.916521739130435 0.025 0  1.924782608695652 0.025 0  1.933043478260869 0.025 0  1.941304347826087 0.025 0  1.949565217391304 0.025 0  1.957826086956522 0.025 0  1.966086956521739 0.025 0  1.974347826086956 0.025 0  1.982608695652174 0.025 0  1.990869565217391 0.025 0  1.999130434782608 0.025 0  2.007391304347826 0.025 0  2.015652173913043 0.025 0  2.023913043478261 0.025 0  2.032173913043478 0.025 0  2.040434782608695 0.025 0  2.048695652173913 0.025 0  2.05695652173913 0.025 0  2.065217391304348 0.025 0  2.073478260869565 0.025 0  2.081739130434782 0.025 0  2.09 0.025 0  2.098260869565217 0.025 0  2.106521739130435 0.025 0  2.114782608695652 0.025 0  2.12304347826087 0.025 0  2.131304347826087 0.025 0  2.139565217391304 0.025 0  2.147826086956522 0.025 0  2.156086956521739 0.025 0  2.164347826086956 0.025 0  1.759565217391304 0.03333333333333333 0  1.767826086956522 0.03333333333333333 0  1.776086956521739 0.03333333333333333 0  1.784347826086957 0.03333333333333333 0  1.792608695652174 0.03333333333333333 0  1.800869565217391 0.03333333333333333 0  1.809130434782608 0.03333333333333333 0  1.817391304347826 0.03333333333333333 0  1.825652173913043 0.03333333333333333 0  1.833913043478261 0.03333333333333333 0  1.842173913043478 0.03333333333333333 0  1.850434782608696 0.03333333333333333 0  1.858695652173913 0.03333333333333333 0  1.86695652173913 0.03333333333333333 0  1.875217391304348 0.03333333333333333 0  1.883478260869565 0.03333333333333333 0  1.891739130434782 0.03333333333333333 0  1.9 0.03333333333333333 0  1.908260869565217 0.03333333333333333 0  1.916521739130435 0.03333333333333333 0  1.924782608695652 0.03333333333333333 0  1.933043478260869 0.03333333333333333 0  1.941304347826087 0.03333333333333333 0  1.949565217391304 0.03333333333333333 0  1.957826086956522 0.03333333333333333 0  1.966086956521739 0.03333333333333333 0  1.974347826086956 0.03333333333333333 0  1.982608695652174 0.03333333333333333 0  1.990869565217391 0.03333333333333333 0  1.999130434782608 0.03333333333333333 0  2.007391304347826 0.03333333333333333 0  2.015652173913043 0.03333333333333333 0  2.023913043478261 0.03333333333333333 0  2.032173913043478 0.03333333333333333 0  2.040434782608695 0.03333333333333333 0  2.048695652173913 0.03333333333333333 0  2.05695652173913 0.03333333333333333 0  2.065217391304348 0.03333333333333333 0  2.073478260869565 0.03333333333333333 0  2.081739130434782 0.03333333333333333 0  2.09 0.03333333333333333 0  2.098260869565217 0.03333333333333333 0  2.106521739130435 0.03333333333333333 0  2.114782608695652 0.03333333333333333 0  2.12304347826087 0.03333333333333333 0  2.131304347826087 0.03333333333333333 0  2.139565217391304 0.03333333333333333 0  2.147826086956522 0.03333333333333333 0  2.156086956521739 0.03333333333333333 0  2.164347826086956 0.03333333333333333 0  2.172608695652174 0.03333333333333333 0  1.767826086956522 0.04166666666666666 0  1.776086956521739 0.04166666666666666 0  1.784347826086957 0.04166666666666666 0  1.792608695652174 0.04166666666666666 0  1.800869565217391 0.04166666666666666 0  1.809130434782608 0.04166666666666666 0  1.817391304347826 0.04166666666666666 0  1.825652173913043 0.04166666666666666 0  1.833913043478261 0.04166666666666666 0  1.842173913043478 0.04166666666666666 0  1.850434782608696 0.04166666666666666 0  1.858695652173913 0.04166666666666666 0  1.86695652173913 0.04166666666666666 0  1.875217391304348 0.04166666666666666 0  1.883478260869565 0.04166666666666666 0  1.891739130434782 0.04166666666666666 0  1.9 0.04166666666666666 0  1.908260869565217 0.04166666666666666 0  1.916521739130435 0.04166666666666666 0  1.924782608695652 0.04166666666666666 0  1.933043478260869 0.04166666666666666 0  1.941304347826087 0.04166666666666666 0  1.949565217391304 0.04166666666666666 0  1.957826086956522 0.04166666666666666 0  1.966086956521739 0.04166666666666666 0  1.974347826086956 0.04166666666666666 0  1.982608695652174 0.04166666666666666 0  1.9908
[...]
<PointData  Vectors="Displacement"> 
<DataArray  type="Float64"  Name="Displacement"  NumberOfComponents="3" format="ascii">2.9573196120483180e-04 1.8421771521506831e-03 0.0000000000000000e+00  2.9627839368746893e-04 1.8564732139501061e-03 0.0000000000000000e+00  2.8171405815509383e-04 1.8562879624026214e-03 0.0000000000000000e+00  2.9691775128030099e-04 1.8708313138848410e-03 0.0000000000000000e+00  2.8228575488122503e-04 1.8706165394768034e-03 0.0000000000000000e+00  2.9763174406416355e-04 1.8853094091289835e-03 0.0000000000000000e+00  2.8290750245940735e-04 1.8850687325155323e-03 0.0000000000000000e+00  2.9838047718809308e-04 1.8999474772558296e-03 0.0000000000000000e+00  2.8356662202790598e-04 1.8996925109492286e-03 0.0000000000000000e+00  2.9910554135444665e-04 1.9147402870104617e-03 0.0000000000000000e+00  2.8424183979164331e-04 1.9144905968523057e-03 0.0000000000000000e+00  2.9975576495321228e-04 1.9296048494057284e-03 0.0000000000000000e+00  2.8491754448757827e-04 1.9293737460488601e-03 0.0000000000000000e+00  3.0032080792729838e-04 1.9443913346524550e-03 0.0000000000000000e+00  2.8560820375921970e-04 1.9441722400359413e-03 0.0000000000000000e+00  3.0079954195825652e-04 1.9589944166413581e-03 0.0000000000000000e+00  2.8631537616573917e-04 1.9587953053279419e-03 0.0000000000000000e+00  3.0120572600024573e-04 1.9732854160655149e-03 0.0000000000000000e+00  2.8703464532236816e-04 1.9731068674447446e-03 0.0000000000000000e+00  3.0158279540116458e-04 1.9871657281240193e-03 0.0000000000000000e+00  2.8776405385704640e-04 1.9869932588895255e-03 0.0000000000000000e+00  3.0197878576660082e-04 2.0006386267056764e-03 0.0000000000000000e+00  2.8849765327472151e-04 2.0004595937754719e-03 0.0000000000000000e+00  3.0242249949920572e-04 2.0137739131425667e-03 0.0000000000000000e+00  2.8923000169344678e-04 2.0135827487010038e-03 0.0000000000000000e+00  3.0291992919138640e-04 2.0266556574705967e-03 0.0000000000000000e+00  2.8995917366894257e-04 2.0264527944304843e-03 0.0000000000000000e+00  3.0346280063092826e-04 2.0393502045503702e-03 0.0000000000000000e+00  2.9068574409981936e-04 2.0391387666689070e-03 0.0000000000000000e+00  3.0403909894353146e-04 2.0518984227027941e-03 0.0000000000000000e+00  2.9141139994101313e-04 2.0516811820985928e-03 0.0000000000000000e+00  3.0463900903435453e-04 2.0643232465316196e-03 0.0000000000000000e+00  2.9213800783987101e-04 2.0641017958468429e-03 0.0000000000000000e+00  3.0525600442879441e-04 2.0766383631140076e-03 0.0000000000000000e+00  2.9286710181483395e-04 2.0764134893733405e-03 0.0000000000000000e+00  3.0588586864166179e-04 2.0888528081766120e-03 0.0000000000000000e+00  2.9359981378012989e-04 2.0886249285315146e-03 0.0000000000000000e+00  3.0652554126289039e-04 2.1009725793988874e-03 0.0000000000000000e+00  2.9433699460498141e-04 2.1007420234091111e-03 0.0000000000000000e+00  3.0717239051580961e-04 2.1130008187809054e-03 0.0000000000000000e+00  2.9507930586291400e-04 2.1127679945070203e-03 0.0000000000000000e+00  3.0782401227347016e-04 2.1249375180101390e-03 0.0000000000000000e+00  2.9582722678934324e-04 2.1247029532116043e-03 0.0000000000000000e+00  3.0847849462244158e-04 2.1367795115365780e-03 0.0000000000000000e+00  2.9658101826067165e-04 2.1365437500487044e-03 0.0000000000000000e+00  3.0913491864834221e-04 2.1485213612988312e-03 0.0000000000000000e+00  2.9734069960292371e-04 2.1482847685623382e-03 0.0000000000000000e+00  3.0979373138216424e-04 2.1601572334626730e-03 0.0000000000000000e+00  2.9810606362526735e-04 2.1599198378810212e-03 0.0000000000000000e+00  3.1045668808165271e-04 2.1716831829672800e-03 0.0000000000000000e+00  2.9887672820550046e-04 2.1714446647590063e-03 0.0000000000000000e+00  3.1112633100927159e-04 2.1830988934594744e-03 0.0000000000000000e+00  2.9965221235717153e-04 2.1828587305679791e-03 0.0000000000000000e+00  3.1180526957063113e-04 2.1944081837200619e-03 0.0000000000000000e+00  3.0043202407553784e-04 2.1941658521929626e-03 0.0000000000000000e+00  3.1249561347289334e-04 2.2056183247057383e-03 0.0000000000000000e+00  3.0121573902544096e-04 2.2053734339443887e-03 0.0000000000000000e+00  3.1319874579370711e-04 2.2167387918089550e-03 0.0000000000000000e+00  3.0200305129409003e-04 2.2164911101347526e-03 0.0000000000000000e+00  3.1391537910925094e-04 2.2277801152930116e-03 0.0000000000000000e+00  3.0279378816545455e-04 2.2275295297899248e-03 0.0000000000000000e+00  3.1464572330768367e-04 2.2387531066393744e-03 0.0000000000000000e+00  3.0358789549851510e-04 2.2384995797143539e-03 0.0000000000000000e+00  3.1538964192710816e-04 2.2496683925859839e-03 0.0000000000000000e+00  3.0438540635560114e-04 2.2494119399132308e-03 0.0000000000000000e+00  3.1614677368321619e-04 2.2605361109643354e-03 0.0000000000000000e+00  3.0518640817540969e-04 2.2602767871777734e-03 0.0000000000000000e+00  3.1691663569972256e-04 2.2713657251853280e-03 0.0000000000000000e+00  3.0599101683060281e-04 2.2711036051545107e-03 0.0000000000000000e+00  3.1769870990876550e-04 2.2821659651208986e-03 0.0000000000000000e+00  3.0679936051748957e-04 2.2819011241536008e-03 0.0000000000000000e+00  3.1849249647636092e-04 2.2929448720149970e-03 0.0000000000000000e+00  3.0761156995205778e-04 2.2926773757820651e-03 0.0000000000000000e+00  3.1929753189495187e-04 2.3037098768056803e-03 0.0000000000000000e+00  3.0842777403131518e-04 2.3034397784790057e-03 0.0000000000000000e+00  3.2011338414141287e-04 2.3144678682891166e-03 0.0000000000000000e+00  3.0924810211069298e-04 2.3141952047744437e-03 0.0000000000000000e+00  3.2093963171712415e-04 2.3252252430633422e-03 0.0000000000000000e+00  3.1007269633859442e-04 2.3249500271727498e-03 0.0000000000000000e+00  3.2177581354646669e-04 2.3359879266467874e-03 0.0000000000000000e+00  3.1090173480352617e-04 2.3357101454135536e-03 0.0000000000000000e+00  3.2262133191190463e-04 2.3467612977848581e-03 0.0000000000000000e+00  3.1173546172085783e-04 2.3464809340888108e-03 0.0000000000000000e+00  3.2347531734431406e-04 2.3575499058045980e-03 0.0000000000000000e+00  3.1257420823301501e-04 2.3572669957090862e-03 0.0000000000000000e+00  3.2433652951939393e-04 2.3683569041788666e-03 0.0000000000000000e+00  3.1341838280565690e-04 2.3680716091478344e-03 0.0000000000000000e+00  3.2520342103117665e-04 2.3791833212135184e-03 0.0000000000000000e+00  3.1426841999841314e-04 2.3788959583759981e-03 0.0000000000000000e+00  3.2607445472777153e-04 2.3900275570946624e-03 0.0000000000000000e+00  3.1512470341791605e-04 2.3897385328715813e-03 0.0000000000000000e+00  3.2694860175488320e-04 2.4008856127450688e-03 0.0000000000000000e+00  3.1598748513026029e-04 2.4005952815609800e-03 0.0000000000000000e+00  3.2782578372125609e-04 2.4117522555554961e-03 0.0000000000000000e+00  3.1685680638916921e-04 2.4114607998211995e-03 0.0000000000000000e+00  3.2870704368110514e-04 2.4226227870548277e-03 0.0000000000000000e+00  3.1773241627306608e-04 2.4223301906254073e-03 0.0000000000000000e+00  3.2959444357084136e-04 2.4334948016337481e-03 0.0000000000000000e+00  3.1861371884714504e-04 2.4332008736325391e-03 0.0000000000000000e+00  3.3049080743907016e-04 2.4443696082963920e-03 0.0000000000000000e+00  3.1949979492306010e-04 2.4440740008696967e-03 0.0000000000000000e+00  2.6756690458427002e-04 1.8704053851004209e-03 0.0000000000000000e+00  2.6705367967598591e-04 1.8561106294882046e-03 0.0000000000000000e+00  2.6811988247672449e-04 1.8848219976974336e-03 0.0000000000000000e+00  2.6871491701647852e-04 1.8994215950819343e-03 0.0000000000000000e+00  2.6935014125985826e-04 1.9142229331877111e-03 0.0000000000000000e+00  2.7004282332102015e-04 1.9291272911221042e-03 0.0000000000000000e+00  2.7083981003886475e-04 1.9438982829713862e-03 0.0000000000000000e+00  2.7176322933978014e-04 1.9585149605710092e-03 0.0000000000000000e+00  2.7281284516243861e-04 1.9728377356605844e-03 0.0000000000000000e+00  2.7393135541961479e-04 1.9867234589866969e-03 0.0000000000000000e+00  2.7502972161109817e-04 2.0001849391547625e-03 0.0000000000000000e+00  2.7605833765840848e-04 2.0133052685627774e-03 0.0000000000000000e+00  2.7701346294272891e-04 2.0261762747939738e-03 0.0000000000000000e+00  2.7791497273480984e-04 2.0388668122787229e-03 0.0000000000000000e+00  2.7878325640312622e-04 2.0514142999264900e-03 0.0000000000000000e+00  2.7963230043712389e-04 2.0638382719101660e-03 0.0000000000000000e+00  2.8047083418622959e-04 2.0761513333580738e-03 0.0000000000000000e+00  2.8130449389618877e-04 2.0883625748062918e-03 0.0000000000000000e+00  2.8213749428036443e-04 2.1004783710207057e-03 0.0000000000000000e+00  2.8297358409662659e-04 2.1125023932964575e-03 0.0000000000000000e+00  2.8381626414074470e-04 2.1244352225227251e-03 0.0000000000000000e+00  2.8466833817215339e-04 2.1362741087869036e-03 0.0000000000000000e+00  2.8553112879740536e-04 2.1480136395431990e-03 0.0000000000000000e+00  2.8640388301496542e-04 2.1596476321029839e-03 0.0000000000000000e+00  2.8728382393082097e-04 2.1711716752647880e-03 0.0000000000000000e+00  2.8816694452501107e-04 2.1825851698866368e-03 0.0000000000000000e+00  2.8904917954129881e-04 2.1938919420771770e-03 0.0000000000000000e+00  2.8992733672810573e-04 2.2050994375168460e-03 0.0000000000000000e+00  2.9079942875304669e-04 2.2162172762432747e-03 0.0000000000000000e+00  2.9166450795406549e-04 2.2272560150546471e-03 0.0000000000000000e+00  2.9252236022858722e-04 2.2382264228358035e-03 0.0000000000000000e+00  2.9337326539124174e-04 2.2491390963513334e-03 0.0000000000000000e+00  2.9421783232266852e-04 2.2600041736686696e-03 0.0000000000000000e+00  2.9505684377906255e-04 2.2708311200958283e-03 0.0000000000000000e+00  2.9589112099410412e-04 2.2816286471554026e-03 0.0000000000000000e+00  2.9672144199808696e-04 2.2924047704934347e-03 0.0000000000000000e+00  2.9754853063641601e-04 2.3031668990827841e-03 0.0000000000000000e+00  2.9837307195762139e-04 2.3139218893993606e-03 0.0000000000000000e+00  2.9919574756305864e-04 2.3246760699173257e-03 0.0000000000000000e+00  3.0001730445693777e-04 2.3354352581118698e-03 0.0000000000000000e+00  3.0083870189722518e-04 2.3462047265735628e-03 0.0000000000000000e+00  3.0166132599343450e-04 2.3569890178139182e-03 0.0000000000000000e+00  3.0248717951596675e-04 2.3677914679714482e-03 0.0000000000000000e+00  3.0331883016925795e-04 2.3786134559071362e-03 0.0000000000000000e+00  3.0415895398422241e-04 2.3894537184843004e-03 0.0000000000000000e+00  3.0500952886593891e-04 2.4003083916750529e-03 0.0000000000000000e+00  3.0587104265587589e-04 2.4111721953227788e-03 0.0000000000000000e+00  3.0674207679027855e-04 2.4220403971916740e-03 0.0000000000000000e+00  3.0761935935955874e-04 2.4329106424014675e-03 0.0000000000000000e+00  3.0849802713316620e-04 2.4437842366833869e-03 0.0000000000000000e+00  3.0937215777225753e-04 2.4546670398126573e-03 0.0000000000000000e+00  2.5280933160583025e-04 1.8702043778433184e-03 0.0000000000000000e+00  2.5326667887440150e-04 1.8845728798808990e-03 0.0000000000000000e+00  2.5375160988017493e-04 1.8991459641714344e-03 0.0000000000000000e+00  2.5425993589401615e-04 1.9139610152516019e-03 0.0000000000000000e+00  2.5487077632194003e-04 1.9288860603262411e-03 0.0000000000000000e+00  2.5577086534454970e-04 1.9436163631461026e-03 0.0000000000000000e+00  2.5677575059726598e-04 1.9581669038795297e-03 0.0000000000000000e+00  2.5820323014435923e-04 1.9724498071975122e-03 0.0000000000000000e+00  2.6001249145817852e-04 1.9863241161068184e-03 0.0000000000000000e+00  2.6170118165369548e-04 1.9998067477070749e-03 0.0000000000000000e+00  2.6308064979200678e-04 2.0129583343853558e-03 0.0000000000000000e+00  2.6421229024423392e-04 2.0258481510772395e-03 0.0000000000000000e+00  2.6522681077245533e-04 2.0385505531128273e-03 0.0000000000000000e+00  2.6619845307233761e-04 2.0511081541476476e-03 0.0000000000000000e+00  2.6714848317077545e-04 2.0635394169912268e-03 0.0000000000000000e+00  2.6808380151716900e-04 2.0758569356800647e-03 0.0000000000000000e+00  2.6900894610638795e-04 2.0880703641698068e-03 0.0000000000000000e+00  2.6992861836282542e-04 2.1001864387396969e-03 0.0000000000000000e+00  2.7084860747983951e-04 2.1122089854151878e-03 0.0000000000000000e+00  2.7177618608173449e-04 2.1241388791005417e-03 0.0000000000000000e+00  2.7271900761654914e-04 2.1359740257555597e-03 0.0000000000000000e+00  2.7368240818891510e-04 2.1477099378048518e-03 0.0000000000000000e+00  2.7466647233509851e-04 2.1593413279650960e-03 0.0000000000000000e+00  2.7566491566881471e-04 2.1708643566653732e-03 0.0000000000000000e+00  2.7666701412456520e-04 2.1822785114485369e-03 0.0000000000000000e+00  2.7766177439477374e-04 2.1935873030969437e-03 0.0000000000000000e+00  2.7864145122179527e-04 2.2047977121855519e-03 0.0000000000000000e+00  2.7960241078574331e-04 2.2159189735301522e-03 0.0000000000000000e+00  2.8054377906947550e-04 2.2269613684789912e-03 0.0000000000000000e+00  2.8146591751603705e-04 2.2379354390836968e-03 0.0000000000000000e+00  2.8236977026282193e-04 2.2488515843323261e-03 0.0000000000000000e+00  2.8325681697358542e-04 2.2597198215103440e-03 0.0000000000000000e+00  2.8412887606537679e-04 2.2705495793393796e-03 0.0000000000000000e+00  2.8498775338300068e-04 2.2813495856280870e-03 0.0000000000000000e+00  2.8583496146573244e-04 2.2921278692330550e-03 0.0000000000000000e+00  2.8667177934621929e-04 2.3028918468610375e-03 0.0000000000000000e+00  2.8749936515416405e-04 2.3136483817269896e-03 0.0000000000000000e+00  2.8831879962326769e-04 2.3244037990100188e-03 0.0000000000000000e+00  2.8913107736318138e-04 2.3351638575874862e-03 0.0000000000000000e+00  2.8993731165962154e-04 2.3459336696228603e-03 0.0000000000000000e+00  2.9073926589828520e-04 2.3567174942957301e-03 0.0000000000000000e+00  2.9154024452622822e-04 2.3675183687708050e-03 0.0000000000000000e+00  2.9234568886550436e-04 2.3783375691782743e-03 0.0000000000000000e+00  2.9316263977466442e-04 2.3891741120756335e-03 0.0000000000000000e+00  2.9399749948878464e-04 2.4000247296834271e-03 0.0000000000000000e+00  2.9485314116333566e-04 2.4108848168607993e-03 0.0000000000000000e+00  2.9572727747796169e-04 2.4217502361955664e-03 0.0000000000000000e+00  2.9661314012398098e-04 2.4326192156275848e-03 0.0000000000000000e+00  2.9750067562283044e-04 2.4434936621794152e-03 0.0000000000000000e+00  2.9837733569879575e-04 2.4543798760652442e-03 0.0000000000000000e+00  2.9922956915566208e-04 2.4652887659165974e-03 0.0000000000000000e+00  2.3839361467651874e-04 1.8843471610642062e-03 0.0000000000000000e+00  2.3869648677318433e-04 1.8989045055230168e-03 0.0000000000000000e+00  2.3896710609161277e-04 1.9137668026188463e-03 0.0000000000000000e+00  2.3929059503344417e-04 1.9287231478699091e-03 0.0000000000000000e+00  2.4030246158646427e-04 1.9433733566713125e-03 0.0000000000000000e+00  2.4208888802614543e-04 1.9578300574422339e-03 0.0000000000000000e+00  2.4372453057897291e-04 1.9713028209011867e-03 0.0000000000000000e+00  2.4551244054396261e-04 1.9848331048184236e-03 0.0000000000000000e+00  2.4732261870705240e-04 1.9983415446400707e-03 0.0000000000000000e+00  2.4911562457318739e-04 2.0118104414313508e-03 0.0000000000000000e+00  2.5093247451096534e-04 2.0253073801242832e-03 0.0000000000000000e+00  2.5237703164312283e-04 2.0381968821939463e-03 0.0000000000000000e+00  2.5352411934527269e-04 2.0507813651705559e-03 0.0000000000000000e+00  2.5460529282882893e-04 2.0632217547321518e-03 0.0000000000000000e+00  2.5565605983124629e-04 2.0755445829976856e-03 0.0000000000000000e+00  2.5668588117145030e-04 2.0877613170471720e-03 0.0000000000000000e+00  2.5770211843150219e-04 2.0998786015137246e-03 0.0000000000000000e+00  2.5871131514047135e-04 2.1118991475945147e-03 0.0000000000000000e+00  2.5971621747259213e-04 2.1238209455183140e-03 0.0000000000000000e+00  2.6070683136542684e-04 2.1356360045413107e-03 0.0000000000000000e+00  2.6166009973645394e-04 2.1473318488761349e-03 0.0000000000000000e+00  2.6257592545598233e-04 2.1589029271339949e-03 0.0000000000000000e+00  2.6349207065127437e-04 2.1703637185783676e-03 0.0000000000000000e+00  2.6444444836330662e-04 2.1817363827436507e-03 0.0000000000000000e+00  2.6544243595591374e-04 2.1930323026809534e-03 0.0000000000000000e+00  2.6647366421302430e-04 2.2042522298025002e-03 0.0000000000000000e+00  2.6751705341484063e-04 2.2153946328825674e-03 0.0000000000000000e+00  2.6855319428759918e-04 2.2264615660482581e-03 0.0000000000000000e+00  2.6956820488449737e-04 2.2374592558876520e-03 0.0000000000000000e+00  2.7055222711776635e-04 2.2483957414724770e-03 0.0000000000000000e+00  2.7149806784925259e-04 2.2592794144301620e-03 0.0000000000000000e+00  2.7240175073985881e-04 2.2701189026405337e-03 0.0000000000000000e+00  2.7326292838409830e-04 2.2809230956709367e-03 0.0000000000000000e+00  2.7408324566049081e-04 2.2917005947567393e-03 0.0000000000000000e+00  2.7486408400822783e-04 2.3024590362628970e-03 0.0000000000000000e+00  2.7560597992763020e-04 2.3132050590082961e-03 0.0000000000000000e+00  2.7630907281322022e-04 2.3239445821481523e-03 0.0000000000000000e+00  2.7697285511883425e-04 2.3346826605943624e-03 0.0000000000000000e+00  2.7759549551967499e-04 2.3454226534893935e-03 0.0000000000000000e+00  2.7817441728275491e-04 2.3561644987763128e-03 0.0000000000000000e+00  2.7871251107731558e-04 2.3669044185782818e-03 0.0000000000000000e+00  2.7922918552968274e-04 2.3776398107433990e-03 0.0000000000000000e+00  2.7976343493176377e-04 2.3883779661447416e-03 0.0000000000000000e+00  2.8035512083566481e-04 2.3991343911948502e-03 0.0000000000000000e+00  2.8102184431220669e-04 2.4099191055181159e-03 0.0000000000000000e+00  2.8175711273910147e-04 2.4207317539337203e-03 0.0000000000000000e+00  2.8254313917786244e-04 2.4315686558630668e-03 0.0000000000000000e+00  2.8336093541520485e-04 2.4424291641514887e-03 0.0000000000000000e+00  2.8419415461176473e-04 2.4533175994443774e-03 0.0000000000000000e+00  2.8503020683182443e-04 2.4642430855858917e-03 0.0000000000000000e+00  2.8586091833432572e-04 2.4752190377481508e-03 0.0000000000000000e+00  2.2381991513270228e-04 1.8986424181111055e-03 0.0000000000000000e+00  2.2392915685987388e-04 1.9135741055696864e-03 0.0000000000000000e+00  2.2404797473966662e-04 1.9285824839773761e-03 0.0000000000000000e+00  2.2587359810770765e-04 1.9423222563228865e-03 0.0000000000000000e+00  2.2774685239227425e-04 1.9562440327428776e-03 0.0000000000000000e+00  2.2959223325189423e-04 1.9698716262480662e-03 0.0000000000000000e+00  2.3130597782879383e-04 1.9833811597558958e-03 0.0000000000000000e+00  2.3297329074418568e-04 1.9968595521991624e-03 0.0000000000000000e+00  2.3459750360531255e-04 2.0102858590038950e-03 0.0000000000000000e+00  2.3617524024855218e-04 2.0236330963385482e-03 0.0000000000000000e+00  2.3766774825683914e-04 2.0366748165630551e-03 0.0000000000000000e+00  2.3899090447832333e-04 2.0494228512676869e-03 0.0000000000000000e+00  2.4018948612337853e-04 2.0619534646101672e-03 0.0000000000000000e+00  2.4131564791468678e-04 2.0743346640261515e-03 0.0000000000000000e+00  2.4239499415162674e-04 2.0865926894395133e-03 0.0000000000000000e+00  2.4344202788700395e-04 2.0987390222177117e-03 0.0000000000000000e+00  2.4446601822566749e-04 2.1107789998823898e-03 0.0000000000000000e+00  2.4547231234629130e-04 2.1227139307637278e-03 0.0000000000000000e+00  2.4646221360124902e-04 2.1345416985010454e-03 0.0000000000000000e+00  2.4743436229656427e-04 2.1462565244527729e-03 0.0000000000000000e+00  2.4838996874926587e-04 2.1578514771527549e-03 0.0000000000000000e+00  2.4933707992914412e-04 2.1693298563684304e-03 0.0000000000000000e+00  2.5028740651411845e-04 2.1807077126210165e-03 0.0000000000000000e+00  2.5124862753144459e-04 2.1920011875470277e-03 0.0000000000000000e+00  2.5222019019616155e-04 2.2032193057561185e-03 0.0000000000000000e+00  2.5319488583582992e-04 2.2143659599795709e-03 0.0000000000000000e+00  2.5416286598862743e-04 2.2254441314173180e-03 0.0000000000000000e+00  2.5511490167603638e-04 2.2364582674151679e-03 0.0000000000000000e+00  2.5604371325273857e-04 2.2474144039849441e-03 0.0000000000000000e+00  2.5694406039851019e-04 2.2583193509769194e-03 0.0000000000000000e+