<?xml version="1.0"?>
<VTKFile type="UnstructuredGrid"  version="0.1"  >
<UnstructuredGrid>
<Piece  NumberOfPoints="2394" NumberOfCells="4583">
<Points>
<DataArray  type="Float64"  NumberOfComponents="3"  format="ascii">1.734782608695652 0 0  1.743043478260869 0 0  1.743043478260869 0.008333333333333333 0  1.751304347826087 0 0  1.751304347826087 0.008333333333333333 0  1.759565217391304 0 0  1.759565217391304 0.008333333333333333 0  1.767826086956522 0 0  1.767826086956522 0.008333333333333333 0  1.776086956521739 0 0  1.776086956521739 0.008333333333333333 0  1.784347826086957 0 0  1.784347826086957 0.008333333333333333 0  1.792608695652174 0 0  1.792608695652174 0.008333333333333333 0  1.800869565217391 0 0  1.800869565217391 0.008333333333333333 0  1.809130434782608 0 0  1.809130434782608 0.008333333333333333 0  1.817391304347826 0 0  1.817391304347826 0.008333333333333333 0  1.825652173913043 0 0  1.825652173913043 0.008333333333333333 0  1.833913043478261 0 0  1.833913043478261 0.008333333333333333 0  1.842173913043478 0 0  1.842173913043478 0.008333333333333333 0  1.850434782608696 0 0  1.850434782608696 0.008333333333333333 0  1.858695652173913 0 0  1.858695652173913 0.008333333333333333 0  1.86695652173913 0 0  1.86695652173913 0.008333333333333333 0  1.875217391304348 0 0  1.875217391304348 0.008333333333333333 0  1.883478260869565 0 0  1.883478260869565 0.008333333333333333 0  1.891739130434782 0 0  1.891739130434782 0.008333333333333333 0  1.9 0 0  1.9 0.008333333333333333 0  1.908260869565217 0 0  1.908260869565217 0.008333333333333333 0  1.916521739130435 0 0  1.916521739130435 0.008333333333333333 0  1.924782608695652 0 0  1.924782608695652 0.008333333333333333 0  1.933043478260869 0 0  1.933043478260869 0.008333333333333333 0  1.941304347826087 0 0  1.941304347826087 0.008333333333333333 0  1.949565217391304 0 0  1.949565217391304 0.008333333333333333 0  1.957826086956522 0 0  1.957826086956522 0.008333333333333333 0  1.966086956521739 0 0  1.966086956521739 0.008333333333333333 0  1.974347826086956 0 0  1.974347826086956 0.008333333333333333 0  1.982608695652174 0 0  1.982608695652174 0.008333333333333333 0  1.990869565217391 0 0  1.990869565217391 0.008333333333333333 0  1.999130434782608 0 0  1.999130434782608 0.008333333333333333 0  2.007391304347826 0 0  2.007391304347826 0.008333333333333333 0  2.015652173913043 0 0  2.015652173913043 0.008333333333333333 0  2.023913043478261 0 0  2.023913043478261 0.008333333333333333 0  2.032173913043478 0 0  2.032173913043478 0.008333333333333333 0  2.040434782608695 0 0  2.040434782608695 0.008333333333333333 0  2.048695652173913 0 0  2.048695652173913 0.008333333333333333 0  2.05695652173913 0 0  2.05695652173913 0.008333333333333333 0  2.065217391304348 0 0  2.065217391304348 0.008333333333333333 0  2.073478260869565 0 0  2.073478260869565 0.008333333333333333 0  2.081739130434782 0 0  2.081739130434782 0.008333333333333333 0  2.09 0 0  2.09 0.008333333333333333 0  2.098260869565217 0 0  2.098260869565217 0.008333333333333333 0  2.106521739130435 0 0  2.106521739130435 0.008333333333333333 0  2.114782608695652 0 0  2.114782608695652 0.008333333333333333 0  2.12304347826087 0 0  2.12304347826087 0.008333333333333333 0  2.131304347826087 0 0  2.131304347826087 0.008333333333333333 0  2.139565217391304 0 0  2.139565217391304 0.008333333333333333 0  2.147826086956522 0 0  2.147826086956522 0.008333333333333333 0  1.751304347826087 0.01666666666666667 0  1.743043478260869 0.01666666666666667 0  1.759565217391304 0.01666666666666667 0  1.767826086956522 0.01666666666666667 0  1.776086956521739 0.01666666666666667 0  1.784347826086957 0.01666666666666667 0  1.792608695652174 0.01666666666666667 0  1.800869565217391 0.01666666666666667 0  1.809130434782608 0.01666666666666667 0  1.817391304347826 0.01666666666666667 0  1.825652173913043 0.01666666666666667 0  1.833913043478261 0.01666666666666667 0  1.842173913043478 0.01666666666666667 0  1.850434782608696 0.01666666666666667 0  1.858695652173913 0.01666666666666667 0  1.86695652173913 0.01666666666666667 0  1.875217391304348 0.01666666666666667 0  1.883478260869565 0.01666666666666667 0  1.891739130434782 0.01666666666666667 0  1.9 0.01666666666666667 0  1.908260869565217 0.01666666666666667 0  1.916521739130435 0.01666666666666667 0  1.924782608695652 0.01666666666666667 0  1.933043478260869 0.01666666666666667 0  1.941304347826087 0.01666666666666667 0  1.949565217391304 0.01666666666666667 0  1.957826086956522 0.01666666666666667 0  1.966086956521739 0.01666666666666667 0  1.974347826086956 0.01666666666666667 0  1.982608695652174 0.01666666666666667 0  1.990869565217391 0.01666666666666667 0  1.999130434782608 0.01666666666666667 0  2.007391304347826 0.01666666666666667 0  2.015652173913043 0.01666666666666667 0  2.023913043478261 0.01666666666666667 0  2.032173913043478 0.01666666666666667 0  2.040434782608695 0.01666666666666667 0  2.048695652173913 0.01666666666666667 0  2.05695652173913 0.01666666666666667 0  2.065217391304348 0.01666666666666667 0  2.073478260869565 0.01666666666666667 0  2.081739130434782 0.01666666666666667 0  2.09 0.01666666666666667 0  2.098260869565217 0.01666666666666667 0  2.106521739130435 0.01666666666666667 0  2.114782608695652 0.01666666666666667 0  2.12304347826087 0.01666666666666667 0  2.131304347826087 0.01666666666666667 0  2.139565217391304 0.01666666666666667 0  2.147826086956522 0.01666666666666667 0  2.156086956521739 0.01666666666666667 0  1.751304347826087 0.025 0  1.759565217391304 0.025 0  1.767826086956522 0.025 0  1.776086956521739 0.025 0  1.784347826086957 0.025 0  1.792608695652174 0.025 0  1.800869565217391 0.025 0  1.809130434782608 0.025 0  1.817391304347826 0.025 0  1.825652173913043 0.025 0  1.833913043478261 0.025 0  1.842173913043478 0.025 0  1.850434782608696 0.025 0  1.858695652173913 0.025 0  1.86695652173913 0.025 0  1.875217391304348 0.025 0  1.883478260869565 0.025 0  1.891739130434782 0.025 0  1.9 0.025 0  1.908260869565217 0.025 0  1.916521739130435 0.025 0  1.924782608695652 0.025 0  1.933043478260869 0.025 0  1.941304347826087 0.025 0  1.949565217391304 0.025 0  1.957826086956522 0.025 0  1.966086956521739 0.025 0  1.974347826086956 0.025 0  1.982608695652174 0.025 0  1.990869565217391 0.025 0  1.999130434782608 0.025 0  2.007391304347826 0.025 0  2.015652173913043 0.025 0  2.023913043478261 0.025 0  2.032173913043478 0.025 0  2.040434782608695 0.025 0  2.048695652173913 0.025 0  2.05695652173913 0.025 0  2.065217391304348 0.025 0  2.073478260869565 0.025 0  2.081739130434782 0.025 0  2.09 0.025 0  2.098260869565217 0.025 0  2.106521739130435 0.025 0  2.114782608695652 0.025 0  2.12304347826087 0.025 0  2.131304347826087 0.025 0  2.139565217391304 0.025 0  2.147826086956522 0.025 0  2.156086956521739 0.025 0  2.164347826086956 0.025 0  1.759565217391304 0.03333333333333333 0  1.767826086956522 0.03333333333333333 0  1.776086956521739 0.03333333333333333 0  1.784347826086957 0.03333333333333333 0  1.792608695652174 0.03333333333333333 0  1.800869565217391 0.03333333333333333 0  1.809130434782608 0.03333333333333333 0  1.817391304347826 0.03333333333333333 0  1.825652173913043 0.03333333333333333 0  1.833913043478261 0.03333333333333333 0  1.842173913043478 0.03333333333333333 0  1.850434782608696 0.03333333333333333 0  1.858695652173913 0.03333333333333333 0  1.86695652173913 0.03333333333333333 0  1.875217391304348 0.03333333333333333 0  1.883478260869565 0.03333333333333333 0  1.891739130434782 0.03333333333333333 0  1.9 0.03333333333333333 0  1.908260869565217 0.03333333333333333 0  1.916521739130435 0.03333333333333333 0  1.924782608695652 0.03333333333333333 0  1.933043478260869 0.03333333333333333 0  1.941304347826087 0.03333333333333333 0  1.949565217391304 0.03333333333333333 0  1.957826086956522 0.03333333333333333 0  1.966086956521739 0.03333333333333333 0  1.974347826086956 0.03333333333333333 0  1.982608695652174 0.03333333333333333 0  1.990869565217391 0.03333333333333333 0  1.999130434782608 0.03333333333333333 0  2.007391304347826 0.03333333333333333 0  2.015652173913043 0.03333333333333333 0  2.023913043478261 0.03333333333333333 0  2.032173913043478 0.03333333333333333 0  2.040434782608695 0.03333333333333333 0  2.048695652173913 0.03333333333333333 0  2.05695652173913 0.03333333333333333 0  2.065217391304348 0.03333333333333333 0  2.073478260869565 0.03333333333333333 0  2.081739130434782 0.03333333333333333 0  2.09 0.03333333333333333 0  2.098260869565217 0.03333333333333333 0  2.106521739130435 0.03333333333333333 0  2.114782608695652 0.03333333333333333 0  2.12304347826087 0.03333333333333333 0  2.131304347826087 0.03333333333333333 0  2.139565217391304 0.03333333333333333 0  2.147826086956522 0.03333333333333333 0  2.156086956521739 0.03333333333333333 0  2.164347826086956 0.03333333333333333 0  2.172608695652174 0.03333333333333333 0  1.767826086956522 0.04166666666666666 0  1.776086956521739 0.04166666666666666 0  1.784347826086957 0.04166666666666666 0  1.792608695652174 0.04166666666666666 0  1.800869565217391 0.04166666666666666 0  1.809130434782608 0.04166666666666666 0  1.817391304347826 0.04166666666666666 0  1.825652173913043 0.04166666666666666 0  1.833913043478261 0.04166666666666666 0  1.842173913043478 0.04166666666666666 0  1.850434782608696 0.04166666666666666 0  1.858695652173913 0.04166666666666666 0  1.86695652173913 0.04166666666666666 0  1.875217391304348 0.04166666666666666 0  1.883478260869565 0.04166666666666666 0  1.891739130434782 0.04166666666666666 0  1.9 0.04166666666666666 0  1.908260869565217 0.04166666666666666 0  1.916521739130435 0.04166666666666666 0  1.924782608695652 0.04166666666666666 0  1.933043478260869 0.04166666666666666 0  1.941304347826087 0.04166666666666666 0  1.949565217391304 0.04166666666666666 0  1.957826086956522 0.04166666666666666 0  1.966086956521739 0.04166666666666666 0  1.974347826086956 0.04166666666666666 0  1.982608695652174 0.04166666666666666 0  1.9908
[...]
<CellData  Scalars="rho_bar"> 
<DataArray  type="Float64"  Name="rho_bar"  format="ascii">9.9999999999999989e-01   9.9999999999999989e-01   9.9999999999999989e-01   9.9999999999999989e-01   1.0000000000000000e+00   9.9999999999998568e-01   9.9999999999999456e-01   9.9999999999412670e-01   9.9999999999767908e-01   9.9999999828066810e-01   9.9999999913756454e-01   9.9999982925993303e-01   9.9999987904252052e-01   9.9999553093136861e-01   9.9999542498302896e-01   9.9996455565074449e-01   9.9994963987030616e-01   9.9988707959563972e-01   9.9979306206287388e-01   9.9981378791932618e-01   9.9959032184290197e-01   9.9980148394285007e-01   9.9951221488716946e-01   9.9983461950492836e-01   9.9957411696306864e-01   9.9987428331903017e-01   9.9967687039787234e-01   9.9990314545674552e-01   9.9975796487163748e-01   9.9991985601502820e-01   9.9980718744648989e-01   9.9992695562050049e-01   9.9983098665699099e-01   9.9992644128412733e-01   9.9983558856368371e-01   9.9991910753554625e-01   9.9982395633005638e-01   9.9990499102010466e-01   9.9979662777360712e-01   9.9988398977181969e-01   9.9975320492028841e-01   9.9985667493886821e-01   9.9969418853434155e-01   9.9982490169723903e-01   9.9962270165664713e-01   9.9979199224513982e-01   9.9954544680549007e-01   9.9976192905227956e-01   9.9947162833250103e-01   9.9973813855519966e-01   9.9941023607117507e-01   9.9972219212580393e-01   9.9936673659678998e-01   9.9971368786404946e-01   9.9934166944823111e-01   9.9971081692643660e-01   9.9933155470136448e-01   9.9971145112054050e-01   9.9933132942356673e-01   9.9971362670624886e-01   9.9933608939742891e-01   9.9971584162374338e-01   9.9934194528763665e-01   9.9971692834558090e-01   9.9934592718369208e-01   9.9971619340755646e-01   9.9934606263741921e-01   9.9971318014506827e-01   9.9934113257995960e-01   9.9970764690305769e-01   9.9933047664720409e-01   9.9969928046281775e-01   9.9931348048021096e-01   9.9968778951995219e-01   9.9928950553297868e-01   9.9967262373932009e-01   9.9925753414325691e-01   9.9965297667510178e-01   9.9921596447647387e-01   9.9962746202796504e-01   9.9916208992097855e-01   9.9959414515337908e-01   9.9909184865911238e-01   9.9955043931689713e-01   9.9899956341405438e-01   9.9949377547458618e-01   9.9887885459057024e-01   9.9942238300015229e-01   9.9872430568028114e-01   9.9933706453863203e-01   9.9853497544449021e-01   9.9924235839597686e-01   9.9831794586579714e-01   9.9914731861126160e-01   9.9809082842532715e-01   9.9906445934044696e-01   9.9788086832309930e-01   9.9900743027207550e-01   9.9772065268034149e-01   9.9999999999999989e-01   9.9999999999999989e-01   9.9999999999999878e-01   9.9999999999999900e-01   9.9999999999910028e-01   9.9999999999935030e-01   9.9999999839909914e-01   9.9999999855944122e-01   9.9999853760984891e-01   9.9999783077092297e-01   9.9976266718121898e-01   9.9936422101679290e-01   9.9422446884238436e-01   9.7501277846882028e-01   9.6841061068317691e-01   8.4165556954449761e-01   9.3352568311671469e-01   6.8707090358911571e-01   9.2149781900359662e-01   6.2395617946013093e-01   9.3303100298995623e-01   6.4027647475610994e-01   9.5220968967185049e-01   7.0195635884483254e-01   9.6697234729364490e-01   7.7293622488053892e-01   9.7571239485147376e-01   8.2719062495708540e-01   9.8016086864737495e-01   8.5985480086652044e-01   9.8174601468109413e-01   8.7492254254996249e-01   9.8114782613731610e-01   8.7621128293288952e-01   9.7855792462961377e-01   8.6575476925136463e-01   9.7393988352484739e-01   8.4472859738873451e-01   9.6732531129519173e-01   8.1488367166255626e-01   9.5906588490391431e-01   7.7947472982799704e-01   9.4998769187388554e-01   7.4302880533973925e-01   9.4124373602538658e-01   7.1004948553817671e-01   9.3397154958802209e-01   6.8375237521561416e-01   9.2885151512642705e-01   6.6544836863387802e-01   9.2595245306922691e-01   6.5471953239946090e-01   9.2483154874964402e-01   6.4998492404007480e-01   9.2488295573678636e-01   6.4928735632209167e-01   9.2554286199488645e-01   6.5085606293257392e-01   9.2640325419538849e-01   6.5336784638988588e-01   9.2713991595163880e-01   6.5584058098106646e-01   9.2753345335721493e-01   6.5754183703806646e-01   9.2743231058349085e-01   6.5795193682429698e-01   9.2678731463059094e-01   6.5682447969427471e-01   9.2556724321821993e-01   6.5409102153325849e-01   9.2376377775789686e-01   6.4977663123803930e-01   9.2133529208533649e-01   6.4389186214916094e-01   9.1823273200712896e-01   6.3643345882561309e-01   9.1432891940350880e-01   6.2730086463121704e-01   9.0942161083682649e-01   6.1625804993653643e-01   9.0315161732107296e-01   6.0284456141245524e-01   8.9509969204197914e-01   5.8650572751522845e-01   8.8491312962547886e-01   5.6691202607256841e-01   8.7265540999515689e-01   5.4449311311022097e-01   8.5897590870715335e-01   5.2065297571852165e-01   8.4511349405681035e-01   4.9747519942251450e-01   8.3251217746163053e-01   4.7700465443984186e-01   8.2253427576822369e-01   4.6077549361725939e-01   8.1626872026210928e-01   4.4978621620630904e-01   4.4467350296218994e-01   9.9999999999999922e-01   9.9999999999963718e-01   9.9999999999966005e-01   9.9999999753507940e-01   9.9999999782287807e-01   9.9995263879961127e-01   9.9993985195359203e-01   8.5589027191757872e-01   7.8322575495215452e-01   5.7500938889336406e-01   3.1299000643612718e-01   1.9469570484611218e-01   2.3976882384477372e-02   3.7703826306298045e-02   1.5709001281650110e-03   1.5565377345481829e-02   4.6645106926605312e-04   1.3070107379688280e-02   3.4484945573818687e-04   1.7337113032513826e-02   4.5188101125886077e-04   2.8587215617166768e-02   8.0123603330643312e-04   4.6775300796608153e-02   1.5219113471303114e-03   6.7896585355506911e-02   2.5636579292775867e-03   8.5708582803582983e-02   3.6529837999581911e-03   9.5064539834787284e-02   4.4134510704050183e-03   9.4005956910911695e-02   4.5660198869448450e-03   8.4236617424852028e-02   4.1146773612813397e-03   6.9894703698732477e-02   3.3297120778969136e-03   5.5244727021595767e-02   2.5203777430066647e-03   4.2948927981454318e-02   1.8638654322495618e-03   3.3831888778585006e-02   1.3975224923854683e-03   2.7626693929642017e-02   1.0916657433565622e-03   2.3703872919856449e-02   9.0267402762768856e-04   2.1443116213968941e-02   7.9449239173363473e-04   2.0330732220812598e-02   7.4042787838702717e-04   1.9963682913440473e-02   7.2128404098480592e-04   2.0036540527764147e-02   7.2273658398835916e-04   2.0335693737384600e-02   7.3501152787189272e-04   2.0714654449284421e-02   7.5157407387252417e-04   2.1062867567262770e-02   7.6806922659197762e-04   2.1288275833994130e-02   7.8050239337612581e-04   2.1328410606927199e-02   7.8594950543956876e-04   2.1158766161674353e-02   7.8275202335780403e-04   2.0786135722936659e-02   7.7118470339671940e-04   2.0226714045050484e-02   7.5194067470166215e-04   1.9500701560406019e-02   7.2606906652288483e-04   1.8626328946282508e-02   6.9436473556023592e-04   1.7615846180388802e-02   6.5772124738398363e-04   1.6464893497963116e-02   6.1622274134702948e-04   1.5151965972919273e-02   5.6926280769396364e-04   1.3657176779623111e-02   5.1539858276549344e-04   1.2008335536300891e-02   4.5453659045848382e-04   1.0310195646717134e-02   3.8952525690124268e-04   8.7185397105951079e-03   3.2646340611809194e-04   7.3672126954908070e-03   2.7148732448769214e-04   6.3222270895754067e-03   2.2817584244088276e-04   5.5883741628920680e-03   1.9701369493903739e-04   5.1479108064275969e-03   1.7710513920248436e-04   4.9843308781665398e-03   1.6752453792820424e-04   1.6784338345581421e-04   9.9999999932930050e-01   9.9994771790666281e-01   9.9996333652738112e-01   6.5804022506771487e-01   6.5950628047107562e-01   5.0130612592615420e-02   2.7027867897462667e-02   1.6169529514710922e-05   3.3348183153629014e-06   7.5920622538694347e-08   6.5752457090173513e-09   4.9518089351163744e-09   1.7480934292694411e-10   2.1106821568306340e-09   3.5003000498079466e-11   2.6370076677828531e-09   2.6677771103322808e-11   5.5113328067957221e-09   4.3286827825876146e-11   1.4087914806948375e-08   9.9221399615008922e-11   3.2790825036747386e-08   2.4978058510427559e-10   5.9063746791580364e-08   5.0448386209230479e-10   8.3605919816894441e-08   7.8511519507884476e-10   9.6019931422608425e-08   9.7465703100911116e-10   9.1204232009293522e-08   9.8093796048933248e-10   7.3728579436105335e-08   8.1666010065539741e-10   5.3206863313374563e-08   5.8817509196451557e-10   3.6358983074302742e-08   3.9107529251995271e-10   2.4863526839243495e-08   2.5634218821698102e-10   1.7734885449094400e-08   1.7435093184007633e-10   1.3547399257962667e-08   1.2708932980072990e-10   1.1231573800637069e-08   1.0111146179584787e-10   1.0103065245514742e-08   8.8208098233029857e-11   9.7226499814103314e-09   8.3483016795800781e-11   9.7824110848835720e-09   8.3654342712217528e-11   1.0062920348848554e-08   8.6345948909401685e-11   1.0428366401897073e-08   8.9981207670083053e-11   1.0804929488165506e-08   9.3798644777246906e-11   1.1134218584156011e-08   9.7329237262281738e-11   1.1354756930999819e-08   1.0002398909136900e-10   1.1421330622004197e-08   1.0131260645233435e-10   1.1327946377222748e-08   1.0100982087794344e-10   1.1097029276966689e-08   9.9305785816738990e-11   1.0752470071725046e-08   9.6511928078986843e-11   1.0313625444421007e-08   9.2808464617159344e-11   9.8006974758035881e-09   8.8402017187997727e-11   9.2297103478540950e-09   8.3481480987283378e-11   8.6013828652179801e-09   7.8166963642563772e-11   7.8861795519783832e-09   7.2266489089164081e-11   7.0380037631156966e-09   6.5272250567479263e-11   6.0461710638115562e-09   5.6726049783388044e-11   4.9891157316572787e-09   4.7001772844149998e-11   4.0050314546273090e-09   3.7406790627988088e-11   3.2034901120692175e-09   2.9312348844475374e-11   2.6168659276552359e-09   2.3296540622534199e-11   2.2238493454137154e-09   1.9215462554456050e-11   1.9952045293702972e-09   1.6703064857163476e-11   1.9147303557491093e-09   1.5532612233452408e-11   1.9795917127751750e-09   1.5633189187624904e-11   1.7072769124363650e-11   7.6728751412866336e-01   2.7566357320396036e-02   4.6516569335576310e-02   2.0954417158843461e-07   1.9926493289671812e-07   2.0655884410321807e-11   9.8974902347966544e-12   3.3815542958374551e-14   8.0861243626865531e-15   5.7361522938966425e-16   6.4763009769800802e-17   6.4763009769800790e-17   0.0000000000000000e+00   3.7007434154171889e-17   0.0000000000000000e+00   3.7007434154171889e-17   0.0000000000000000e+00   6.4763009769800778e-17   0.0000000000000000e+00   1.2027416100105862e-16   0.0000000000000000e+00   2.1279274638648830e-16   0.0000000000000000e+00   2.8680761469483207e-16   0.0000000000000000e+00   3.1456319031046094e-16   0.0000000000000000e+00   2.7755575615628909e-16   0.0000000000000000e+00   2.0354088784794533e-16   0.0000000000000000e+00   1.2027416100105859e-16   0.0000000000000000e+00   6.4763009769800802e-17   0.0000000000000000e+00   3.7007434154171889e-17   0.0000000000000000e+00   1.8503717077085938e-17   0.0000000000000000e+00   1.8503717077085944e-17   0.0000000000000000e+00   1.8503717077085938e-17   0.0000000000000000e+00   1.8503717077085944e-17   0.0000000000000000e+00   1.8503717077085944e-17   0.0000000000000000e+00   1.8503717077085938e-17   0.0000000000000000e+00   1.8503717077085944e-17   0.0000000000000000e+00   1.8503717077085938e-17   0.0000000000000000e+00   1.8503717077085941e-17   0.0000000000000000e+00   1.8503717077085944e-17   0.0000000000000000e+00   1.8503717077085941e-17   0.0000000000000000e+00   1.8503717077085941e-17   0.0000000000000000e+00   1.8503717077085938e-17   0.0000000000000000e+00   1.8503717077085941e-17   0.0000000000000000e+00   1.8503717077085938e-17   0.0000000000000000e+00   1.8503717077085938e-17   0.0000000000000000e+00   1.8503717077085941e-17   0.0000000000000000e+00   1.8503717077085938e-17   0.0000000000000000e+00   1.8503717077085938e-17   0.0000000000000000e+00   1.8503717077085941e-17   0.0000000000000000e+00   1.8503717077085938e-17   0.0000000000000000e+00   0.0000000000000000e+00   0.0000000000000000e+00   0.0000000000000000e+00   0.0000000000000000e+00   0.0000000000000000e+00   0.0000000000000000e+00   0.0000000000000000e+00   0.0000000000000000e+00   0.0000000000000000e+00   0.0000000000000000e+00   0.0000000000000000e+00   0.0000000000000000e+00   0.0000000000000000e+00   0.0000000000000000e+00   0.0000000000000000e+00   0.0000000000000000e+00   0.0000000000000000e+00   0.0000000000000000e+00   0.0000000000000000e+00   0.0000000000000000e+00   2.0988133540567055e-06   7.3312312122060987e-06   8.6790112134120055e-12   1.6432577520930632e-11   5.8286708792820709e-16   5.9211894646675012e-16   0.0000000000000000e+00   0.0000000000000000e+00   0.0000000000000000e+00   0.0000000000000000e+00   0.0000000000000000e+00   0.0000000000000000e+00   0.0000000000000000e+00   0.0000000000000000e+00   0.0000000000000000e+00   0.0000000000000000e+00   0.0000000000000000e+00   0.0000000000000000e+00   0.0000000000000000e+00   0.0000000000000000e+00   0.0000000000000000e+00   0.0000000000000000e+00   0.0000000000000000e+00   0.0000000000000000e+00   0.0000000000000000e+00   0.0000000000000000e+00   0.0000000000000000e+00   0.0000000000000000e+00   0.0000000000000000e+00   0.0000000000000000e+00   0.0000000000000000e+00   0.0000000000000000e+00   0.0000000000000000e+00   0.0000000000000000e+00   0.0000000000000000e+00   0.0000000000000000e+00   0.0000000000000000e+00   0.0000000000000000e+00   0.0000000000000000e+00   0.0000000000000000e+00   0.0000000000000000e+00   0.0000000000000000e+00   0.0000000000000000e+00   0.0000000000000000e+00   0.0000000000000000e+00   0.0000000000000000e+00   0.0000000000000000e+00   0.0000000000000000e+00   0.0000000000000000e+00   0.0000000000000000e+00   0.0000000000000000e+00   0.0000000000000000e+00   0.0000000000000000e+00   0.0000000000000000e+00   0.0000000000000000e+00   0.0000000000000000e+00   0.0000000000000000e+00   0.0000000000000000e+00   0.0000000000000000e+00   0.0000000000000000e+00   0.0000000000000000e+00   0.0000000000000000e+00   0.0000000000000000e+00   0.0000000000000000e+00   0.0000000000000000e+00   0.0000000000000000e+00   0.0000000000000000e+00   0.0000000000000000e+00   0.0000000000000000e+00   0.0000000000000000e+00   0.0000000000000000e+00   0.0000000000000000e+00   0.0000000000000000e+00   0.0000000000000000e+00   0.0000000000000000e+00   0.0000000000000000e+00   0.0000000000000000e+00   0.0000000000000000e+00   0.0000000000000000e+00   0.0000000000000000e+00   0.0000000000000000e+00   0.0000000000000000e+00   0.0000000000000000e+00   0.0000000000000000e+00   0.0000000000000000e+00   0.0000000000000000e+00   0.0000000000000000e+00   0.0000000000000000e+00   0.0000000000000000e+00   0.0000000000000000e+00   0.0000000000000000e+00   0.0000000000000000e+00   0.0000000000000000e+00   0.0000000000000000e+00   0.0000000000000000e+00   0.0000000000000000e+00   0.0000000000000000e+00   0.0000000000000000e+00   0.0000000000000000e+00   1.9921843619208342e-09   7.4569979820656353e-15   2.9846495645339623e-14   0.0000000000000000e+00   0.0000000000000000e+00   0.0000000000000000e+00   0.0000000000000000e+00   0.0000000000000000e+00   0.0000000000000000e+00   0.0000000000000000e+00   0.0000000000000000e+00   0.0000000000000000e+00   0.0000000000000000e+00   0.0000000000000000e+00   0.0000000000000000e+00   0.0000000000000000e+00   0.0000000000000000e+00   0.0000000000000000e+00   0.0000000000000000e+00   0.0000000000000000e+00   0.0000000000000000e+00   0.0000000000000000e+00   0.0000000000000000e+00   0.0000000000000000e+00   0.0000000000000000e+00   0.0000000000000000e+00   0.0000000000000000e+00   0.0000000000000000e+00   0.0000000000000000e+00   0.0000000000000000e+00   0.0000000000000000e+00   0.0000000000000000e+00   0.0000000000000000e+00   0.0000000000000000e+00   0.0000000000000000e+00   0.0000000000000000e+00   0.0000000000000000e+00   0.0000000000000000e+00   0.0000000000000000e+00   0.0000000000000000e+00   0.0000000000000000e+00   0.0000000000000000e+00   0.0000000000000000e+00   0.0000000000000000e+00   0.0000000000000000e+00   0.0000000000000000e+00   0.0000000000000000e+00   0.0000000000000000e+00   0.0000000000000000e+00   0.0000000000000000e+00   0.0000000000000000e+00   0.0000000000000000e+00   0.0000000000000000e+00   0.0000000000000000e+00   0.0000000000000000e+00   0.0000000000000000e+00   0.0000000000000000e+00   0.0000000000000000e+00   0.0000000000000000e+00   0.0000000000000000e+00   0.0000000000000000e+00   0.0000000000000000e+00   0.0000000000000000e+00   0.0000000000000000e+00   0.0000000000000000e+00   0.0000000000000000e+00   0.0000000000000000e+00   0.0000000000000000e+00   0.0000000000000000e+00   0.0000000000000000e+00   0.0000000000000000e+00   0.0000000000000000e+00   0.0000000000000000e+00   0.0000000000000000e+00   0.0000000000000000e+00   0.0000000000000000e+00   0.0000000000000000e+00   0.0000000000000000e+00   0.0000000000000000e+00   0.0000000000000000e+00   0.0000000000000000e+00   0.0000000000000000e+00   0.0000000000000000e+00   0.0000000000000000e+00   0.0000000000000000e+00   0.0000000000000000e+00   0.0000000000000000e+00   0.0000000000000000e+00   0.0000000000000000e+00   0.0000000000000000e+00   0.0000000000000000e+00   0.0000000000000000e+00   0.0000000000000000e+00   0.0000000000000000e+00   0.0000000000000000e+00   0.0000000000000000e+00   0.0000000000000000e+00   0.0000000000000000e+00   0.0000000000000000e+00   1.3877787807814457e-16   1.5358085173981329e-15   0.0000000000000000e+00   0.0000000000000000e+00   0.0000000000000000e+00   0.0000000000000000e+00   0.0000000000000000e+00   0.0000000000000000e+00   0.0000000000000000e+00   0.0000000000000000e+00   0.0000000000000000e+00   0.0000000000000000e+00   0.0000000000000000e+00   0.0000000000000000e+00   0.0000000000000000e+00   0.0000000000000000e+00   0.0000000000000000e+00   0.0000000000000000e+00   0.0000000000000000e+00   0.0000000000000000e+00   0.0000000000000000e+00   0.0000000000000000e+00   0.0000000000000000e+00   0.0000000000000000e+00   0.0000000000000000e+00   0.0000000000000000e+00   0.0000000000000000e+00   0.0000000000000000e+00   0.0000000000000000e+00   0.0000000000000000e+00   0.0000000000000000e+00   0.0000000000000000e+00   0.0000000000000000e+00   0.0000000000000000e+00   0.0000000000000000e+00   0.0000000000000000e+00   0.0000000000000000e+00   0.0000000000000000e+00   0.0000000000000000e+00   0.0000000000000000e+00   0.0000000000000000e+00   0.0000000000000000e+00   0.0000000000000000e+00   0.0000000000000000e+00   0.0000000000000000e+00   0.0000000000000000e+00   0.0000000000000000e+00   0.0000000000000000e+00   0.0000000000000000e+00   0.0000000000000000e+00   0.0000000000000000e+00   0.0000000000000000e+00   0.0000000000000000e+00   0.0000000000000000e+00   0.0000000000000000e+00   0.0000000000000000e+00   0.0000000000000000e+00   0.0000000000000000e+00   0.0000000000000000e+00   0.0000000000000000e+00   0.0000000000000000e+00   0.0000000000000000e+00   0.0000000000000000e+00   0.0000000000000000e+00   0.0000000000000000e+00   0.0000000000000000e+00   0.0000000000000000e+00   0.0000000000000000e+00   0.0000000000000000e+00   0.0000000000000000e+00   0.0000000000000000e+00   0.0000000000000000e+00   0.0000000000000000e+00   0.0000000000000000e+00   0.0000000000000000e+00   0.0000000000000000e+00   0.0000000000000000e+00   0.0000000000000000e+00   0.0000000000000000e+00   0.0000000000000000e+00   0.0000000000000000e+00   0.0000000000000000e+00   0.0000000000000000e+00   0.0000000000000000e+00   0.0000000000000000e+00   0.0000000000000000e+00   0.0000000000000000e+00   0.0000000000000000e+00   0.0000000000000000e+00   0.0000000000000000e+00   0.0000000000000000e+00   0.0000000000000000e+00   0.0000000000000000e+00   0.0000000000000000e+00   0.0000000000000000e+00   0.0000000000000000e+00   0.0000000000000000e+00   0.0000000000000000e+00   6.4763009769800802e-17   3.2381504884900396e-15   0.0000000000000000e+00   0.00000000