<?xml version="1.0"?>
<VTKFile type="UnstructuredGrid"  version="0.1"  >
<UnstructuredGrid>
<Piece  NumberOfPoints="2534" NumberOfCells="4827">
<Points>
<DataArray  type="Float64"  NumberOfComponents="3"  format="ascii">2.81695652173913 0.225 0  2.825217391304347 0.225 0  2.825217391304347 0.2333333333333333 0  2.81695652173913 0.2333333333333333 0  2.833478260869565 0.2333333333333333 0  2.825217391304347 0.2416666666666667 0  2.81695652173913 0.2416666666666667 0  2.833478260869565 0.2416666666666667 0  2.841739130434783 0.2416666666666667 0  2.825217391304347 0.25 0  2.81695652173913 0.25 0  2.833478260869565 0.25 0  2.841739130434783 0.25 0  2.85 0.25 0  2.825217391304347 0.2583333333333334 0  2.81695652173913 0.2583333333333334 0  2.833478260869565 0.2583333333333334 0  2.841739130434783 0.2583333333333334 0  2.85 0.2583333333333334 0  2.858260869565217 0.2583333333333334 0  2.825217391304347 0.2666666666666667 0  2.81695652173913 0.2666666666666667 0  2.833478260869565 0.2666666666666667 0  2.841739130434783 0.2666666666666667 0  2.85 0.2666666666666667 0  2.858260869565217 0.2666666666666667 0  2.866521739130435 0.2666666666666667 0  2.825217391304347 0.275 0  2.81695652173913 0.275 0  2.833478260869565 0.275 0  2.841739130434783 0.275 0  2.85 0.275 0  2.858260869565217 0.275 0  2.866521739130435 0.275 0  2.874782608695652 0.275 0  2.197391304347826 0.275 0  2.205652173913043 0.275 0  2.205652173913043 0.2833333333333333 0  2.197391304347826 0.2833333333333333 0  2.213913043478261 0.275 0  2.213913043478261 0.2833333333333333 0  2.222173913043478 0.275 0  2.222173913043478 0.2833333333333333 0  2.230434782608695 0.275 0  2.230434782608695 0.2833333333333333 0  2.238695652173913 0.275 0  2.238695652173913 0.2833333333333333 0  2.24695652173913 0.275 0  2.24695652173913 0.2833333333333333 0  2.255217391304348 0.275 0  2.255217391304348 0.2833333333333333 0  2.263478260869565 0.275 0  2.263478260869565 0.2833333333333333 0  2.271739130434783 0.275 0  2.271739130434783 0.2833333333333333 0  2.28 0.275 0  2.28 0.2833333333333333 0  2.288260869565217 0.275 0  2.288260869565217 0.2833333333333333 0  2.296521739130434 0.275 0  2.296521739130434 0.2833333333333333 0  2.304782608695652 0.275 0  2.304782608695652 0.2833333333333333 0  2.31304347826087 0.275 0  2.31304347826087 0.2833333333333333 0  2.321304347826087 0.275 0  2.321304347826087 0.2833333333333333 0  2.329565217391304 0.275 0  2.329565217391304 0.2833333333333333 0  2.337826086956521 0.275 0  2.337826086956521 0.2833333333333333 0  2.346086956521739 0.275 0  2.346086956521739 0.2833333333333333 0  2.354347826086956 0.275 0  2.354347826086956 0.2833333333333333 0  2.362608695652174 0.275 0  2.362608695652174 0.2833333333333333 0  2.370869565217391 0.275 0  2.370869565217391 0.2833333333333333 0  2.379130434782609 0.275 0  2.379130434782609 0.2833333333333333 0  2.387391304347826 0.275 0  2.387391304347826 0.2833333333333333 0  2.395652173913044 0.275 0  2.395652173913044 0.2833333333333333 0  2.403913043478261 0.275 0  2.403913043478261 0.2833333333333333 0  2.412173913043478 0.275 0  2.412173913043478 0.2833333333333333 0  2.420434782608695 0.275 0  2.420434782608695 0.2833333333333333 0  2.428695652173913 0.275 0  2.428695652173913 0.2833333333333333 0  2.43695652173913 0.275 0  2.43695652173913 0.2833333333333333 0  2.445217391304348 0.275 0  2.445217391304348 0.2833333333333333 0  2.453478260869565 0.275 0  2.453478260869565 0.2833333333333333 0  2.461739130434782 0.275 0  2.461739130434782 0.2833333333333333 0  2.47 0.275 0  2.47 0.2833333333333333 0  2.478260869565217 0.275 0  2.478260869565217 0.2833333333333333 0  2.486521739130435 0.275 0  2.486521739130435 0.2833333333333333 0  2.494782608695652 0.275 0  2.494782608695652 0.2833333333333333 0  2.503043478260869 0.275 0  2.503043478260869 0.2833333333333333 0  2.511304347826087 0.275 0  2.511304347826087 0.2833333333333333 0  2.519565217391305 0.275 0  2.519565217391305 0.2833333333333333 0  2.527826086956522 0.275 0  2.527826086956522 0.2833333333333333 0  2.536086956521739 0.275 0  2.536086956521739 0.2833333333333333 0  2.544347826086956 0.275 0  2.544347826086956 0.2833333333333333 0  2.552608695652174 0.275 0  2.552608695652174 0.2833333333333333 0  2.560869565217391 0.275 0  2.560869565217391 0.2833333333333333 0  2.569130434782608 0.275 0  2.569130434782608 0.2833333333333333 0  2.577391304347826 0.275 0  2.577391304347826 0.2833333333333333 0  2.585652173913043 0.275 0  2.585652173913043 0.2833333333333333 0  2.593913043478261 0.275 0  2.593913043478261 0.2833333333333333 0  2.602173913043478 0.275 0  2.602173913043478 0.2833333333333333 0  2.610434782608696 0.275 0  2.610434782608696 0.2833333333333333 0  2.618695652173913 0.275 0  2.618695652173913 0.2833333333333333 0  2.62695652173913 0.275 0  2.62695652173913 0.2833333333333333 0  2.635217391304348 0.275 0  2.635217391304348 0.2833333333333333 0  2.643478260869565 0.275 0  2.643478260869565 0.2833333333333333 0  2.651739130434783 0.275 0  2.651739130434783 0.2833333333333333 0  2.66 0.275 0  2.66 0.2833333333333333 0  2.668260869565217 0.275 0  2.668260869565217 0.2833333333333333 0  2.676521739130435 0.275 0  2.676521739130435 0.2833333333333333 0  2.684782608695652 0.275 0  2.684782608695652 0.2833333333333333 0  2.693043478260869 0.275 0  2.693043478260869 0.2833333333333333 0  2.701304347826087 0.275 0  2.701304347826087 0.2833333333333333 0  2.709565217391304 0.275 0  2.709565217391304 0.2833333333333333 0  2.717826086956522 0.275 0  2.717826086956522 0.2833333333333333 0  2.726086956521739 0.275 0  2.726086956521739 0.2833333333333333 0  2.734347826086956 0.275 0  2.734347826086956 0.2833333333333333 0  2.742608695652174 0.275 0  2.742608695652174 0.2833333333333333 0  2.750869565217391 0.275 0  2.750869565217391 0.2833333333333333 0  2.759130434782609 0.275 0  2.759130434782609 0.2833333333333333 0  2.767391304347826 0.275 0  2.767391304347826 0.2833333333333333 0  2.775652173913044 0.275 0  2.775652173913044 0.2833333333333333 0  2.783913043478261 0.275 0  2.783913043478261 0.2833333333333333 0  2.792173913043478 0.275 0  2.792173913043478 0.2833333333333333 0  2.800434782608696 0.275 0  2.800434782608696 0.2833333333333333 0  2.808695652173913 0.275 0  2.808695652173913 0.2833333333333333 0  2.81695652173913 0.2833333333333333 0  2.825217391304347 0.2833333333333333 0  2.833478260869565 0.2833333333333333 0  2.841739130434783 0.2833333333333333 0  2.85 0.2833333333333333 0  2.858260869565217 0.2833333333333333 0  2.866521739130435 0.2833333333333333 0  2.874782608695652 0.2833333333333333 0  2.88304347826087 0.2833333333333333 0  2.205652173913043 0.2916666666666667 0  2.213913043478261 0.2916666666666667 0  2.222173913043478 0.2916666666666667 0  2.230434782608695 0.2916666666666667 0  2.238695652173913 0.2916666666666667 0  2.24695652173913 0.2916666666666667 0  2.255217391304348 0.2916666666666667 0  2.263478260869565 0.2916666666666667 0  2.271739130434783 0.2916666666666667 0  2.28 0.2916666666666667 0  2.288260869565217 0.2916666666666667 0  2.296521739130434 0.2916666666666667 0  2.304782608695652 0.2916666666666667 0  2.31304347826087 0.2916666666666667 0  2.321304347826087 0.2916666666666667 0  2.329565217391304 0.2916666666666667 0  2.337826086956521 0.2916666666666667 0  2.346086956521739 0.2916666666666667 0  2.354347826086956 0.2916666666666667 0  2.362608695652174 0.2916666666666667 0  2.370869565217391 0.2916666666666667 0  2.379130434782609 0.2916666666666667 0  2.387391304347826 0.2916666666666667 0  2.395652173913044 0.2916666666666667 0  2.403913043478261 0.2916666666666667 0  2.412173913043478 0.2916666666666667 0  2.420434782608695 0.2916666666666667 0  2.428695652173913 0.2916666666666667 0  2.43695652173913 0.2916666666666667 0  2.445217391304348 0.2916666666666667 0  2.453478260869565 0.2916666666666667 0  2.461739130434782 0.2916666666666667 0  2.47 0.2916666666666667 0  2.478260869565217 0.2916666666666667 0  2.486521739130435 0.2916666666666667 0  2.494782608695652 0.2916666666666667 0  2.503043478260869 0.2916666666666667 0  2.511304347826087 0.2916666666666667 0  2.519565217391305 0.2916666666666667 0  2.527826086956522 0.2916666666666667 0  2.536086956521739 0.2916666666666667 0  2.544347826086956 0.2916666666666667 0  2.552608695652174 0.2916666666666667 0  2.560869565217391 0.2916666666666667 0  2.569130434782608 0.2916666666666667 0  2.577391304347826 0.2916666666666667 0  2.585652173913043 0.2916666666666667 0  2.593913043478261 0.2916666666666667 0  2.602173913043478 0.2916666666666667 0  2.610434782608696 0.2916666666666667 0  2.618695652173913 0.2916666666666667 0  2.62695652173913 0.2916666666666667 0  2.635217391304348 0.2916666666666667 0  2.643478260869565 0.2916666666666667 0  2.651739130434783 0.2916666666666667 0  2.66 0.2916666666666667 0  2.668260869565217 0.2916666666666667 0  2.676521739130435 0.2916666666666667 0  2.684782608695652 0.2916666666666667 0  2.693043478260869 0.2916666666666667 0  2.701304347826087 0.2916666666666667 0  2.709565217391304 0.2916666666666667 0  2.717826086956522 0.2916666666666667 0  2.726086956521739 0.2916666666666667 0  2.734347826086956 0.2916666666666667 0  2.742608695652174 0.2916666666666667 0  2.750869565217391 0.2916666666666667 0  2.759130434782609 0.2916666666666667 0  2.767391304347826 0.2916666666666667 0  2.775652173913044 0.2916666666666667 0  2.783913043478261 0.2916666666666667 0  2.792173913043478 0.2916666666666667 0  2.800434782608696 0.2916666666666667 0  2.808695652173913 0.2916666666666667 0  2.81695652173913 0.2916666666666667 0  2.825217391304347 0.2916666666666667 0  2.833478260869565 0.2916666666666667 0  2.841739130434783 0.2916666666666667 0  2.85 0.2916666666666667 0  2.858260869565217 0.2916666666666667 0  2.866521739130435 0.2916666666666667 0  2.874782608695652 0.2916666666666667 0  2.88304347826087 0.2916666666666667 0  2.891304347826087 0.2916666666666667 0  2.213913043478261 0.3 0  2.222173913043478 0.3 0  2.2
[...]
<CellData  Scalars="sigma_m"> 
<DataArray  type="Float64"  Name="sigma_m"  format="ascii">0.0000000000000000e+00   0.0000000000000000e+00   0.0000000000000000e+00   0.0000000000000000e+00   0.0000000000000000e+00   0.0000000000000000e+00   0.0000000000000000e+00   0.0000000000000000e+00   0.0000000000000000e+00   0.0000000000000000e+00   0.0000000000000000e+00   0.0000000000000000e+00   0.0000000000000000e+00   0.0000000000000000e+00   0.0000000000000000e+00   0.0000000000000000e+00   0.0000000000000000e+00   0.0000000000000000e+00   0.0000000000000000e+00   0.0000000000000000e+00   0.0000000000000000e+00   0.0000000000000000e+00   0.0000000000000000e+00   0.0000000000000000e+00   0.0000000000000000e+00   0.0000000000000000e+00   0.0000000000000000e+00   0.0000000000000000e+00   0.0000000000000000e+00   0.0000000000000000e+00   0.0000000000000000e+00   0.0000000000000000e+00   0.0000000000000000e+00   0.0000000000000000e+00   0.0000000000000000e+00   0.0000000000000000e+00   0.0000000000000000e+00   0.0000000000000000e+00   0.0000000000000000e+00   0.0000000000000000e+00   0.0000000000000000e+00   0.0000000000000000e+00   0.0000000000000000e+00   0.0000000000000000e+00   0.0000000000000000e+00   0.0000000000000000e+00   0.0000000000000000e+00   0.0000000000000000e+00   1.1598174963849876e+06   1.3684702052201258e+06   4.9221649036835285e+05   2.8262547171373694e+05   1.4442083212380612e+06   9.0880887442917493e+05   2.5333170917929895e+06   2.0489232159999216e+06   3.6180002197161727e+06   3.0631271298819245e+06   4.2070220768362116e+06   4.3802076339329164e+06   1.3891109645010852e+06   9.1158013771505095e+05   1.1107560774623639e+01   2.9808759324645223e+01   2.2730956193053424e-06   5.0745608141780311e-06   0.0000000000000000e+00   0.0000000000000000e+00   0.0000000000000000e+00   0.0000000000000000e+00   0.0000000000000000e+00   0.0000000000000000e+00   0.0000000000000000e+00   0.0000000000000000e+00   0.0000000000000000e+00   0.0000000000000000e+00   0.0000000000000000e+00   0.0000000000000000e+00   0.0000000000000000e+00   0.0000000000000000e+00   0.0000000000000000e+00   0.0000000000000000e+00   0.0000000000000000e+00   0.0000000000000000e+00   0.0000000000000000e+00   0.0000000000000000e+00   0.0000000000000000e+00   0.0000000000000000e+00   0.0000000000000000e+00   0.0000000000000000e+00   0.0000000000000000e+00   0.0000000000000000e+00   0.0000000000000000e+00   0.0000000000000000e+00   0.0000000000000000e+00   0.0000000000000000e+00   0.0000000000000000e+00   0.0000000000000000e+00   0.0000000000000000e+00   0.0000000000000000e+00   0.0000000000000000e+00   0.0000000000000000e+00   0.0000000000000000e+00   0.0000000000000000e+00   0.0000000000000000e+00   0.0000000000000000e+00   0.0000000000000000e+00   0.0000000000000000e+00   0.0000000000000000e+00   0.0000000000000000e+00   0.0000000000000000e+00   0.0000000000000000e+00   0.0000000000000000e+00   0.0000000000000000e+00   0.0000000000000000e+00   0.0000000000000000e+00   0.0000000000000000e+00   0.0000000000000000e+00   0.0000000000000000e+00   0.0000000000000000e+00   0.0000000000000000e+00   0.0000000000000000e+00   0.0000000000000000e+00   0.0000000000000000e+00   0.0000000000000000e+00   0.0000000000000000e+00   0.0000000000000000e+00   0.0000000000000000e+00   0.0000000000000000e+00   0.0000000000000000e+00   0.0000000000000000e+00   0.0000000000000000e+00   0.0000000000000000e+00   0.0000000000000000e+00   0.0000000000000000e+00   0.0000000000000000e+00   0.0000000000000000e+00   0.0000000000000000e+00   0.0000000000000000e+00   0.0000000000000000e+00   0.0000000000000000e+00   0.0000000000000000e+00   0.0000000000000000e+00   0.0000000000000000e+00   0.0000000000000000e+00   0.0000000000000000e+00   0.0000000000000000e+00   0.0000000000000000e+00   0.0000000000000000e+00   0.0000000000000000e+00   7.5012413111684980e-09   0.0000000000000000e+00   3.9724948515595687e-02   4.4757821048185069e-07   2.7043327651411972e+04   2.7339180272252830e+00   3.9626997587249829e+06   6.3979349745900743e+05   3.5859739522871370e+06   3.4807965912820240e+06   2.7499504448097241e+06   2.6754914383158106e+06   1.9730845430672818e+06   1.8952470918430085e+06   1.2150640789262496e+06   1.1382993787830574e+06   4.8623143252829101e+05   4.2371310839542991e+05   3.7002307093009708e+05   4.7192529891489347e+05   1.9451551250113494e+05   1.1164612897892632e+06   4.1035096689125723e+00   2.1687328049417374e+04   6.2543660831271069e-07   4.9635998624648361e-02   0.0000000000000000e+00   6.5512745605024195e-09   0.0000000000000000e+00   0.0000000000000000e+00   0.0000000000000000e+00   0.0000000000000000e+00   0.0000000000000000e+00   0.0000000000000000e+00   0.0000000000000000e+00   0.0000000000000000e+00   0.0000000000000000e+00   0.0000000000000000e+00   0.0000000000000000e+00   0.0000000000000000e+00   0.0000000000000000e+00   0.0000000000000000e+00   0.0000000000000000e+00   0.0000000000000000e+00   0.0000000000000000e+00   0.0000000000000000e+00   0.0000000000000000e+00   0.0000000000000000e+00   0.0000000000000000e+00   0.0000000000000000e+00   0.0000000000000000e+00   0.0000000000000000e+00   0.0000000000000000e+00   0.0000000000000000e+00   0.0000000000000000e+00   0.0000000000000000e+00   0.0000000000000000e+00   0.0000000000000000e+00   0.0000000000000000e+00   0.0000000000000000e+00   7.8314008025947074e-07   5.3670428200603908e-07   1.2286496366444601e+00   4.6993901566768234e+05   1.1554270806961132e+06   5.6096014733612747e+05   2.2128412644445165e+06   1.8115317718130657e+06   3.1664601117472206e+06   2.9451420865376969e+06   3.8091368756684819e+06   3.9429364603089001e+06   3.3676767391966381e+06   2.6067225936114863e+06   2.3730488540129014e+02   6.4353852785849801e+02   1.1403522329749210e-04   2.3288643863046254e-04   0.0000000000000000e+00   0.0000000000000000e+00   0.0000000000000000e+00   0.0000000000000000e+00   0.0000000000000000e+00   0.0000000000000000e+00   0.0000000000000000e+00   0.0000000000000000e+00   0.0000000000000000e+00   0.0000000000000000e+00   0.0000000000000000e+00   0.0000000000000000e+00   0.0000000000000000e+00   0.0000000000000000e+00   0.0000000000000000e+00   0.0000000000000000e+00   0.0000000000000000e+00   0.0000000000000000e+00   0.0000000000000000e+00   0.0000000000000000e+00   0.0000000000000000e+00   0.0000000000000000e+00   0.0000000000000000e+00   0.0000000000000000e+00   0.0000000000000000e+00   0.0000000000000000e+00   0.0000000000000000e+00   0.0000000000000000e+00   0.0000000000000000e+00   0.0000000000000000e+00   0.0000000000000000e+00   0.0000000000000000e+00   0.0000000000000000e+00   0.0000000000000000e+00   0.0000000000000000e+00   0.0000000000000000e+00   0.0000000000000000e+00   0.0000000000000000e+00   0.0000000000000000e+00   0.0000000000000000e+00   0.0000000000000000e+00   0.0000000000000000e+00   0.0000000000000000e+00   0.0000000000000000e+00   0.0000000000000000e+00   0.0000000000000000e+00   0.0000000000000000e+00   0.0000000000000000e+00   0.0000000000000000e+00   0.0000000000000000e+00   0.0000000000000000e+00   0.0000000000000000e+00   0.0000000000000000e+00   0.0000000000000000e+00   0.0000000000000000e+00   0.0000000000000000e+00   0.0000000000000000e+00   0.0000000000000000e+00   0.0000000000000000e+00   0.0000000000000000e+00   0.0000000000000000e+00   0.0000000000000000e+00   0.0000000000000000e+00   0.0000000000000000e+00   0.0000000000000000e+00   0.0000000000000000e+00   0.0000000000000000e+00   0.0000000000000000e+00   0.0000000000000000e+00   0.0000000000000000e+00   0.0000000000000000e+00   0.0000000000000000e+00   0.0000000000000000e+00   0.0000000000000000e+00   0.0000000000000000e+00   0.0000000000000000e+00   0.0000000000000000e+00   0.0000000000000000e+00   0.0000000000000000e+00   0.0000000000000000e+00   0.0000000000000000e+00   0.0000000000000000e+00   0.0000000000000000e+00   0.0000000000000000e+00   0.0000000000000000e+00   0.0000000000000000e+00   0.0000000000000000e+00   0.0000000000000000e+00   2.0490348912182746e-08   0.0000000000000000e+00   1.2542111494240502e-01   1.4791756834952912e-06   3.7889945949031084e+04   9.7169081367986241e+00   3.9478031795692085e+06   6.3200235153477441e+05   3.4037708598026410e+06   3.3261899841077398e+06   2.6439138628628743e+06   2.5684841497719018e+06   1.8932383873438418e+06   1.8166789098870638e+06   1.1350500420870902e+06   1.0627915539438347e+06   4.0405980469060066e+05   3.5990995215567626e+05   4.9332971162401780e+05   5.9327304142715910e+05   2.5906196469861455e+05   1.2451687146107571e+06   7.3717522734567176e-01   8.2322395518549183e+03   8.7771421567417992e-08   6.4181341399867850e-03   0.0000000000000000e+00   9.4680947796484341e-10   0.0000000000000000e+00   0.0000000000000000e+00   0.0000000000000000e+00   0.0000000000000000e+00   0.0000000000000000e+00   0.0000000000000000e+00   0.0000000000000000e+00   0.0000000000000000e+00   0.0000000000000000e+00   0.0000000000000000e+00   0.0000000000000000e+00   0.0000000000000000e+00   0.0000000000000000e+00   0.0000000000000000e+00   0.0000000000000000e+00   0.0000000000000000e+00   0.0000000000000000e+00   0.0000000000000000e+00   0.0000000000000000e+00   0.0000000000000000e+00   0.0000000000000000e+00   0.0000000000000000e+00   0.0000000000000000e+00   0.0000000000000000e+00   0.0000000000000000e+00   0.0000000000000000e+00   0.0000000000000000e+00   0.0000000000000000e+00   1.4860520333777484e-07   1.1449143715777038e-07   3.5990004697214584e-01   2.2019852458680328e-01   1.2160553152612172e+05   9.8513255780302890e+04   1.0105446644004484e+06   2.0329276075860013e+06   3.1076229718673900e+06   2.8384364205719782e+06   4.0790242082718564e+06   3.9998655263873041e+06   4.3722074569830727e+06   3.4051837161895661e+06   5.2663843312930694e+03   1.2389159835542196e+04   3.9524719959964857e-03   8.0941337014119995e-03   0.0000000000000000e+00   1.2620815746624335e-09   0.0000000000000000e+00   0.0000000000000000e+00   0.0000000000000000e+00   0.0000000000000000e+00   0.0000000000000000e+00   0.0000000000000000e+00   0.0000000000000000e+00   0.0000000000000000e+00   0.0000000000000000e+00   0.0000000000000000e+00   0.0000000000000000e+00   0.0000000000000000e+00   0.0000000000000000e+00   0.0000000000000000e+00   0.0000000000000000e+00   0.0000000000000000e+00   0.0000000000000000e+00   0.0000000000000000e+00   0.0000000000000000e+00   0.0000000000000000e+00   0.0000000000000000e+00   0.0000000000000000e+00   0.0000000000000000e+00   0.0000000000000000e+00   0.0000000000000000e+00   0.0000000000000000e+00   0.0000000000000000e+00   0.0000000000000000e+00   0.0000000000000000e+00   0.0000000000000000e+00   0.0000000000000000e+00   0.0000000000000000e+00   0.0000000000000000e+00   0.0000000000000000e+00   0.0000000000000000e+00   0.0000000000000000e+00   0.0000000000000000e+00   0.0000000000000000e+00   0.0000000000000000e+00   0.0000000000000000e+00   0.0000000000000000e+00   0.0000000000000000e+00   0.0000000000000000e+00   0.0000000000000000e+00   0.0000000000000000e+00   0.0000000000000000e+00   0.0000000000000000e+00   0.0000000000000000e+00   0.0000000000000000e+00   0.0000000000000000e+00   0.0000000000000000e+00   0.0000000000000000e+00   0.0000000000000000e+00   0.0000000000000000e+00   0.0000000000000000e+00   0.0000000000000000e+00   0.0000000000000000e+00   0.0000000000000000e+00   0.0000000000000000e+00   0.0000000000000000e+00   0.0000000000000000e+00   0.0000000000000000e+00   0.0000000000000000e+00   0.0000000000000000e+00   0.0000000000000000e+00   0.0000000000000000e+00   0.0000000000000000e+00   0.0000000000000000e+00   0.0000000000000000e+00   0.0000000000000000e+00   0.0000000000000000e+00   0.0000000000000000e+00   0.0000000000000000e+00   0.0000000000000000e+00   0.0000000000000000e+00   0.0000000000000000e+00   0.0000000000000000e+00   0.0000000000000000e+00   0.0000000000000000e+00   0.0000000000000000e+00   0.0000000000000000e+00   0.0000000000000000e+00   0.0000000000000000e+00   0.0000000000000000e+00   0.0000000000000000e+00   0.0000000000000000e+00   0.0000000000000000e+00   0.0000000000000000e+00   0.0000000000000000e+00   0.0000000000000000e+00   7.3274797947629496e-08   0.0000000000000000e+00   5.2722955184405640e-01   6.0015960400681458e-06   6.0322796581662573e+04   3.8857008282780207e+01   3.8029007249508640e+06   1.1989993746873129e+06   3.2708751504798234e+06   3.1824742072197329e+06   2.5666129054669421e+06   2.4832072289782315e+06   1.8246019820443501e+06   1.7442686576389619e+06   1.0557847677385304e+06   9.8416305975354312e+05   3.3095187262406485e+05   3.1232311086367990e+05   6.6626596112018265e+05   7.8399929093769612e+05   7.3161194477994737e+04   1.3181934046604377e+06   7.4150087028048164e-02   1.2338514295382192e+03   9.1427397396481160e-09   4.9083501090775616e-04   0.0000000000000000e+00   0.0000000000000000e+00   0.0000000000000000e+00   0.0000000000000000e+00   0.0000000000000000e+00   0.0000000000000000e+00   0.0000000000000000e+00   0.0000000000000000e+00   0.0000000000000000e+00   0.0000000000000000e+00   0.0000000000000000e+00   0.0000000000000000e+00   0.0000000000000000e+00   0.0000000000000000e+00   0.0000000000000000e+00   0.0000000000000000e+00   0.0000000000000000e+00   0.0000000000000000e+00   0.0000000000000000e+00   0.0000000000000000e+00   0.0000000000000000e+00   0.0000000000000000e+00   0.0000000000000000e+00   0.0000000000000000e+00   0.0000000000000000e+00   0.0000000000000000e+00   4.5352804406063684e-08   4.1539909953236282e-08   7.8524013335893567e-02   5.2032415869852029e-02   3.2145737579059678e+04   2.5789696037512822e+04   1.0292447193556941e+06   1.3321435470501271e+06   4.2097655534815619e+05   5.1889016451129742e+05   4.7160474704886880e+05   4.2762314129102286e+06   4.9465919252767758e+06   4.2703039154301649e+06   8.0398402552591026e+04   1.7817132943177730e+05   1.1606138034826483e-01   2.2945854696714643e-01   1.3242952843110726e-08   2.9500923884548472e-08   0.0000000000000000e+00   0.0000000000000000e+00   0.0000000000000000e+00   0.0000000000000000e+00   0.0000000000000000e+00   0.0000000000000000e+00   0.0000000000000000e+00   0.0000000000000000e+00   0.0000000000000000e+00   0.0000000000000000e+00   0.0000000000000000e+00   0.0000000000000000e+00   0.0000000000000000e+00   0.0000000000000000e+00   0.0000000000000000e+00   0.0000000000000000e+00   0.0000000000000000e+00   0.0000000000000000e+00   0.0000000000000000e+00   0.0000000000000000e+00   0.0000000000000000e+00   0.0000000000000000e+00   0.0000000000000000e+00   0.0000000000000000e+00   0.0000000000000000e+00   0.0000000000000000e+00   0.0000000000000000e+00   0.0000000000000000e+00   0.0000000000000000e+00   0.0000000000000000e+00   0.0000000000000000e+00   0.0000000000000000e+00   0.0000000000000000e+00   0.0000000000000000e+00   0.0000000000000000e+00   0.0000000000000000e+00   0.0000000000000000e+00   0.0000000000000000e+00   0.0000000000000000e+00   0.0000000000000000e+00   0.0000000000000000e+00   0.0000000000000000e+00   0.0000000000000000e+00   0.0000000000000000e+00   0.0000000000000000e+00   0.0000000000000000e+00   0.0000000000000000e+00   0.0000000000000000e+00   0.0000000000000000e+00   0.0000000000000000e+00   0.0000000000000000e+00   0.0000000000000000e+00   0.0000000000000000e+00   0.0000000000000000e+00   0.0000000000000000e+00   0.0000000000000000e+00   0.0000000000000000e+00   0.0000000000000000e+00   0.0000000000000000e+00   0.0000000000000000e+00   0.0000000000000000e+00   0.0000000000000000e+00   0.0000000000000000e+00   0.0000000000000000e+00   0.0000000000000000e+00   0.0000000000000000e+00   0.0000000000000000e+00   0.0000000000000000e+00   0.0000000000000000e+00   0.0000000000000000e+00   0.0000000000000000e+00   0.0000000000000000e+00   0.0000000000000000e+00   0.0000000000000000e+00   0.0000000000000000e+00   0.0000000000000000e+00   0.0000000000000000e+00   0.0000000000000000e+00   0.0000000000000000e+00   0.0000000000000000e+00   0.0000000000000000e+00   0.0000000000000000e+00   0.0000000000000000e+00   0.0000000000000000e+00   0.0000000000000000e+00   0.0000000000000000e+00   0.0000000000000000e+00   0.0000000000000000e+00   0.0000000000000000e+00   0.0000000000000000e+00   0.0000000000000000e+00   0.0000000000000000e+00   0.0000000000000000e+00   0.0000000000000000e+00   3.1762942461162480e-07   0.0000000000000000e+00   2.1958228189152589e+00   3.0127175401904658e-05   2.1427791607941006e+05   1.6304587594756862e+02   3.7931536305702329e+06   2.0363183393977487e+06   3.2325529284989876e+06   3.1325717310592611e+06   2.5333277977927104e+06   2.4393008126252126e+06   1.7791133660801493e+06   1.6904566640103073e+06   9.7993236186021438e+05   9.0514862724091171e+05   2.8177971299677656e+05   3.1914214726947655e+05   8.5389397927675513e+05   1.0267377881120316e+06   9.5372954362106302e+03   1.2234394251696337e+06   4.7307256241028647e-03   1.1134448707136012e+02   9.5298809090374756e-10   3.2937208830041143e-05   0.0000000000000000e+00   0.0000000000000000e+00   0.0000000000000000e+00   0.0000000000000000e+00   0.0000000000000000e+00   0.0000000000000000e+00   0.0000000000000000e+00   0.0000000000000000e+00   0.0000000000000000e+00   0.0000000000000000e+00   0.0000000000000000e+00   0.0000000000000000e+00   0.0000000000000000e+00   0.0000000000000000e+00   0.0000000000000000e+00   0.0000000000000000e+00   0.0000000000000000e+00   0.0000000000000000e+00   0.0000000000000000e+00   0.0000000000000000e+00   0.0000000000000000e+00   0.0000000000000000e+00   3.7746314501049899e-08   4.6761188163011985e-08   2.8548246403504073e-02   2.3419783141124847e-02   1.0417475242788969e+04   8.6416697625668112e+03   1.3426281736496072e+06   1.6838309816957796e+06   7.0940718447503704e+05   8.9780070990067476e+05   7.5738291407004546e+05   2.6207535898099522e+05   1.5602991752187987e+06   1.2344336564031674e+06   2.1356465967574297e+06   5.8004505007666792e+05   2.6802156646969371e+00   6.3679706934660825e+00   4.4583517688196840e-07   1.0158996847491384e-06   0.0000000000000000e+00   0.0000000000000000e+00   0.0000000000000000e+00   0.0000000000000000e+00   0.0000000000000000e+00   0.0000000000000000e+00   0.0000000000000000e+00   0.0000000000000000e+00   0.0000000000000000e+00   0.0000000000000000e+00   0.0000000000000000e+00   0.0000000000000000e+00   0.0000000000000000e+00   0.0000000000000000e+00   0.0000000000000000e+00   0.0000000000000000e+00   0.0000000000000000e+00   0.0000000000000000e+00   0.0000000000000000e+00   0.0000000000000000e+00   0.0000000000000000e+00   0.0000000000000000e+00   0.0000000000000000e+00   0.0000000000000000e+00   0.0000000000000000e+00   0.0000000000000000e+00   0.0000000000000000e+00   0.0000000000000000e+00   0.0000000000000000e+00   0.0000000000000000e+00   0.0000000000000000e+00   0.0000000000000000e+00   0.0000000000000000e+00   0.0000000000000000e+00   0.0000000000000000e+00   0.0000000000000000e+00   0.0000000000000000e+00   0.0000000000000000e+00   0.0000000000000000e+00   0.0000000000000000e+00   0.0000000000000000e+00   0.0000000000000000e+00   0.0000000000000000e+00   0.0000000000000000e+00   0.0000000000000000e+00   0.0000000000000000e+00   0.0000000000000000e+00   0.0000000000000000e+00   0.0000000000000000e+00   0.0000000000000000e+00   0.0000000000000000e+00   0.0000000000000000e+00   0.0000000000000000e+00   0.0000000000000000e+00   0.0000000000000000e+00   0.0000000000000000e+00   0.0000000000000000e+00   0.0000000000000000e+00   0.0000000000000000e+00   0.0000000000000000e+00   0.0000000000000000e+00   0.0000000000000000e+00   0.0000000000000000e+00   0.0000000000000000e+00   0.0000000000000000e+00   0.0000000000000000e+00   0.0000000000000000e+00   0.0000000000000000e+00   0.0000000000000000e+00   0.0000000000000000e+00   0.0000000000000000e+00   0.0000000000000000e+00   0.0000000000000000e+00   0.0000000000000000e+00   0.0000000000000000e+00   0.0000000000000000e+00   0.0000000000000000e+00   0.0000000000000000e+00   0.0000000000000000e+00   0.0000000000000000e+00   0.00000000