<?xml version="1.0"?>
<VTKFile type="UnstructuredGrid"  version="0.1"  >
<UnstructuredGrid>
<Piece  NumberOfPoints="2429" NumberOfCells="4646">
<Points>
<DataArray  type="Float64"  NumberOfComponents="3"  format="ascii">0.2973913043478261 0.225 0  0.3056521739130434 0.225 0  0.3056521739130434 0.2333333333333333 0  0.3139130434782609 0.225 0  0.3139130434782609 0.2333333333333333 0  0.3221739130434783 0.225 0  0.3221739130434783 0.2333333333333333 0  0.3304347826086956 0.225 0  0.3304347826086956 0.2333333333333333 0  0.338695652173913 0.225 0  0.338695652173913 0.2333333333333333 0  0.3469565217391304 0.225 0  0.3469565217391304 0.2333333333333333 0  0.3552173913043478 0.225 0  0.3552173913043478 0.2333333333333333 0  0.3634782608695652 0.225 0  0.3634782608695652 0.2333333333333333 0  0.3717391304347826 0.225 0  0.3717391304347826 0.2333333333333333 0  0.3799999999999999 0.225 0  0.3799999999999999 0.2333333333333333 0  0.3882608695652174 0.225 0  0.3882608695652174 0.2333333333333333 0  0.3965217391304348 0.225 0  0.3965217391304348 0.2333333333333333 0  0.4047826086956521 0.225 0  0.4047826086956521 0.2333333333333333 0  0.4130434782608696 0.225 0  0.4130434782608696 0.2333333333333333 0  0.4213043478260869 0.225 0  0.4213043478260869 0.2333333333333333 0  0.4295652173913043 0.225 0  0.4295652173913043 0.2333333333333333 0  0.4378260869565217 0.225 0  0.4378260869565217 0.2333333333333333 0  0.4460869565217391 0.225 0  0.4460869565217391 0.2333333333333333 0  0.4543478260869565 0.225 0  0.4543478260869565 0.2333333333333333 0  0.4626086956521739 0.225 0  0.4626086956521739 0.2333333333333333 0  0.4708695652173913 0.225 0  0.4708695652173913 0.2333333333333333 0  0.4791304347826086 0.225 0  0.4791304347826086 0.2333333333333333 0  0.4873913043478261 0.225 0  0.4873913043478261 0.2333333333333333 0  0.4956521739130435 0.225 0  0.4956521739130435 0.2333333333333333 0  0.5039130434782608 0.225 0  0.5039130434782608 0.2333333333333333 0  0.5121739130434783 0.225 0  0.5121739130434783 0.2333333333333333 0  0.5204347826086956 0.225 0  0.5204347826086956 0.2333333333333333 0  0.528695652173913 0.225 0  0.528695652173913 0.2333333333333333 0  0.5369565217391304 0.225 0  0.5369565217391304 0.2333333333333333 0  0.5452173913043478 0.225 0  0.5452173913043478 0.2333333333333333 0  0.5534782608695652 0.225 0  0.5534782608695652 0.2333333333333333 0  0.5617391304347825 0.225 0  0.5617391304347825 0.2333333333333333 0  0.57 0.225 0  0.57 0.2333333333333333 0  0.5782608695652174 0.225 0  0.5782608695652174 0.2333333333333333 0  0.5865217391304348 0.225 0  0.5865217391304348 0.2333333333333333 0  0.5947826086956521 0.225 0  0.5947826086956521 0.2333333333333333 0  0.6030434782608696 0.225 0  0.6030434782608696 0.2333333333333333 0  0.6113043478260869 0.225 0  0.6113043478260869 0.2333333333333333 0  0.6195652173913043 0.225 0  0.6195652173913043 0.2333333333333333 0  0.6278260869565218 0.225 0  0.6278260869565218 0.2333333333333333 0  0.6360869565217391 0.225 0  0.6360869565217391 0.2333333333333333 0  0.6443478260869565 0.225 0  0.6443478260869565 0.2333333333333333 0  0.6526086956521739 0.225 0  0.6526086956521739 0.2333333333333333 0  0.6608695652173913 0.225 0  0.6608695652173913 0.2333333333333333 0  0.6691304347826087 0.225 0  0.6691304347826087 0.2333333333333333 0  0.677391304347826 0.225 0  0.677391304347826 0.2333333333333333 0  0.6856521739130435 0.225 0  0.6856521739130435 0.2333333333333333 0  0.6939130434782609 0.225 0  0.6939130434782609 0.2333333333333333 0  0.7021739130434783 0.225 0  0.7021739130434783 0.2333333333333333 0  0.7104347826086956 0.225 0  0.7104347826086956 0.2333333333333333 0  0.718695652173913 0.225 0  0.718695652173913 0.2333333333333333 0  0.7269565217391304 0.225 0  0.7269565217391304 0.2333333333333333 0  0.7352173913043478 0.225 0  0.7352173913043478 0.2333333333333333 0  0.7434782608695653 0.225 0  0.7434782608695653 0.2333333333333333 0  0.7517391304347827 0.225 0  0.7517391304347827 0.2333333333333333 0  0.7599999999999999 0.225 0  0.7599999999999999 0.2333333333333333 0  0.7682608695652173 0.225 0  0.7682608695652173 0.2333333333333333 0  0.7765217391304348 0.2333333333333333 0  0.3139130434782609 0.2416666666666667 0  0.3221739130434783 0.2416666666666667 0  0.3304347826086956 0.2416666666666667 0  0.338695652173913 0.2416666666666667 0  0.3469565217391304 0.2416666666666667 0  0.3552173913043478 0.2416666666666667 0  0.3634782608695652 0.2416666666666667 0  0.3717391304347826 0.2416666666666667 0  0.3799999999999999 0.2416666666666667 0  0.3882608695652174 0.2416666666666667 0  0.3965217391304348 0.2416666666666667 0  0.4047826086956521 0.2416666666666667 0  0.4130434782608696 0.2416666666666667 0  0.4213043478260869 0.2416666666666667 0  0.4295652173913043 0.2416666666666667 0  0.4378260869565217 0.2416666666666667 0  0.4460869565217391 0.2416666666666667 0  0.4543478260869565 0.2416666666666667 0  0.4626086956521739 0.2416666666666667 0  0.4708695652173913 0.2416666666666667 0  0.4791304347826086 0.2416666666666667 0  0.4873913043478261 0.2416666666666667 0  0.4956521739130435 0.2416666666666667 0  0.5039130434782608 0.2416666666666667 0  0.5121739130434783 0.2416666666666667 0  0.5204347826086956 0.2416666666666667 0  0.528695652173913 0.2416666666666667 0  0.5369565217391304 0.2416666666666667 0  0.5452173913043478 0.2416666666666667 0  0.5534782608695652 0.2416666666666667 0  0.5617391304347825 0.2416666666666667 0  0.57 0.2416666666666667 0  0.5782608695652174 0.2416666666666667 0  0.5865217391304348 0.2416666666666667 0  0.5947826086956521 0.2416666666666667 0  0.6030434782608696 0.2416666666666667 0  0.6113043478260869 0.2416666666666667 0  0.6195652173913043 0.2416666666666667 0  0.6278260869565218 0.2416666666666667 0  0.6360869565217391 0.2416666666666667 0  0.6443478260869565 0.2416666666666667 0  0.6526086956521739 0.2416666666666667 0  0.6608695652173913 0.2416666666666667 0  0.6691304347826087 0.2416666666666667 0  0.677391304347826 0.2416666666666667 0  0.6856521739130435 0.2416666666666667 0  0.6939130434782609 0.2416666666666667 0  0.7021739130434783 0.2416666666666667 0  0.7104347826086956 0.2416666666666667 0  0.718695652173913 0.2416666666666667 0  0.7269565217391304 0.2416666666666667 0  0.7352173913043478 0.2416666666666667 0  0.7434782608695653 0.2416666666666667 0  0.7517391304347827 0.2416666666666667 0  0.7599999999999999 0.2416666666666667 0  0.7682608695652173 0.2416666666666667 0  0.7765217391304348 0.2416666666666667 0  0.7847826086956522 0.2333333333333333 0  0.7847826086956522 0.2416666666666667 0  0.7930434782608695 0.2416666666666667 0  0.3221739130434783 0.25 0  0.3304347826086956 0.25 0  0.338695652173913 0.25 0  0.3469565217391304 0.25 0  0.3552173913043478 0.25 0  0.3634782608695652 0.25 0  0.3717391304347826 0.25 0  0.3799999999999999 0.25 0  0.3882608695652174 0.25 0  0.3965217391304348 0.25 0  0.4047826086956521 0.25 0  0.4130434782608696 0.25 0  0.4213043478260869 0.25 0  0.4295652173913043 0.25 0  0.4378260869565217 0.25 0  0.4460869565217391 0.25 0  0.4543478260869565 0.25 0  0.4626086956521739 0.25 0  0.4708695652173913 0.25 0  0.4791304347826086 0.25 0  0.4873913043478261 0.25 0  0.4956521739130435 0.25 0  0.5039130434782608 0.25 0  0.5121739130434783 0.25 0  0.5204347826086956 0.25 0  0.528695652173913 0.25 0  0.5369565217391304 0.25 0  0.5452173913043478 0.25 0  0.5534782608695652 0.25 0  0.5617391304347825 0.25 0  0.57 0.25 0  0.5782608695652174 0.25 0  0.5865217391304348 0.25 0  0.5947826086956521 0.25 0  0.6030434782608696 0.25 0  0.6113043478260869 0.25 0  0.6195652173913043 0.25 0  0.6278260869565218 0.25 0  0.6360869565217391 0.25 0  0.6443478260869565 0.25 0  0.6526086956521739 0.25 0  0.6608695652173913 0.25 0  0.6691304347826087 0.25 0  0.677391304347826 0.25 0  0.6856521739130435 0.25 0  0.6939130434782609 0.25 0  0.7021739130434783 0.25 0  0.7104347826086956 0.25 0  0.718695652173913 0.25 0  0.7269565217391304 0.25 0  0.7352173913043478 0.25 0  0.7434782608695653 0.25 0  0.7517391304347827 0.25 0  0.7599999999999999 0.25 0  0.7682608695652173 0.25 0  0.7765217391304348 0.25 0  0.7847826086956522 0.25 0  0.7930434782608695 0.25 0  0.8013043478260868 0.2416666666666667 0  0.8013043478260868 0.25 0  0.8095652173913043 0.2416666666666667 0  0.8095652173913043 0.25 0  0.8178260869565217 0.2416666666666667 0  0.8178260869565217 0.25 0  0.8260869565217391 0.2416666666666667 0  0.8260869565217391 0.25 0  0.8343478260869565 0.2416666666666667 0  0.8343478260869565 0.25 0  0.8426086956521739 0.2416666666666667 0  0.8426086956521739 0.25 0  0.8508695652173912 0.2416666666666667 0  0.8508695652173912 0.25 0  0.8591304347826086 0.2416666666666667 0  0.8591304347826086 0.25 0  0.8673913043478261 0.2416666666666667 0  0.8673913043478261 0.25 0  0.8756521739130434 0.2416666666666667 0  0.8756521739130434 0.25 0  0.8839130434782608 0.2416666666666667 0  0.8839130434782608 0.25 0  0.8921739130434783 0.2416666666666667 0  0.8921739130434783 0.25 0  0.9004347826086956 0.2416666666666667 0  0.9004347826086956 0.25 0  0.908695652173913 0.2416666666666667 0  0.908695652173913 0.25 0  0.9169565217391303 0.25 0  0.3304347826086956 0.2583333333333334 0  0.338695652173913 0.2583333333333334 0  0.3469565217391304 0.2583333333333334 0  0.3552173913043478 0.2583333333333334 0  0.3634782608695652 0.2583333333333334 0  0.3717391304347826 0.2583333333333334 0  0.3799999999999999 0.2583333333333334 0  0.3882608695652174 0.2583333333333334 0  0.3965217391304348 0.2583333333333334 0  0.4047826086956521 0.2583333333333334 0  0.4130434782608696 0.2583333333333334 0  0.4213043478260869 0.2583333333333334 0  0.4295652173913043 0.2583333333333334 0  0.4378260869565217 0.2583333333333334 0  0.4460869565217391 0.2583333333333334 0  0.4543478260869565 0.2583333333333334 0  0.4626086956521739 0.2583333333333334 0  0.4708695652173913 0.2583333333333334 0  0.4791304347826086 0.2583333333333334 0  0.4873913043478261 0.2583333333333334 0  0.4956521739130435 0.2583333
[...]
<CellData  Scalars="rho"> 
<DataArray  type="Float64"  Name="rho"  format="ascii">2.4941138703709208e-03   3.7727869696114772e-03   2.8524744493472025e-03   7.9214913812775175e-03   6.9392502747908221e-03   1.0087206760605082e-02   8.8282100815394240e-03   1.4410646523370475e-02   1.2638651012044423e-02   1.7778554133159687e-02   1.7013976463186652e-02   2.4431036899986807e-02   2.0769082731242148e-02   2.9459074032380211e-02   2.4882488109512341e-02   3.5070701222962637e-02   3.1223516061746358e-02   4.1879791859279619e-02   3.6998194638654669e-02   4.8605113038527610e-02   4.3255230976774493e-02   5.6697740891315671e-02   4.9552851548116457e-02   6.3495815040394352e-02   5.5758787202890826e-02   6.9969616038431964e-02   6.3364400283846017e-02   7.6044271056657467e-02   6.9267985884621269e-02   8.1896859334936234e-02   7.4967954822918279e-02   8.5497248502391834e-02   7.8639457855962144e-02   8.8505825761718893e-02   8.1728331107214350e-02   9.5373219982180041e-02   8.8084709732450694e-02   1.0575287887605410e-01   9.7379344665938714e-02   1.1882538352016743e-01   1.0871354834919390e-01   1.1406061220237812e-01   1.0663445967856813e-01   1.2768118452458374e-01   1.1909815340306606e-01   1.4906047147070289e-01   1.3987989536081957e-01   2.1467784896093603e-01   1.4850119087900884e-01   4.2794992346035632e-01   2.5008863623929112e-01   9.0297850747913022e-01   4.5556327622629755e-01   1.0000000000000000e+00   9.6743144702957684e-01   1.0000000000000000e+00   1.0000000000000000e+00   9.9969204171186954e-01   1.0000000000000000e+00   9.9848726876905602e-01   9.9933155334925705e-01   9.9528401445723924e-01   9.9657284701520832e-01   9.9290189981382193e-01   9.9493194309590305e-01   9.8969208722066127e-01   9.9176491762199004e-01   9.8143676113887113e-01   9.8968278692809242e-01   9.7260341323884059e-01   9.8181135681114706e-01   9.6384748116262364e-01   9.7315658116883241e-01   9.5376348254326460e-01   9.6519009228443775e-01   9.3598385185514088e-01   9.5535052794414399e-01   9.0452989526839367e-01   9.3699177846993298e-01   8.4764843942304113e-01   9.0123255489869847e-01   7.2828582148223597e-01   8.4247434446792724e-01   3.9177855198340128e-01   7.0386821923706888e-01   1.6437961300678683e-01   3.6417367254079819e-01   0.0000000000000000e+00   1.8212392278569534e-01   0.0000000000000000e+00   0.0000000000000000e+00   0.0000000000000000e+00   0.0000000000000000e+00   0.0000000000000000e+00   0.0000000000000000e+00   0.0000000000000000e+00   0.0000000000000000e+00   0.0000000000000000e+00   0.0000000000000000e+00   0.0000000000000000e+00   0.0000000000000000e+00   0.0000000000000000e+00   0.0000000000000000e+00   0.0000000000000000e+00   0.0000000000000000e+00   0.0000000000000000e+00   0.0000000000000000e+00   0.0000000000000000e+00   0.0000000000000000e+00   0.0000000000000000e+00   0.0000000000000000e+00   0.0000000000000000e+00   0.0000000000000000e+00   0.0000000000000000e+00   2.3120442347526362e-03   6.7154402234933953e-03   3.8525178474404309e-03   8.4950741251706829e-03   7.3735939314433291e-03   1.2090001032345407e-02   9.2608455651741438e-03   1.4899791842011310e-02   1.3067174698549171e-02   1.9580470376157819e-02   1.7956212011532181e-02   2.4342509721578271e-02   2.1522459204052970e-02   2.8821072522604806e-02   2.5488157727421658e-02   3.3829463366670434e-02   2.9907896085412024e-02   3.9320044456471311e-02   3.4765713474776069e-02   4.4836698691874274e-02   3.9943384573694354e-02   5.0290968702943237e-02   4.5109872729545260e-02   5.5633264804581167e-02   5.0211756292774905e-02   6.0833877448108468e-02   5.5206622041540955e-02   6.6064138616841225e-02   6.0221522334718738e-02   6.9236605828377817e-02   6.3016673442092122e-02   7.4936678950504140e-02   6.8979991299771976e-02   8.2593290412169007e-02   7.5960812158850491e-02   9.1750606029198198e-02   8.4228851084907949e-02   8.5498799162873257e-02   7.8333302545881153e-02   9.5067569548444725e-02   8.7023888656573359e-02   1.1307981385123234e-01   9.6162658659784087e-02   1.2344048197551723e-01   1.1348365460027972e-01   1.3365629306421131e-01   1.2239929954269564e-01   1.5170741351771305e-01   1.3093327692494658e-01   3.1263253058058293e-01   1.4138840893779045e-01   5.8719983086069150e-01   3.2981531202438308e-01   1.0000000000000000e+00   7.0125111732710044e-01   1.0000000000000000e+00   1.0000000000000000e+00   9.9987681681870666e-01   1.0000000000000000e+00   9.9777542951412435e-01   9.9975326284704535e-01   9.9602405574337638e-01   9.9769837506245540e-01   9.9461760047096026e-01   9.9592913304957653e-01   9.9235564180613933e-01   9.9459367085849326e-01   9.9012117024725377e-01   9.9313887350847219e-01   9.8501382395144521e-01   9.9039835642664886e-01   9.7501972938059911e-01   9.8574574071936349e-01   9.6787804872832883e-01   9.7564295109181809e-01   9.5769652595080990e-01   9.6852734644406857e-01   9.3713155470695420e-01   9.5789438201729471e-01   8.9366051556391080e-01   9.3610310336516755e-01   8.2169366483788842e-01   8.8806664587951156e-01   6.5251403730233115e-01   8.1113399897305494e-01   2.7955923416601253e-01   6.7264088135816735e-01   7.3590351689241454e-02   2.5006901283319327e-01   0.0000000000000000e+00   0.0000000000000000e+00   0.0000000000000000e+00   0.0000000000000000e+00   0.0000000000000000e+00   0.0000000000000000e+00   0.0000000000000000e+00   0.0000000000000000e+00   0.0000000000000000e+00   0.0000000000000000e+00   0.0000000000000000e+00   0.0000000000000000e+00   0.0000000000000000e+00   0.0000000000000000e+00   0.0000000000000000e+00   0.0000000000000000e+00   0.0000000000000000e+00   0.0000000000000000e+00   0.0000000000000000e+00   0.0000000000000000e+00   0.0000000000000000e+00   0.0000000000000000e+00   0.0000000000000000e+00   0.0000000000000000e+00   0.0000000000000000e+00   0.0000000000000000e+00   0.0000000000000000e+00   3.6578228398254208e-03   6.9639707537170262e-03   4.3455152340925556e-03   8.7054062805818205e-03   7.4929259423385805e-03   1.2223338276194259e-02   9.3189249205066337e-03   1.4809705919738436e-02   1.2964865452925823e-02   1.9155089795652974e-02   1.6862103870771878e-02   2.4389732758172564e-02   1.9916400212431771e-02   2.7224382555514629e-02   2.5115883913198123e-02   3.1345316295093607e-02   2.7774325073802307e-02   3.5752024774826814e-02   3.1707832219584925e-02   4.0329588826265923e-02   3.5874396851353532e-02   4.4867233832772753e-02   4.0009372957167368e-02   4.8509077021223965e-02   4.3748653339705602e-02   5.2890183581992989e-02   4.8339256158615854e-02   5.8150771585900887e-02   5.3366716536205394e-02   6.4052224723466722e-02   5.8675417815501979e-02   7.0917197360577444e-02   6.4947940983214034e-02   6.5805096468446761e-02   6.0222793085830596e-02   7.3049598057554052e-02   6.6844214950725234e-02   8.0754357941975385e-02   7.3924512923663407e-02   9.2422154004021206e-02   8.1131707802430994e-02   1.0042984068396218e-01   9.2172869563937054e-02   1.0699041191458861e-01   9.9106737915669069e-02   1.1286546543094152e-01   1.0435293755892783e-01   1.1215241941999783e-01   1.0454586781868894e-01   1.3820041405239505e-01   1.0791331699381136e-01   4.0749279085394013e-01   1.4385098375806946e-01   7.7130272848892445e-01   3.9915621322673528e-01   1.0000000000000000e+00   7.6215275280397532e-01   1.0000000000000000e+00   1.0000000000000000e+00   9.9806394375037766e-01   1.0000000000000000e+00   9.9770363536134055e-01   9.9809192410356118e-01   9.9602599644876133e-01   9.9775078508818893e-01   9.9475500367928216e-01   9.9733048563648274e-01   9.9354767182749115e-01   9.9485589586772460e-01   9.9092330628059933e-01   9.9370308635085880e-01   9.8669719659775845e-01   9.9107750159939456e-01   9.7629320260188679e-01   9.8667589340843165e-01   9.6818181088703359e-01   9.7605987956275708e-01   9.5073045139905421e-01   9.6709231771557225e-01   9.3063124078355808e-01   9.4767758994237883e-01   8.7485468827084600e-01   9.2072143971710763e-01   7.8966864384655300e-01   8.6746722622147143e-01   6.1604518310775669e-01   7.7744492827071343e-01   2.8177105559165200e-01   5.7504956197151136e-01   0.0000000000000000e+00   1.8114741862573522e-01   0.0000000000000000e+00   0.0000000000000000e+00   0.0000000000000000e+00   0.0000000000000000e+00   0.0000000000000000e+00   0.0000000000000000e+00   0.0000000000000000e+00   0.0000000000000000e+00   0.0000000000000000e+00   0.0000000000000000e+00   0.0000000000000000e+00   0.0000000000000000e+00   0.0000000000000000e+00   0.0000000000000000e+00   0.0000000000000000e+00   0.0000000000000000e+00   0.0000000000000000e+00   0.0000000000000000e+00   0.0000000000000000e+00   0.0000000000000000e+00   0.0000000000000000e+00   0.0000000000000000e+00   0.0000000000000000e+00   0.0000000000000000e+00   0.0000000000000000e+00   0.0000000000000000e+00   0.0000000000000000e+00   0.0000000000000000e+00   0.0000000000000000e+00   0.0000000000000000e+00   0.0000000000000000e+00   0.0000000000000000e+00   3.0600207263040862e-07   2.3782078336160406e-06   8.9447071750456625e-07   3.6882673639757161e-06   1.2370465981308205e-06   1.2833267253788572e-05   6.2123685841347845e-06   6.6997471241889365e-06   7.8144976528471997e-06   1.4666010153019445e-05   7.0882382807451985e-06   1.2786734909855789e-05   7.1417258167468317e-06   1.0635562893989458e-05   6.8114417194601870e-06   8.3871455299648857e-06   4.5288770125961723e-06   7.7113881788049427e-06   4.1182717758147024e-06   5.7315813231871253e-06   4.3957541632274954e-06   3.6971651503772043e-03   6.9461223852238197e-03   4.3159602545882539e-03   8.5724597467599847e-03   7.6855534704215762e-03   1.0408760421203535e-02   9.0278268982856603e-03   1.4230056169921016e-02   1.0871888331209487e-02   1.6766001083208359e-02   1.4740069789931275e-02   2.1931097244235021e-02   1.7929197139556791e-02   2.5230407016185601e-02   2.2373692965143094e-02   2.8645348255508709e-02   2.5549529227407657e-02   3.2233044053225267e-02   2.8962491923369114e-02   3.5995780226322466e-02   3.2486761150917996e-02   4.0028918100370410e-02   3.6174678652088177e-02   4.4290627225937705e-02   4.0230816032133798e-02   4.9074077318750811e-02   4.4661573979849364e-02   4.5238602360697294e-02   4.1222334601056738e-02   5.0332847962215814e-02   4.5900568096076809e-02   5.5904806971783266e-02   5.1013416110733963e-02   6.1906657226507539e-02   5.6538510606377108e-02   6.6900715434312488e-02   6.1200635496659592e-02   7.5676445959462837e-02   6.6915624960355358e-02   8.1807206340546237e-02   7.5189960218461777e-02   8.9606453521474935e-02   8.0582877156903321e-02   9.4327009244653717e-02   8.7468576970952838e-02   9.3441223662542330e-02   8.7161902368478830e-02   7.0642447764691349e-02   6.6140140709166712e-02   6.7378385379197769e-02   6.1424544418289137e-02   2.6015852978468301e-01   6.2686007896517931e-02   4.7369804719963082e-01   2.9111289259615791e-01   8.2451413138884655e-01   4.8489702458305767e-01   1.0000000000000000e+00   8.1594940870551003e-01   1.0000000000000000e+00   1.0000000000000000e+00   9.9824509856050925e-01   1.0000000000000000e+00   9.9789105662781041e-01   9.9833187365166243e-01   9.9746343172346552e-01   9.9795268115500524e-01   9.9500782319263226e-01   9.9749701476832475e-01   9.9373817723360069e-01   9.9500617665326319e-01   9.9099784005808622e-01   9.9364110546675433e-01   9.8539177809250278e-01   9.9070633363264715e-01   9.7487576189200886e-01   9.8146141968722023e-01   9.6244633126791979e-01   9.7259467495433372e-01   9.3902041176687057e-01   9.5879020003912041e-01   9.0856940681795662e-01   9.3400092721145078e-01   8.3111934197444437e-01   9.0206803417208070e-01   7.5717032225589653e-01   8.2044440422521370e-01   5.7771311852609997e-01   7.4752556363501010e-01   1.4118675353400062e-01   5.4422201587477992e-01   0.0000000000000000e+00   1.2116392446982373e-01   0.0000000000000000e+00   0.0000000000000000e+00   0.0000000000000000e+00   0.0000000000000000e+00   0.0000000000000000e+00   0.0000000000000000e+00   0.0000000000000000e+00   0.0000000000000000e+00   0.0000000000000000e+00   0.0000000000000000e+00   0.0000000000000000e+00   0.0000000000000000e+00   0.0000000000000000e+00   0.0000000000000000e+00   0.0000000000000000e+00   0.0000000000000000e+00   0.0000000000000000e+00   0.0000000000000000e+00   0.0000000000000000e+00   0.0000000000000000e+00   0.0000000000000000e+00   0.0000000000000000e+00   0.0000000000000000e+00   0.0000000000000000e+00   0.0000000000000000e+00   0.0000000000000000e+00   6.3729500992015474e-06   2.7582306617030283e-06   1.4983831811324456e-05   1.9630407556940690e-05   2.4343376761676911e-05   3.0471763029576995e-05   3.1993683764977998e-05   3.9479145850178702e-05   3.5407968055103061e-05   4.3599980515839759e-05   3.5672736293083483e-05   4.4073381370277341e-05   2.3635226151293198e-05   4.1958816004045063e-05   1.7929386800049056e-05   2.6710074373389046e-05   1.6384764333796881e-05   1.9641378523796946e-05   1.2129915703780724e-05   1.7506232278255469e-05   8.7811766580895590e-06   1.5207182055868270e-05   7.5406686604534895e-06   1.2959966617932698e-05   1.0991252821533271e-05   2.8931853446144394e-03   6.6778582932382636e-03   4.1041776223340442e-03   8.4519926304813461e-03   7.2864035944537955e-03   9.8011643846822611e-03   8.7777397044062327e-03   1.1641265487562537e-02   1.0113166431945602e-02   1.3640523946912932e-02   1.1949184052048244e-02   1.8675028829195365e-02   1.3942563431359512e-02   2.2231852964966155e-02   1.6339929778169109e-02   2.5235255497931732e-02   1.9039146006021117e-02   2.8425047879264233e-02   2.1619358993350463e-02   3.1878015307835392e-02   2.4431326315149774e-02   3.0476808578680025e-02   2.7494766688818149e-02   3.4107100357507969e-02   3.0845275762023502e-02   3.8089477722392573e-02   3.4515505566244074e-02   4.2308050744216272e-02   3.8398504838365613e-02   4.7004284646758404e-02   4.2014896507801901e-02   5.1062664319089943e-02   4.6510061431316738e-02   5.6068841721855500e-02   5.1184696977450483e-02   6.1060341421178367e-02   5.5905334343775634e-02   6.8316076441221313e-02   6.2732127562677431e-02   7.2934269231048843e-02   6.7281298588521110e-02   7.8903475361192729e-02   7.1422284828185426e-02   5.2522158866311043e-02   4.9051319100302027e-02   5.3141340827176468e-02   4.9023492808703648e-02   5.3527838436130667e-02   5.0564770425997808e-02   5.3941308730136847e-02   4.8158762118400457e-02   8.4756576191366798e-02   4.5480243103433390e-02   3.5025884698508331e-01   1.1615704243887826e-01   5.8992148967898483e-01   3.8116010054516164e-01   8.9277781365521558e-01   6.7187412473063324e-01   1.0000000000000000e+00   9.4982443985616405e-01   1.0000000000000000e+00   1.0000000000000000e+00   9.9846894724827151e-01   1.0000000000000000e+00   9.9799810687777024e-01   9.9849184786494893e-01   9.9748015409008728e-01   9.9797492166232671e-01   9.9477234968915795e-01   9.9741975590960164e-01   9.9321515746477229e-01   9.9453921888011476e-01   9.8964231329151420e-01   9.9236398734431430e-01   9.7762346530858657e-01   9.8779796185705471e-01   9.6645741315424771e-01   9.7637702636409063e-01   9.4994749991862715e-01   9.6261368713550866e-01   9.2315216831391178e-01   9.4147835169297278e-01   8.8986891263178458e-01   9.1798892474165639e-01   8.0345474192300426e-01   8.8441841516100161e-01   7.3466929912011469e-01   7.8871201992917073e-01   3.1790495118017587e-01   7.3055827335304957e-01   8.9775075189060707e-02   2.8594903225422391e-01   0.0000000000000000e+00   0.0000000000000000e+00   0.0000000000000000e+00   0.0000000000000000e+00   0.0000000000000000e+00   0.0000000000000000e+00   0.0000000000000000e+00   0.0000000000000000e+00   0.0000000000000000e+00   0.0000000000000000e+00   0.0000000000000000e+00   0.0000000000000000e+00   0.0000000000000000e+00   0.0000000000000000e+00   0.0000000000000000e+00   0.0000000000000000e+00   0.0000000000000000e+00   0.0000000000000000e+00   0.0000000000000000e+00   0.0000000000000000e+00   2.0245293370738306e-06   2.7591665986903881e-06   6.8274011456279228e-06   8.0669818787565340e-06   3.1338498747843633e-05   3.6585737782117249e-05   4.6867840395384675e-05   5.4509640064089264e-05   5.6181691130705959e-05   6.5487910706130468e-05   6.2141796454249300e-05   7.2716722001663750e-05   6.3224948303483526e-05   7.4282666930881619e-05   6.0823483491560810e-05   7.1784586256441060e-05   5.6092609498353268e-05   6.6558116729043852e-05   5.9941809606605404e-05   7.1604491661379877e-05   3.6204689626272626e-05   6.2325898987254603e-05   2.5744935716875439e-05   3.6917353463555367e-05   2.6546186461389189e-05   3.7488075872784859e-05   2.6831300753506305e-05   3.1748935322713393e-05   1.8539915007445870e-05   3.1678965553691469e-05   1.5348880340980692e-05   2.1637654187195879e-05   1.4798866083875125e-05   2.6718186659325039e-03   4.1388709582388574e-03   2.7812182180061750e-03   6.9223068578889496e-03   3.9833466727555470e-03   8.9126771514659274e-03   7.1167561234484859e-03   1.0731159813903530e-02   8.7603219884930927e-03   1.2428877298209715e-02   1.0734125669386217e-02   1.4416304217108700e-02   1.2605632629016874e-02   1.6571678621929969e-02   1.4596360358034766e-02   1.9162439492326242e-02   1.6744431097866507e-02   2.1741449675784386e-02   1.9093675545713378e-02   2.4557042700550293e-02   2.1947575242151615e-02   2.7627041589177791e-02   2.4778975259935488e-02   3.0992406476296704e-02   2.7878100787827900e-02   3.4606939075951713e-02   3.1213129249514915e-02   3.8365010838955972e-02   3.4791092093175241e-02   4.2421303566629605e-02   3.8466528596049730e-02   4.6595015629721501e-02   4.2378880442827359e-02   5.0898088193355062e-02   4.6451574605415977e-02   5.6946581093295666e-02   5.0266386333164596e-02   5.9787220228740660e-02   5.4193567303473286e-02   4.5312535663765058e-02   4.1112018390193225e-02   4.2832520538017151e-02   4.0037135853505004e-02   4.4616264764491188e-02   4.1751759968239065e-02   4.2404550392948499e-02   3.9673976146737323e-02   3.3949483868515762e-02   3.1446872458528674e-02   4.3621559726465794e-02   4.0308340943115230e-02   5.0781928433916934e-02   4.7519426296533995e-02   1.8099729900018641e-01   6.1387162437104605e-02   4.7008751184156494e-01   2.1230844839443427e-01   7.3030862481238290e-01   4.9177744816789976e-01   1.0000000000000000e+00   7.6297061548963663e-01   1.0000000000000000e+00   1.0000000000000000e+00   1.0000000000000000e+00   1.0000000000000000e+00   9.9840624279626811e-01   1.0000000000000000e+00   9.9781616234405535e-01   9.9829708083331492e-01   9.9671397647594540e-01   9.9767524861905432e-01   9.9384363748717919e-01   9.9525349955973408e-01   9.9081929838470073e-01   9.9343023997646562e-01   9.8143006589293158e-01   9.8981043070009334e-01   9.6976587326914110e-01   9.7861922387502653e-01   9.5464421785026254e-01   9.6669439755399267e-01   9.3262849678298454e-01   9.5124671434137886e-01   9.0926258608094601e-01   9.2825744027636570e-01   8.7628398139856212e-01   9.0620605700401957e-01   7.7845679129684398e-01   8.7322698663164233e-01   7.2249642854829821e-01   7.7439685611170783e-01   2.2162817923623904e-01   7.0896723045799270e-01   0.0000000000000000e+00   2.0086650848892776e-01   0.0000000000000000e+00   0.0000000000000000e+00   0.0000000000000000e+00   0.0000000000000000e+00   0.0000000000000000e+00   0.0000000000000000e+00   0.0000000000000000e+00   0.0000000000000000e+00   0.0000000000000000e+00   0.0000000000000000e+00   0.0000000000000000e+00   0.0000000000000000e+00   0.0000000000000000e+00   0.0000000000000000e+00   3.2281453057214582e-06   2.5134134481900628e-06   8.7679668013329736e-06   7.3009619034278859e-06   4.7186166274909950e-05   5.1999958736242016e-05   7.2805309815782653e-05   8.2159957376188035e-05   8.6399831288541445e-05   9.8020117633765047e-05   9.6915227257936688e-05   1.1079631261981076e-04   9.9822454875056777e-05   1.1471679565420234e-04   9.7221697317703156e-05   1.1218923648234620e-04   9.0892322437529892e-05   1.0527442766809410e-04   9.8722862290579117e-05   1.1477350485767339e-04   1.0433499312910529e-04   1.2180961901699315e-04   1.0758217373033528e-04   1.5149203710762099