<?xml version="1.0"?>
<VTKFile type="UnstructuredGrid"  version="0.1"  >
<UnstructuredGrid>
<Piece  NumberOfPoints="2293" NumberOfCells="4385">
<Points>
<DataArray  type="Float64"  NumberOfComponents="3"  format="ascii">2.147826086956522 0 0  2.156086956521739 0 0  2.156086956521739 0.008333333333333333 0  2.147826086956522 0.008333333333333333 0  2.164347826086956 0 0  2.164347826086956 0.008333333333333333 0  2.172608695652174 0 0  2.172608695652174 0.008333333333333333 0  2.180869565217391 0 0  2.180869565217391 0.008333333333333333 0  2.189130434782609 0 0  2.189130434782609 0.008333333333333333 0  2.197391304347826 0 0  2.197391304347826 0.008333333333333333 0  2.205652173913043 0 0  2.205652173913043 0.008333333333333333 0  2.213913043478261 0 0  2.213913043478261 0.008333333333333333 0  2.222173913043478 0 0  2.222173913043478 0.008333333333333333 0  2.230434782608695 0 0  2.230434782608695 0.008333333333333333 0  2.238695652173913 0 0  2.238695652173913 0.008333333333333333 0  2.24695652173913 0 0  2.24695652173913 0.008333333333333333 0  2.255217391304348 0 0  2.255217391304348 0.008333333333333333 0  2.263478260869565 0 0  2.263478260869565 0.008333333333333333 0  2.271739130434783 0 0  2.271739130434783 0.008333333333333333 0  2.28 0 0  2.28 0.008333333333333333 0  2.288260869565217 0 0  2.288260869565217 0.008333333333333333 0  2.296521739130434 0 0  2.296521739130434 0.008333333333333333 0  2.304782608695652 0 0  2.304782608695652 0.008333333333333333 0  2.31304347826087 0 0  2.31304347826087 0.008333333333333333 0  2.321304347826087 0 0  2.321304347826087 0.008333333333333333 0  2.329565217391304 0 0  2.329565217391304 0.008333333333333333 0  2.337826086956521 0 0  2.337826086956521 0.008333333333333333 0  2.346086956521739 0 0  2.346086956521739 0.008333333333333333 0  2.354347826086956 0 0  2.354347826086956 0.008333333333333333 0  2.362608695652174 0 0  2.362608695652174 0.008333333333333333 0  2.370869565217391 0 0  2.370869565217391 0.008333333333333333 0  2.379130434782609 0 0  2.379130434782609 0.008333333333333333 0  2.387391304347826 0 0  2.387391304347826 0.008333333333333333 0  2.395652173913044 0 0  2.395652173913044 0.008333333333333333 0  2.403913043478261 0 0  2.403913043478261 0.008333333333333333 0  2.412173913043478 0 0  2.412173913043478 0.008333333333333333 0  2.420434782608695 0 0  2.420434782608695 0.008333333333333333 0  2.428695652173913 0 0  2.428695652173913 0.008333333333333333 0  2.43695652173913 0 0  2.43695652173913 0.008333333333333333 0  2.445217391304348 0 0  2.445217391304348 0.008333333333333333 0  2.453478260869565 0 0  2.453478260869565 0.008333333333333333 0  2.461739130434782 0 0  2.461739130434782 0.008333333333333333 0  2.47 0 0  2.47 0.008333333333333333 0  2.478260869565217 0 0  2.478260869565217 0.008333333333333333 0  2.486521739130435 0 0  2.486521739130435 0.008333333333333333 0  2.494782608695652 0 0  2.494782608695652 0.008333333333333333 0  2.503043478260869 0 0  2.503043478260869 0.008333333333333333 0  2.511304347826087 0 0  2.511304347826087 0.008333333333333333 0  2.519565217391305 0 0  2.519565217391305 0.008333333333333333 0  2.527826086956522 0 0  2.527826086956522 0.008333333333333333 0  2.536086956521739 0 0  2.536086956521739 0.008333333333333333 0  2.544347826086956 0 0  2.544347826086956 0.008333333333333333 0  2.552608695652174 0 0  2.552608695652174 0.008333333333333333 0  2.560869565217391 0 0  2.560869565217391 0.008333333333333333 0  2.569130434782608 0 0  2.569130434782608 0.008333333333333333 0  2.577391304347826 0 0  2.577391304347826 0.008333333333333333 0  2.585652173913043 0 0  2.585652173913043 0.008333333333333333 0  2.593913043478261 0 0  2.593913043478261 0.008333333333333333 0  2.602173913043478 0 0  2.602173913043478 0.008333333333333333 0  2.610434782608696 0 0  2.610434782608696 0.008333333333333333 0  2.618695652173913 0 0  2.618695652173913 0.008333333333333333 0  2.156086956521739 0.01666666666666667 0  2.164347826086956 0.01666666666666667 0  2.172608695652174 0.01666666666666667 0  2.180869565217391 0.01666666666666667 0  2.189130434782609 0.01666666666666667 0  2.197391304347826 0.01666666666666667 0  2.205652173913043 0.01666666666666667 0  2.213913043478261 0.01666666666666667 0  2.222173913043478 0.01666666666666667 0  2.230434782608695 0.01666666666666667 0  2.238695652173913 0.01666666666666667 0  2.24695652173913 0.01666666666666667 0  2.255217391304348 0.01666666666666667 0  2.263478260869565 0.01666666666666667 0  2.271739130434783 0.01666666666666667 0  2.28 0.01666666666666667 0  2.288260869565217 0.01666666666666667 0  2.296521739130434 0.01666666666666667 0  2.304782608695652 0.01666666666666667 0  2.31304347826087 0.01666666666666667 0  2.321304347826087 0.01666666666666667 0  2.329565217391304 0.01666666666666667 0  2.337826086956521 0.01666666666666667 0  2.346086956521739 0.01666666666666667 0  2.354347826086956 0.01666666666666667 0  2.362608695652174 0.01666666666666667 0  2.370869565217391 0.01666666666666667 0  2.379130434782609 0.01666666666666667 0  2.387391304347826 0.01666666666666667 0  2.395652173913044 0.01666666666666667 0  2.403913043478261 0.01666666666666667 0  2.412173913043478 0.01666666666666667 0  2.420434782608695 0.01666666666666667 0  2.428695652173913 0.01666666666666667 0  2.43695652173913 0.01666666666666667 0  2.445217391304348 0.01666666666666667 0  2.453478260869565 0.01666666666666667 0  2.461739130434782 0.01666666666666667 0  2.47 0.01666666666666667 0  2.478260869565217 0.01666666666666667 0  2.486521739130435 0.01666666666666667 0  2.494782608695652 0.01666666666666667 0  2.503043478260869 0.01666666666666667 0  2.511304347826087 0.01666666666666667 0  2.519565217391305 0.01666666666666667 0  2.527826086956522 0.01666666666666667 0  2.536086956521739 0.01666666666666667 0  2.544347826086956 0.01666666666666667 0  2.552608695652174 0.01666666666666667 0  2.560869565217391 0.01666666666666667 0  2.569130434782608 0.01666666666666667 0  2.577391304347826 0.01666666666666667 0  2.585652173913043 0.01666666666666667 0  2.593913043478261 0.01666666666666667 0  2.602173913043478 0.01666666666666667 0  2.610434782608696 0.01666666666666667 0  2.618695652173913 0.01666666666666667 0  2.164347826086956 0.025 0  2.172608695652174 0.025 0  2.180869565217391 0.025 0  2.189130434782609 0.025 0  2.197391304347826 0.025 0  2.205652173913043 0.025 0  2.213913043478261 0.025 0  2.222173913043478 0.025 0  2.230434782608695 0.025 0  2.238695652173913 0.025 0  2.24695652173913 0.025 0  2.255217391304348 0.025 0  2.263478260869565 0.025 0  2.271739130434783 0.025 0  2.28 0.025 0  2.288260869565217 0.025 0  2.296521739130434 0.025 0  2.304782608695652 0.025 0  2.31304347826087 0.025 0  2.321304347826087 0.025 0  2.329565217391304 0.025 0  2.337826086956521 0.025 0  2.346086956521739 0.025 0  2.354347826086956 0.025 0  2.362608695652174 0.025 0  2.370869565217391 0.025 0  2.379130434782609 0.025 0  2.387391304347826 0.025 0  2.395652173913044 0.025 0  2.403913043478261 0.025 0  2.412173913043478 0.025 0  2.420434782608695 0.025 0  2.428695652173913 0.025 0  2.43695652173913 0.025 0  2.445217391304348 0.025 0  2.453478260869565 0.025 0  2.461739130434782 0.025 0  2.47 0.025 0  2.478260869565217 0.025 0  2.486521739130435 0.025 0  2.494782608695652 0.025 0  2.503043478260869 0.025 0  2.511304347826087 0.025 0  2.519565217391305 0.025 0  2.527826086956522 0.025 0  2.536086956521739 0.025 0  2.544347826086956 0.025 0  2.552608695652174 0.025 0  2.560869565217391 0.025 0  2.569130434782608 0.025 0  2.577391304347826 0.025 0  2.585652173913043 0.025 0  2.593913043478261 0.025 0  2.602173913043478 0.025 0  2.610434782608696 0.025 0  2.618695652173913 0.025 0  2.62695652173913 0.025 0  2.172608695652174 0.03333333333333333 0  2.180869565217391 0.03333333333333333 0  2.189130434782609 0.03333333333333333 0  2.197391304347826 0.03333333333333333 0  2.205652173913043 0.03333333333333333 0  2.213913043478261 0.03333333333333333 0  2.222173913043478 0.03333333333333333 0  2.230434782608695 0.03333333333333333 0  2.238695652173913 0.03333333333333333 0  2.24695652173913 0.03333333333333333 0  2.255217391304348 0.03333333333333333 0  2.263478260869565 0.03333333333333333 0  2.271739130434783 0.03333333333333333 0  2.28 0.03333333333333333 0  2.288260869565217 0.03333333333333333 0  2.296521739130434 0.03333333333333333 0  2.304782608695652 0.03333333333333333 0  2.31304347826087 0.03333333333333333 0  2.321304347826087 0.03333333333333333 0  2.329565217391304 0.03333333333333333 0  2.337826086956521 0.03333333333333333 0  2.346086956521739 0.03333333333333333 0  2.354347826086956 0.03333333333333333 0  2.362608695652174 0.03333333333333333 0  2.370869565217391 0.03333333333333333 0  2.379130434782609 0.03333333333333333 0  2.387391304347826 0.03333333333333333 0  2.395652173913044 0.03333333333333333 0  2.403913043478261 0.03333333333333333 0  2.412173913043478 0.03333333333333333 0  2.420434782608695 0.03333333333333333 0  2.428695652173913 0.03333333333333333 0  2.43695652173913 0.03333333333333333 0  2.445217391304348 0.03333333333333333 0  2.453478260869565 0.03333333333333333 0  2.461739130434782 0.03333333333333333 0  2.47 0.03333333333333333 0  2.478260869565217 0.03333333333333333 0  2.486521739130435 0.03333333333333333 0  2.494782608695652 0.03333333333333333 0  2.503043478260869 0.03333333333333333 0  2.511304347826087 0.03333333333333333 0  2.519565217391305 0.03333333333333333 0  2.527826086956522 0.03333333333333333 0  2.536086956521739 0.03333333333333333 0  2.544347826086956 0.03333333333333333 0  2.552608695652174 0.03333333333333333 0  2.560869565217391 0.03333333333333333 0  2.569130434782608 0.03333333333333333 0  2.577391304347826 0.03333333333333333 0  2.585652173913043 0.03333333333333333 0  2.593913043478261 0.03333333333333333 0  2.602173913043478 0.03333333333333333 0  2.610434782608696 0.03333333333333333 0  2.618695652173913 0.03333333333333333 0  2.62695652173913 0.033333
[...]
<CellData  Scalars="rho_bar"> 
<DataArray  type="Float64"  Name="rho_bar"  format="ascii">9.9999999999999944e-01   9.9999999999999922e-01   9.9999999999999956e-01   9.9999999999999922e-01   9.9999999999999956e-01   9.9999999999999922e-01   9.9999999999999944e-01   9.9999999999999933e-01   9.9999999999999989e-01   9.9999999999999944e-01   9.9999999999999989e-01   9.9999999999999944e-01   9.9999999999999944e-01   9.9999999999999933e-01   9.9999999999999989e-01   9.9999999999999944e-01   9.9999999999999956e-01   9.9999999999999944e-01   9.9999999999999944e-01   9.9999999999999922e-01   9.9999999999999944e-01   9.9999999999999900e-01   9.9999999999999922e-01   9.9999999999999833e-01   9.9999999999999833e-01   9.9999999999999722e-01   9.9999999999999722e-01   9.9999999999999467e-01   9.9999999999999478e-01   9.9999999999998979e-01   9.9999999999999223e-01   9.9999999999998290e-01   9.9999999999999234e-01   9.9999999999997968e-01   9.9999999999999600e-01   9.9999999999998579e-01   9.9999999999999944e-01   9.9999999999999556e-01   9.9999999999999978e-01   9.9999999999999944e-01   1.0000000000000000e+00   1.0000000000000000e+00   9.9999999999999978e-01   9.9999999999999978e-01   9.9999999999999978e-01   9.9999999999999978e-01   9.9999999999999978e-01   9.9999999999999978e-01   9.9999999999999978e-01   9.9999999999999978e-01   1.0000000000000000e+00   1.0000000000000000e+00   9.9999999999999978e-01   9.9999999999999978e-01   1.0000000000000000e+00   1.0000000000000000e+00   1.0000000000000000e+00   1.0000000000000000e+00   1.0000000000000000e+00   1.0000000000000000e+00   9.9999999999999978e-01   9.9999999999999978e-01   1.0000000000000000e+00   1.0000000000000000e+00   9.9999999999999978e-01   9.9999999999999978e-01   1.0000000000000000e+00   1.0000000000000000e+00   1.0000000000000000e+00   1.0000000000000000e+00   9.9999999999999978e-01   9.9999999999999978e-01   1.0000000000000000e+00   1.0000000000000000e+00   9.9999999999999978e-01   9.9999999999999978e-01   9.9999999999999978e-01   9.9999999999999978e-01   9.9999999999999978e-01   9.9999999999999978e-01   1.0000000000000000e+00   1.0000000000000000e+00   9.9999999999999978e-01   9.9999999999999978e-01   1.0000000000000000e+00   1.0000000000000000e+00   1.0000000000000000e+00   1.0000000000000000e+00   1.0000000000000000e+00   1.0000000000000000e+00   9.9999999999999978e-01   9.9999999999999978e-01   9.9999999999999978e-01   9.9999999999999978e-01   1.0000000000000000e+00   1.0000000000000000e+00   1.0000000000000000e+00   1.0000000000000000e+00   9.9999999999999944e-01   9.9999999999999956e-01   9.9999999999999356e-01   9.9999999999999167e-01   9.9999999999997380e-01   9.9999999999995248e-01   9.9999999999995060e-01   9.9999999999988887e-01   9.9999999999994649e-01   9.9999999999986044e-01   9.9999999999995837e-01   9.9999999999988287e-01   9.9999999999997258e-01   9.9999999999992151e-01   9.9999999999998290e-01   9.9999999999995171e-01   9.9999999999988598e-01   9.9999999999988909e-01   9.9999999999901690e-01   9.9999999999989697e-01   9.9999999999907219e-01   9.9999999999990663e-01   9.9999999999915579e-01   9.9999999999991640e-01   9.9999999999924738e-01   9.9999999999992417e-01   9.9999999999932732e-01   9.9999999999992828e-01   9.9999999999938094e-01   9.9999999999992728e-01   9.9999999999939571e-01   9.9999999999991862e-01   9.9999999999935441e-01   9.9999999999989642e-01   9.9999999999922151e-01   9.9999999999984657e-01   9.9999999999891198e-01   9.9999999999973210e-01   9.9999999999819833e-01   9.9999999999944811e-01   9.9999999999643041e-01   9.9999999999872780e-01   9.9999999999176936e-01   9.9999999999712874e-01   9.9999999998014455e-01   9.9999999999455813e-01   9.9999999995696653e-01   9.9999999999250178e-01   9.9999999992714828e-01   9.9999999999413292e-01   9.9999999991964683e-01   9.9999999999872491e-01   9.9999999996388056e-01   9.9999999999995959e-01   9.9999999999650391e-01   9.9999999999999989e-01   9.9999999999995648e-01   9.9999999999999978e-01   9.9999999999999978e-01   9.9999999999999978e-01   9.9999999999999978e-01   9.9999999999999978e-01   9.9999999999999978e-01   9.9999999999999978e-01   9.9999999999999978e-01   1.0000000000000000e+00   1.0000000000000000e+00   9.9999999999999978e-01   9.9999999999999978e-01   1.0000000000000000e+00   1.0000000000000000e+00   1.0000000000000000e+00   1.0000000000000000e+00   1.0000000000000000e+00   1.0000000000000000e+00   9.9999999999999978e-01   9.9999999999999978e-01   1.0000000000000000e+00   1.0000000000000000e+00   9.9999999999999978e-01   9.9999999999999978e-01   1.0000000000000000e+00   1.0000000000000000e+00   1.0000000000000000e+00   1.0000000000000000e+00   9.9999999999999978e-01   9.9999999999999978e-01   1.0000000000000000e+00   1.0000000000000000e+00   9.9999999999999978e-01   9.9999999999999978e-01   9.9999999999999978e-01   9.9999999999999978e-01   9.9999999999999978e-01   9.9999999999999978e-01   1.0000000000000000e+00   1.0000000000000000e+00   9.9999999999999978e-01   9.9999999999999978e-01   1.0000000000000000e+00   1.0000000000000000e+00   1.0000000000000000e+00   1.0000000000000000e+00   1.0000000000000000e+00   1.0000000000000000e+00   9.9999999999999978e-01   9.9999999999999978e-01   9.9999999999999978e-01   9.9999999999999978e-01   1.0000000000000000e+00   1.0000000000000000e+00   9.9999999999998179e-01   9.9999999999995681e-01   9.9999999999885092e-01   9.9999999999527600e-01   9.9999999998832512e-01   9.9999999992194677e-01   9.9999999996693889e-01   9.9999999969284448e-01   9.9999999995617417e-01   9.9999999951787832e-01   9.9999999996459454e-01   9.9999999956784302e-01   9.9999999997831335e-01   9.9999999972597520e-01   9.9999999998833311e-01   9.9999999985414501e-01   9.9999999999365641e-01   9.9999999992531441e-01   9.9999998292302084e-01   9.9999998462152662e-01   9.9999951739634108e-01   9.9999998674675750e-01   9.9999958109843590e-01   9.9999998881214480e-01   9.9999964850903555e-01   9.9999999048376864e-01   9.9999970696984319e-01   9.9999999156575026e-01   9.9999974918653212e-01   9.9999999191629485e-01   9.9999977114121041e-01   9.9999999129467076e-01   9.9999976819276748e-01   9.9999998907704080e-01   9.9999972870890130e-01   9.9999998347340957e-01   9.9999961877511290e-01   9.9999996864758456e-01   9.9999932914487422e-01   9.9999992136577021e-01   9.9999843193240345e-01   9.9999974250816137e-01   9.9999499001624426e-01   9.9999912500154831e-01   9.9998133216071816e-01   9.9999745116290095e-01   9.9993587953986895e-01   9.9999422313201114e-01   9.9982215196774171e-01   9.9999323090169878e-01   9.9970010169691981e-01   9.9999810606170603e-01   9.9982518416750887e-01   9.9999994389513125e-01   9.9998227480388391e-01   9.9999999989144905e-01   9.9999983527913650e-01   9.9999999999998468e-01   9.9999999990533139e-01   1.0000000000000000e+00   9.9999999999999534e-01   9.9999999999999989e-01   9.9999999999999989e-01   1.0000000000000000e+00   1.0000000000000000e+00   9.9999999999999989e-01   9.9999999999999989e-01   1.0000000000000000e+00   1.0000000000000000e+00   9.9999999999999989e-01   9.9999999999999989e-01   9.9999999999999989e-01   9.9999999999999989e-01   9.9999999999999989e-01   9.9999999999999989e-01   1.0000000000000000e+00   1.0000000000000000e+00   9.9999999999999989e-01   9.9999999999999989e-01   1.0000000000000000e+00   1.0000000000000000e+00   9.9999999999999989e-01   9.9999999999999989e-01   9.9999999999999989e-01   9.9999999999999989e-01   1.0000000000000000e+00   1.0000000000000000e+00   9.9999999999999989e-01   9.9999999999999989e-01   1.0000000000000000e+00   1.0000000000000000e+00   9.9999999999999989e-01   9.9999999999999989e-01   1.0000000000000000e+00   1.0000000000000000e+00   9.9999999999999989e-01   9.9999999999999989e-01   1.0000000000000000e+00   1.0000000000000000e+00   9.9999999999999989e-01   9.9999999999999989e-01   9.9999999999999989e-01   9.9999999999999989e-01   9.9999999999999989e-01   9.9999999999999989e-01   1.0000000000000000e+00   1.0000000000000000e+00   9.9999999999999878e-01   9.9999999999999800e-01   9.9999999998590472e-01   9.9999999995920763e-01   9.9999998324747330e-01   9.9999989872395678e-01   9.9999825351570126e-01   9.9997849253058890e-01   9.9998032624008371e-01   9.9952469528670596e-01   9.9995861623875193e-01   9.9827798290676883e-01   9.9996730942941014e-01   9.9818936592797980e-01   9.9998384009102048e-01   9.9904428301864490e-01   9.9999324513091670e-01   9.9962286411762924e-01   9.9999743479189029e-01   9.9986469072666473e-01   9.9999892538587098e-01   9.9995058697460248e-01   9.9997799043886060e-01   7.3930428564138928e-01   7.5288305584927717e-01   3.4367124699539858e-01   7.7070321348413906e-01   3.4741357943313667e-01   7.9060535593443149e-01   3.5242468373217373e-01   8.0872750665875337e-01   3.5824038722591028e-01   8.2016319684362127e-01   3.6345283727368088e-01   8.2022524970517674e-01   3.6574938063978474e-01   8.0515925806771593e-01   3.6308722906707325e-01   7.7409048623191556e-01   3.5556490802849239e-01   7.3318561684935113e-01   3.4584698947891029e-01   6.9619730538064473e-01   3.3658636746520293e-01   6.7407932501641021e-01   3.2619373558456216e-01   6.6064579578671012e-01   3.0177157734039445e-01   6.4038055461058174e-01   2.4290140924260151e-01   6.0661493419154244e-01   1.6674988864677068e-01   5.9052473309611719e-01   1.2039449634898045e-01   6.3844843183586575e-01   1.5308315489945523e-01   8.0346805028885548e-01   3.0415480190484034e-01   9.9915476461417274e-01   7.0431383282149840e-01   9.9999990142338047e-01   9.9925905034557105e-01   9.9999999999921341e-01   9.9999997244335037e-01   9.9999999999999989e-01   9.9999999999990530e-01   1.0000000000000000e+00   1.0000000000000000e+00   9.9999999999999989e-01   9.9999999999999989e-01   1.0000000000000000e+00   1.0000000000000000e+00   9.9999999999999989e-01   9.9999999999999989e-01   9.9999999999999989e-01   9.9999999999999989e-01   9.9999999999999989e-01   9.9999999999999989e-01   1.0000000000000000e+00   1.0000000000000000e+00   9.9999999999999989e-01   9.9999999999999989e-01   1.0000000000000000e+00   1.0000000000000000e+00   9.9999999999999989e-01   9.9999999999999989e-01   9.9999999999999989e-01   9.9999999999999989e-01   1.0000000000000000e+00   1.0000000000000000e+00   9.9999999999999989e-01   9.9999999999999989e-01   1.0000000000000000e+00   1.0000000000000000e+00   9.9999999999999989e-01   9.9999999999999989e-01   1.0000000000000000e+00   1.0000000000000000e+00   9.9999999999999989e-01   9.9999999999999989e-01   1.0000000000000000e+00   1.0000000000000000e+00   9.9999999999999989e-01   9.9999999999999989e-01   9.9999999999999989e-01   9.9999999999999989e-01   9.9999999999999989e-01   9.9999999999999989e-01   9.9999999999998901e-01   9.9999999999998712e-01   9.9999999856467958e-01   9.9999999755645141e-01   9.9996683407204678e-01   9.9990432366909188e-01   9.4677303154765158e-01   8.4726840068302522e-01   6.6515285798591728e-01   3.6028351605347680e-01   5.3984677528779934e-01   1.7589865400833601e-01   3.9597734895201103e-01   3.5352705058587328e-02   3.9238630995447538e-01   1.9753260673210576e-02   4.7337881660621289e-01   2.8025266697495124e-02   5.6313152900592767e-01   5.8568517624246405e-02   6.2302026465292903e-01   1.1992342606498470e-01   6.5092730012690625e-01   2.0400779411645115e-01   6.6198424339966566e-01   2.6422140632505103e-01   2.9175153327632852e-01   1.0445913093783584e-05   5.4174743441270934e-08   1.3946713571707140e-05   7.1650856627488312e-08   1.9000074375256450e-05   9.8398721615211544e-08   2.5340700728219510e-05   1.3530372905412591e-07   3.1495501261672804e-05   1.7829009442878644e-07   3.4611726644179213e-05   2.1408943259859642e-07   3.2030578446538380e-05   2.2304599139877373e-07   2.4087422250638563e-05   1.9369370337270669e-07   1.4472044953112160e-05   1.3754320263292819e-07   6.8813514787953913e-06   8.0173384819914859e-08   2.6261114326094530e-06   3.8780267719307198e-08   9.2194551732741959e-07   1.6673211774194855e-08   3.9537863486908493e-07   8.0795447277015614e-09   2.6862271723659948e-07   5.8925768153805774e-09   3.9823965767663938e-07   7.9091889889267471e-09   2.6115038031700637e-06   2.9706932885842363e-08   1.3991349308279755e-04   6.1738048958333747e-07   6.5428355145193795e-02   1.0006196726118169e-04   8.8035547605365772e-01   1.1859829588961168e-01   9.9999706176535563e-01   9.6850934510526043e-01   9.9999999999510714e-01   9.9999978436273507e-01   1.0000000000000000e+00   9.9999999999979139e-01   9.9999999999999989e-01   9.9999999999999989e-01   1.0000000000000000e+00   1.0000000000000000e+00   9.9999999999999989e-01   9.9999999999999989e-01   9.9999999999999989e-01   9.9999999999999989e-01   9.9999999999999989e-01   9.9999999999999989e-01   1.0000000000000000e+00   1.0000000000000000e+00   9.9999999999999989e-01   9.9999999999999989e-01   1.0000000000000000e+00   1.0000000000000000e+00   9.9999999999999989e-01   9.9999999999999989e-01   9.9999999999999989e-01   9.9999999999999989e-01   1.0000000000000000e+00   1.0000000000000000e+00   9.9999999999999989e-01   9.9999999999999989e-01   1.0000000000000000e+00   1.0000000000000000e+00   9.9999999999999989e-01   9.9999999999999989e-01   1.0000000000000000e+00   1.0000000000000000e+00   9.9999999999999989e-01   9.9999999999999989e-01   1.0000000000000000e+00   1.0000000000000000e+00   9.9999999999999989e-01   9.9999999999999989e-01   9.9999999999999989e-01   9.9999999999999989e-01   9.9999999999998657e-01   9.9999999999998745e-01   9.9999999461112687e-01   9.9999999460736466e-01   9.9926124503629721e-01   9.9908006163807472e-01   6.2667369659826389e-01   5.3829262850987047e-01   5.4275608347501759e-02   2.3398587723038485e-02   1.0185219144220879e-04   2.3119618449446430e-05   1.3027797950241711e-06   1.6713570542374134e-07   1.0168493564758721e-07   6.9887993262944069e-09   3.4135785105989428e-08   1.2174940870283517e-09   3.2883084505330722e-08   6.5740957122528688e-10   5.3783678335047228e-08   7.4070418317380882e-10   1.0860554229089973e-07   1.1156447432547621e-09   2.3164554901107984e-07   1.9668174681501207e-09   4.3460868648370616e-07   3.4192535469657051e-09   6.3506218459889274e-07   4.9792383272073684e-09   5.6839585538259740e-09   4.9127368839663177e-15   6.7631085916749117e-15   8.3266726846886753e-17   9.6219328800846905e-15   1.2027416100105862e-16   1.3702002495582141e-14   1.6653345369377348e-16   1.8809028408857859e-14   2.4980018054066017e-16   2.3953061756287749e-14   3.3306690738754701e-16   2.7339241981394477e-14   4.1633363423443365e-16   2.7478019859472631e-14   4.9034850254277741e-16   2.4480417692984702e-14   4.9034850254277741e-16   2.0141296038408044e-14   4.7184478546569143e-16   1.6607086076684631e-14   4.5334106838860555e-16   1.5765166949677223e-14   4.7184478546569143e-16   2.0853689145875855e-14   6.3837823915946491e-16   4.8054153249192184e-14   1.3970306393199887e-15   2.6081914406006480e-13   6.0229599085914742e-15   5.0602022572121541e-12   7.0341880468542214e-14   5.0936691901407960e-10   3.3148483957745603e-12   3.4206791180158014e-07   8.6195115859647820e-10   1.8336293684068363e-03   1.5892273175684608e-06   6.8795147015659752e-01   2.2951517557304141e-02   9.9999592291973505e-01   9.7247019997567352e-01   9.9999999999641864e-01   9.9999992500222956e-01   9.9999999999999967e-01   9.9999999999994116e-01   9.9999999999999989e-01   9.9999999999999989e-01   9.9999999999999967e-01   9.9999999999999967e-01   9.9999999999999967e-01   9.9999999999999967e-01   9.9999999999999967e-01   9.9999999999999967e-01   9.9999999999999989e-01   9.9999999999999989e-01   9.9999999999999967e-01   9.9999999999999967e-01   9.9999999999999989e-01   9.9999999999999989e-01   9.9999999999999967e-01   9.9999999999999911e-01   9.9999999999999967e-01   9.9999999999999578e-01   9.9999999999999989e-01   9.9999999999999545e-01   9.9999999999999967e-01   9.9999999999999889e-01   9.9999999999999989e-01   9.9999999999999989e-01   9.9999999999999989e-01   9.9999999999999989e-01   9.9999999999999989e-01   9.9999999999999989e-01   9.9999999999999967e-01   9.9999999999999967e-01   9.9999999999999989e-01   9.9999999999999989e-01   9.9999999999999967e-01   9.9999999999999967e-01   9.9999999999999711e-01   9.9999999999999778e-01   9.9999999882372892e-01   9.9999999927983385e-01   9.9965892378887422e-01   9.9978884670279455e-01   5.3025037688516297e-01   5.8708670404787289e-01   3.6213749566543865e-03   3.7617317718231149e-03   6.6879096274896622e-07   4.8502302097778538e-07   8.6481249013855199e-10   4.1315274349843872e-10   6.3832735393750292e-12   1.9203250101185176e-12   2.1066481892262345e-13   3.8737531700879416e-14   2.3731017151362715e-14   2.6460315420232896e-15   6.7538567331363684e-15   4.8109664400423437e-16   3.5249581031848716e-15   1.7578531223231642e-16   2.6090241078691183e-15   1.0177044392397268e-16   2.3129646346357427e-15   7.4014868308343765e-17   2.1371793224034263e-15   5.5511151231257802e-17   1.8596235662471368e-15   4.6259292692714852e-17   1.4617936490897894e-15   3.7007434154171883e-17   1.8503717077085941e-17   0.0000000000000000e+00   0.0000000000000000e+00   0.0000000000000000e+00   0.0000000000000000e+00   0.0000000000000000e+00   0.0000000000000000e+00   0.0000000000000000e+00   0.0000000000000000e+00   0.0000000000000000e+00   0.0000000000000000e+00   0.0000000000000000e+00   0.0000000000000000e+00   0.0000000000000000e+00   0.0000000000000000e+00   0.0000000000000000e+00   0.0000000000000000e+00   0.0000000000000000e+00   0.0000000000000000e+00   0.0000000000000000e+00   0.0000000000000000e+00   0.0000000000000000e+00   0.0000000000000000e+00   0.0000000000000000e+00   0.0000000000000000e+00   0.0000000000000000e+00   0.0000000000000000e+00   0.0000000000000000e+00   0.0000000000000000e+00   2.0354088784794538e-16   0.0000000000000000e+00   3.6147011310087386e-14   4.0708177569589081e-16   2.9996403509239635e-11   1.9131918271853005e-13   1.3531891997671980e-07   4.8501376988715117e-10   3.5394329041976247e-03   6.6725026403498724e-06   9.1141690932850772e-01   2.2066512151593110e-01   9.9999965801317525e-01   9.9940101231228284e-01   9.9999999999967415e-01   9.9999999889515134e-01   1.0000000000000000e+00   9.9999999999999767e-01   9.9999999999999989e-01   9.9999999999999989e-01   9.9999999999999989e-01   9.9999999999999989e-01   9.9999999999999989e-01   9.9999999999999989e-01   9.9999999999999856e-01   9.9999999999998956e-01   9.9999999999916156e-01   9.9999999998972644e-01   9.9999999984066845e-01   9.9999999674377116e-01   9.9999999515358440e-01   9.9999982556989375e-01   9.9999998088186248e-01   9.9999867769587236e-01   9.9999999098009695e-01   9.9999856505115770e-01   9.9999999948224871e-01   9.9999977745350865e-01   9.9999999999597600e-01   9.9999999518533855e-01   9.9999999999999412e-01   9.9999999998487477e-01   1.0000000000000000e+00   9.9999999999998945e-01   9.9999999999999989e-01   9.9999999999999989e-01   1.0000000000000000e+00   1.0000000000000000e+00   9.9999999999999956e-01   9.9999999999999956e-01   9.9999999998747413e-01   9.9999999999537259e-01   9.9999609613115581e-01   9.9999889747149306e-01   7.7928449842043801e-01   8.8593538566123731e-01   1.5931072497295556e-02   3.9636342295830261e-02   7.0866725111288576e-07   1.4634676662184096e-06   1.5390868209526801e-10   2.2577601825150373e-10   1.6187051699034780e-13   1.6144493149757483e-13   7.2164496600635165e-16   4.8109664400423447e-16   9.2518585385429691e-18   0.0000000000000000e+00   0.0000000000000000e+00   0.0000000000000000e+00   0.0000000000000000e+00   0.0000000000000000e+00   0.0000000000000000e+00   0.0000000000000000e+00   0.0000000000000000e+00   0.0000000000000000e+00   0.0000000000000000e+00   0.0000000000000000e+00   0.0000000000000000e+00   0.0000000000000000e+00   0.0000000000000000e+00   0.0000000000000000e+00   0.0000000000000000e+00   0.0000000000000000e+00   0.0000000000000000e+00   0.0000000000000000e+00   0.0000000000000000e+00   0.0000000000000000e+00   0.0000000000000000e+00   0.0000000000000000e+00   0.00000000