<?xml version="1.0"?>
<VTKFile type="UnstructuredGrid"  version="0.1"  >
<UnstructuredGrid>
<Piece  NumberOfPoints="2425" NumberOfCells="4624">
<Points>
<DataArray  type="Float64"  NumberOfComponents="3"  format="ascii">1.016086956521739 0 0  1.024347826086957 0 0  1.024347826086957 0.008333333333333333 0  1.032608695652174 0 0  1.032608695652174 0.008333333333333333 0  1.040869565217391 0 0  1.040869565217391 0.008333333333333333 0  1.049130434782609 0 0  1.049130434782609 0.008333333333333333 0  1.057391304347826 0 0  1.057391304347826 0.008333333333333333 0  1.065652173913043 0 0  1.065652173913043 0.008333333333333333 0  1.073913043478261 0 0  1.073913043478261 0.008333333333333333 0  1.082173913043478 0 0  1.082173913043478 0.008333333333333333 0  1.090434782608696 0 0  1.090434782608696 0.008333333333333333 0  1.098695652173913 0 0  1.098695652173913 0.008333333333333333 0  1.10695652173913 0 0  1.10695652173913 0.008333333333333333 0  1.115217391304348 0 0  1.115217391304348 0.008333333333333333 0  1.123478260869565 0 0  1.123478260869565 0.008333333333333333 0  1.131739130434783 0 0  1.131739130434783 0.008333333333333333 0  1.14 0 0  1.14 0.008333333333333333 0  1.148260869565217 0 0  1.148260869565217 0.008333333333333333 0  1.156521739130435 0 0  1.156521739130435 0.008333333333333333 0  1.164782608695652 0 0  1.164782608695652 0.008333333333333333 0  1.17304347826087 0 0  1.17304347826087 0.008333333333333333 0  1.181304347826087 0 0  1.181304347826087 0.008333333333333333 0  1.189565217391304 0 0  1.189565217391304 0.008333333333333333 0  1.197826086956522 0 0  1.197826086956522 0.008333333333333333 0  1.206086956521739 0 0  1.206086956521739 0.008333333333333333 0  1.214347826086956 0 0  1.214347826086956 0.008333333333333333 0  1.222608695652174 0 0  1.222608695652174 0.008333333333333333 0  1.230869565217391 0 0  1.230869565217391 0.008333333333333333 0  1.239130434782609 0 0  1.239130434782609 0.008333333333333333 0  1.247391304347826 0 0  1.247391304347826 0.008333333333333333 0  1.255652173913044 0 0  1.255652173913044 0.008333333333333333 0  1.263913043478261 0 0  1.263913043478261 0.008333333333333333 0  1.272173913043478 0 0  1.272173913043478 0.008333333333333333 0  1.280434782608696 0 0  1.280434782608696 0.008333333333333333 0  1.288695652173913 0 0  1.288695652173913 0.008333333333333333 0  1.296956521739131 0 0  1.296956521739131 0.008333333333333333 0  1.305217391304348 0 0  1.305217391304348 0.008333333333333333 0  1.313478260869565 0 0  1.313478260869565 0.008333333333333333 0  1.321739130434783 0 0  1.321739130434783 0.008333333333333333 0  1.33 0 0  1.33 0.008333333333333333 0  1.338260869565217 0 0  1.338260869565217 0.008333333333333333 0  1.346521739130435 0 0  1.346521739130435 0.008333333333333333 0  1.354782608695652 0 0  1.354782608695652 0.008333333333333333 0  1.36304347826087 0 0  1.36304347826087 0.008333333333333333 0  1.371304347826087 0 0  1.371304347826087 0.008333333333333333 0  1.379565217391304 0 0  1.379565217391304 0.008333333333333333 0  1.387826086956522 0 0  1.387826086956522 0.008333333333333333 0  1.396086956521739 0 0  1.396086956521739 0.008333333333333333 0  1.404347826086957 0 0  1.404347826086957 0.008333333333333333 0  1.412608695652174 0 0  1.412608695652174 0.008333333333333333 0  1.420869565217391 0 0  1.420869565217391 0.008333333333333333 0  1.429130434782609 0 0  1.429130434782609 0.008333333333333333 0  1.437391304347826 0 0  1.437391304347826 0.008333333333333333 0  1.445652173913043 0 0  1.445652173913043 0.008333333333333333 0  1.453913043478261 0 0  1.453913043478261 0.008333333333333333 0  1.462173913043478 0 0  1.462173913043478 0.008333333333333333 0  1.470434782608696 0 0  1.470434782608696 0.008333333333333333 0  1.478695652173913 0 0  1.478695652173913 0.008333333333333333 0  1.486956521739131 0 0  1.486956521739131 0.008333333333333333 0  1.495217391304348 0 0  1.495217391304348 0.008333333333333333 0  1.503478260869565 0 0  1.503478260869565 0.008333333333333333 0  1.511739130434782 0 0  1.511739130434782 0.008333333333333333 0  1.52 0 0  1.52 0.008333333333333333 0  1.528260869565217 0 0  1.528260869565217 0.008333333333333333 0  1.536521739130435 0 0  1.536521739130435 0.008333333333333333 0  1.544782608695652 0 0  1.544782608695652 0.008333333333333333 0  1.55304347826087 0 0  1.55304347826087 0.008333333333333333 0  1.561304347826087 0 0  1.561304347826087 0.008333333333333333 0  1.569565217391304 0 0  1.569565217391304 0.008333333333333333 0  1.577826086956522 0 0  1.577826086956522 0.008333333333333333 0  1.586086956521739 0 0  1.586086956521739 0.008333333333333333 0  1.594347826086957 0 0  1.594347826086957 0.008333333333333333 0  1.602608695652174 0 0  1.602608695652174 0.008333333333333333 0  1.610869565217391 0 0  1.610869565217391 0.008333333333333333 0  1.619130434782609 0 0  1.619130434782609 0.008333333333333333 0  1.627391304347826 0 0  1.627391304347826 0.008333333333333333 0  1.635652173913043 0 0  1.635652173913043 0.008333333333333333 0  1.643913043478261 0 0  1.643913043478261 0.008333333333333333 0  1.652173913043478 0 0  1.652173913043478 0.008333333333333333 0  1.660434782608696 0 0  1.660434782608696 0.008333333333333333 0  1.668695652173913 0 0  1.668695652173913 0.008333333333333333 0  1.67695652173913 0 0  1.67695652173913 0.008333333333333333 0  1.685217391304348 0 0  1.685217391304348 0.008333333333333333 0  1.693478260869565 0 0  1.693478260869565 0.008333333333333333 0  1.701739130434782 0 0  1.701739130434782 0.008333333333333333 0  1.71 0 0  1.71 0.008333333333333333 0  1.718260869565217 0 0  1.718260869565217 0.008333333333333333 0  1.726521739130435 0 0  1.726521739130435 0.008333333333333333 0  1.734782608695652 0 0  1.734782608695652 0.008333333333333333 0  1.743043478260869 0.008333333333333333 0  1.032608695652174 0.01666666666666667 0  1.040869565217391 0.01666666666666667 0  1.049130434782609 0.01666666666666667 0  1.057391304347826 0.01666666666666667 0  1.065652173913043 0.01666666666666667 0  1.073913043478261 0.01666666666666667 0  1.082173913043478 0.01666666666666667 0  1.090434782608696 0.01666666666666667 0  1.098695652173913 0.01666666666666667 0  1.10695652173913 0.01666666666666667 0  1.115217391304348 0.01666666666666667 0  1.123478260869565 0.01666666666666667 0  1.131739130434783 0.01666666666666667 0  1.14 0.01666666666666667 0  1.148260869565217 0.01666666666666667 0  1.156521739130435 0.01666666666666667 0  1.164782608695652 0.01666666666666667 0  1.17304347826087 0.01666666666666667 0  1.181304347826087 0.01666666666666667 0  1.189565217391304 0.01666666666666667 0  1.197826086956522 0.01666666666666667 0  1.206086956521739 0.01666666666666667 0  1.214347826086956 0.01666666666666667 0  1.222608695652174 0.01666666666666667 0  1.230869565217391 0.01666666666666667 0  1.239130434782609 0.01666666666666667 0  1.247391304347826 0.01666666666666667 0  1.255652173913044 0.01666666666666667 0  1.263913043478261 0.01666666666666667 0  1.272173913043478 0.01666666666666667 0  1.280434782608696 0.01666666666666667 0  1.288695652173913 0.01666666666666667 0  1.296956521739131 0.01666666666666667 0  1.305217391304348 0.01666666666666667 0  1.313478260869565 0.01666666666666667 0  1.321739130434783 0.01666666666666667 0  1.33 0.01666666666666667 0  1.338260869565217 0.01666666666666667 0  1.346521739130435 0.01666666666666667 0  1.354782608695652 0.01666666666666667 0  1.36304347826087 0.01666666666666667 0  1.371304347826087 0.01666666666666667 0  1.379565217391304 0.01666666666666667 0  1.387826086956522 0.01666666666666667 0  1.396086956521739 0.01666666666666667 0  1.404347826086957 0.01666666666666667 0  1.412608695652174 0.01666666666666667 0  1.420869565217391 0.01666666666666667 0  1.429130434782609 0.01666666666666667 0  1.437391304347826 0.01666666666666667 0  1.445652173913043 0.01666666666666667 0  1.453913043478261 0.01666666666666667 0  1.462173913043478 0.01666666666666667 0  1.470434782608696 0.01666666666666667 0  1.478695652173913 0.01666666666666667 0  1.486956521739131 0.01666666666666667 0  1.495217391304348 0.01666666666666667 0  1.503478260869565 0.01666666666666667 0  1.511739130434782 0.01666666666666667 0  1.52 0.01666666666666667 0  1.528260869565217 0.01666666666666667 0  1.536521739130435 0.01666666666666667 0  1.544782608695652 0.01666666666666667 0  1.55304347826087 0.01666666666666667 0  1.561304347826087 0.01666666666666667 0  1.569565217391304 0.01666666666666667 0  1.577826086956522 0.01666666666666667 0  1.586086956521739 0.01666666666666667 0  1.594347826086957 0.01666666666666667 0  1.602608695652174 0.01666666666666667 0  1.610869565217391 0.01666666666666667 0  1.619130434782609 0.01666666666666667 0  1.627391304347826 0.01666666666666667 0  1.635652173913043 0.01666666666666667 0  1.643913043478261 0.01666666666666667 0  1.652173913043478 0.01666666666666667 0  1.660434782608696 0.01666666666666667 0  1.668695652173913 0.01666666666666667 0  1.67695652173913 0.01666666666666667 0  1.685217391304348 0.01666666666666667 0  1.693478260869565 0.01666666666666667 0  1.701739130434782 0.01666666666666667 0  1.71 0.01666666666666667 0  1.718260869565217 0.01666666666666667 0  1.726521739130435 0.01666666666666667 0  1.734782608695652 0.01666666666666667 0  1.743043478260869 0.01666666666666667 0  1.040869565217391 0.025 0  1.049130434782609 0.025 0  1.057391304347826 0.025 0  1.065652173913043 0.025 0  1.073913043478261 0.025 0  1.082173913043478 0.025 0  1.090434782608696 0.025 0  1.098695652173913 0.025 0  1.10695652173913 0.025 0  1.115217391304348 0.025 0  1.123478260869565 0.025 0  1.131739130434783 0.025 0  1.14 0.025 0  1.148260869565217 0.025 0  1.156521739130435 0.025 0  1.164782608695652 0.025 0  1.17304347826087 0.025 0  1.181304347826087 0.025 0  1.189565217391304 0.025 0  1.197826086956522 0.025 0  1.206086956521739 0.025 0  1.214347826086956 0.025 0  1.222608695652174 0.025 0  1.230869565217391 0.025 0  1.239130434782609 0.025 0  1.24
[...]
<CellData  Scalars="rho_bar"> 
<DataArray  type="Float64"  Name="rho_bar"  format="ascii">9.9999999998545808e-01   9.9999999998538602e-01   9.9999999996679023e-01   9.9999999998531597e-01   9.9999999996662814e-01   9.9999999998524325e-01   9.9999999996646682e-01   9.9999999998516254e-01   9.9999999996629363e-01   9.9999999998505973e-01   9.9999999996608280e-01   9.9999999998492317e-01   9.9999999996580435e-01   9.9999999998473654e-01   9.9999999996542333e-01   9.9999999998449030e-01   9.9999999996491162e-01   9.9999999998417544e-01   9.9999999996424715e-01   9.9999999998379352e-01   9.9999999996342392e-01   9.9999999998335098e-01   9.9999999996245159e-01   9.9999999998286893e-01   9.9999999996136535e-01   9.9999999998237299e-01   9.9999999996022126e-01   9.9999999998190481e-01   9.9999999995910405e-01   9.9999999998150502e-01   9.9999999995810884e-01   9.9999999998122180e-01   9.9999999995734135e-01   9.9999999998109479e-01   9.9999999995690203e-01   9.9999999998116496e-01   9.9999999995688815e-01   9.9999999998144917e-01   9.9999999995736155e-01   9.9999999998194355e-01   9.9999999995833444e-01   9.9999999998260691e-01   9.9999999995974376e-01   9.9999999998337252e-01   9.9999999996145639e-01   9.9999999998414801e-01   9.9999999996327638e-01   9.9999999998483424e-01   9.9999999996497591e-01   9.9999999998532929e-01   9.9999999996631816e-01   9.9999999998554434e-01   9.9999999996708600e-01   9.9999999998539679e-01   9.9999999996708100e-01   9.9999999998481992e-01   9.9999999996613453e-01   9.9999999998375855e-01   9.9999999996410482e-01   9.9999999998219247e-01   9.9999999996090672e-01   9.9999999998015165e-01   9.9999999995655320e-01   9.9999999997776667e-01   9.9999999995124678e-01   9.9999999997529321e-01   9.9999999994546585e-01   9.9999999997313194e-01   9.9999999994002553e-01   9.9999999997176270e-01   9.9999999993600330e-01   9.9999999997163813e-01   9.9999999993452782e-01   9.9999999997298661e-01   9.9999999993638133e-01   9.9999999997566957e-01   9.9999999994158695e-01   9.9999999997917066e-01   9.9999999994922784e-01   9.9999999998280920e-01   9.9999999995777444e-01   9.9999999998599431e-01   9.9999999996570188e-01   9.9999999998838041e-01   9.9999999997198419e-01   9.9999999998983213e-01   9.9999999997616340e-01   9.9999999999029865e-01   9.9999999997810574e-01   9.9999999998965095e-01   9.9999999997762912e-01   9.9999999998753997e-01   9.9999999997414024e-01   9.9999999998330302e-01   9.9999999996630995e-01   9.9999999997629541e-01   9.9999999995223987e-01   9.9999999996774758e-01   9.9999999993207267e-01   9.9999999996391709e-01   9.9999999991533395e-01   9.9999999997235400e-01   9.9999999992206012e-01   9.9999999998840716e-01   9.9999999995656896e-01   9.9999999999802480e-01   9.9999999998867750e-01   9.9999999999989964e-01   9.9999999999900713e-01   9.9999999999999856e-01   9.9999999999997857e-01   1.0000000000000000e+00   9.9999999999999989e-01   9.9999999999999989e-01   9.9999999999999989e-01   1.0000000000000000e+00   1.0000000000000000e+00   9.9999999999999978e-01   9.9999999999999978e-01   9.9999999999999989e-01   9.9999999999999989e-01   1.0000000000000000e+00   1.0000000000000000e+00   9.9999999999999989e-01   9.9999999999999989e-01   1.0000000000000000e+00   1.0000000000000000e+00   9.9999999999999989e-01   9.9999999999999989e-01   9.9999999999999989e-01   9.9999999999999989e-01   1.0000000000000000e+00   1.0000000000000000e+00   9.9999999999999989e-01   9.9999999999999989e-01   9.9999999999999989e-01   9.9999999999999989e-01   1.0000000000000000e+00   1.0000000000000000e+00   9.9999999999999978e-01   9.9999999999999978e-01   9.9999999999999989e-01   9.9999999999999989e-01   9.9999999999998734e-01   9.9999999999999067e-01   9.9999999999963551e-01   9.9999999999965616e-01   9.9999999999630518e-01   9.9999999999512867e-01   9.9999999998829081e-01   9.9999999997701039e-01   9.9999999998905797e-01   9.9999999996608102e-01   9.9999999999696398e-01   9.9999999998484046e-01   9.9999999999973099e-01   9.9999999999794331e-01   9.9999999999999123e-01   9.9999999999990963e-01   9.9999999999999978e-01   9.9999999999999822e-01   1.0000000000000000e+00   1.0000000000000000e+00   9.9999999999999978e-01   9.9999999999999978e-01   9.9999999999999989e-01   9.9999999999999989e-01   1.0000000000000000e+00   1.0000000000000000e+00   9.9999999999999989e-01   9.9999999999999989e-01   1.0000000000000000e+00   1.0000000000000000e+00   9.9999999999999989e-01   9.9999999585653920e-01   9.9999999583689547e-01   9.9999996585466555e-01   9.9999999581884513e-01   9.9999996570401706e-01   9.9999999579843168e-01   9.9999996555094883e-01   9.9999999577225518e-01   9.9999996536368074e-01   9.9999999573432286e-01   9.9999996509892508e-01   9.9999999568060394e-01   9.9999996471448127e-01   9.9999999560624675e-01   9.9999996417090420e-01   9.9999999550942964e-01   9.9999996344114583e-01   9.9999999538881557e-01   9.9999996251074941e-01   9.9999999524706495e-01   9.9999996138666847e-01   9.9999999508940696e-01   9.9999996010206837e-01   9.9999999492691227e-01   9.9999995873094405e-01   9.9999999477163914e-01   9.9999995737356406e-01   9.9999999463855738e-01   9.9999995614900361e-01   9.9999999454116828e-01   9.9999995517728490e-01   9.9999999449563082e-01   9.9999995458782331e-01   9.9999999451481769e-01   9.9999995450507495e-01   9.9999999460821209e-01   9.9999995502832728e-01   9.9999999477395540e-01   9.9999995618669824e-01   9.9999999500095160e-01   9.9999995792123864e-01   9.9999999526487138e-01   9.9999996006972214e-01   9.9999999553490493e-01   9.9999996238825772e-01   9.9999999577548537e-01   9.9999996458455209e-01   9.9999999595380928e-01   9.9999996636705524e-01   9.9999999603858647e-01   9.9999996746391262e-01   9.9999999600320799e-01   9.9999996763421428e-01   9.9999999582265808e-01   9.9999996665880808e-01   9.9999999547665275e-01   9.9999996434269323e-01   9.9999999495087033e-01   9.9999996052635598e-01   9.9999999424980524e-01   9.9999995515468876e-01   9.9999999340987311e-01   9.9999994839210171e-01   9.9999999251966665e-01   9.9999994078830667e-01   9.9999999171868392e-01   9.9999993336386528e-01   9.9999999118664218e-01   9.9999992756234435e-01   9.9999999110103410e-01   9.9999992500092194e-01   9.9999999157048403e-01   9.9999992697599049e-01   9.9999999254734950e-01   9.9999993370493945e-01   9.9999999382468108e-01   9.9999994390955727e-01   9.9999999512514359e-01   9.9999995528375152e-01   9.9999999622877156e-01   9.9999996560268944e-01   9.9999999702743936e-01   9.9999997353494363e-01   9.9999999750475699e-01   9.9999997870418489e-01   9.9999999767151382e-01   9.9999998121531808e-01   9.9999999750169466e-01   9.9999998107137966e-01   9.9999999686008800e-01   9.9999997758537684e-01   9.9999999538857953e-01   9.9999996851567396e-01   9.9999999234966885e-01   9.9999994846375373e-01   9.9999998715028093e-01   9.9999990911034875e-01   9.9999998200703499e-01   9.9999985390668233e-01   9.9999998235141629e-01   9.9999982228016648e-01   9.9999998999136985e-01   9.9999986155846832e-01   9.9999999783751692e-01   9.9999994791066205e-01   9.9999999991339528e-01   9.9999999437701670e-01   9.9999999999956224e-01   9.9999999990659727e-01   9.9999999999999944e-01   9.9999999999981981e-01   9.9999999999999989e-01   9.9999999999999978e-01   1.0000000000000000e+00   1.0000000000000000e+00   9.9999999999999978e-01   9.9999999999999978e-01   9.9999999999999989e-01   9.9999999999999989e-01   1.0000000000000000e+00   1.0000000000000000e+00   9.9999999999999989e-01   9.9999999999999989e-01   1.0000000000000000e+00   1.0000000000000000e+00   9.9999999999999989e-01   9.9999999999999989e-01   9.9999999999999989e-01   9.9999999999999989e-01   1.0000000000000000e+00   1.0000000000000000e+00   9.9999999999999989e-01   9.9999999999999989e-01   9.9999999999999989e-01   9.9999999999999989e-01   1.0000000000000000e+00   1.0000000000000000e+00   9.9999999999999944e-01   9.9999999999999944e-01   9.9999999999991995e-01   9.9999999999986278e-01   9.9999999999092426e-01   9.9999999997835187e-01   9.9999999962405595e-01   9.9999999871036183e-01   9.9999999518068827e-01   9.9999997518736583e-01   9.9999998326172079e-01   9.9999986160339627e-01   9.9999998560049130e-01   9.9999979149734275e-01   9.9999999701906539e-01   9.9999991849720915e-01   9.9999999984396859e-01   9.9999999183249810e-01   9.9999999999760236e-01   9.9999999978096299e-01   9.9999999999998557e-01   9.9999999999818157e-01   9.9999999999999989e-01   9.9999999999999367e-01   9.9999999999999978e-01   9.9999999999999978e-01   9.9999999999999989e-01   9.9999999999999989e-01   1.0000000000000000e+00   1.0000000000000000e+00   9.9999999999999989e-01   9.9999999999999989e-01   1.0000000000000000e+00   1.0000000000000000e+00   9.9999999999999989e-01   9.9999999999999989e-01   9.9958618186949300e-01   9.9958477639263588e-01   9.8906849350489434e-01   9.9958342761056984e-01   9.8903703520367792e-01   9.9958146565764783e-01   9.8899788072376937e-01   9.9957822349568837e-01   9.8893266762012288e-01   9.9957292164905920e-01   9.8882072246736241e-01   9.9956511017920402e-01   9.8864579223528737e-01   9.9955435575587703e-01   9.8839591758403045e-01   9.9954046902267968e-01   9.8806313925511591e-01   9.9952342535051375e-01   9.8764398284164345e-01   9.9950395912669110e-01   9.8714874426576482e-01   9.9948338523342029e-01   9.8660628476904366e-01   9.9946351828921831e-01   9.8606121633187671e-01   9.9944591855108500e-01   9.8555899703937921e-01   9.9943236013835846e-01   9.8514386739652204e-01   9.9942478475013774e-01   9.8486470273745941e-01   9.9942547442109986e-01   9.8478009281205758e-01   9.9943591106730911e-01   9.8494195717453459e-01   9.9945651671061908e-01   9.8537733498758984e-01   9.9948590122116043e-01   9.8607205527493857e-01   9.9952112719792063e-01   9.8696604460496917e-01   9.9955774216882565e-01   9.8795495629470254e-01   9.9959114382071734e-01   9.8891316564849741e-01   9.9961690395214353e-01   9.8971637541662028e-01   9.9963125601701730e-01   9.9025438037110491e-01   9.9963072965462385e-01   9.9043027002114392e-01   9.9961208291375625e-01   9.9015470923374049e-01   9.9957189398868984e-01   9.8933687558831074e-01   9.9950701993206226e-01   9.8788625283438092e-01   9.9941555539171034e-01   9.8573252654553190e-01   9.9930011072512781e-01   9.8288929616900289e-01   9.9917097409731281e-01   9.7954587427579187e-01   9.9904714053184540e-01   9.7611990501705759e-01   9.9895420579543703e-01   9.7321960394292317e-01   9.9892316965391637e-01   9.7160025757690882e-01   9.9897853865342523e-01   9.7201350623447658e-01   9.9911855937574812e-01   9.7478211789029856e-01   9.9930744493456614e-01   9.7937982704136395e-01   9.9949575329280282e-01   9.8458925268673425e-01   9.9964738742625292e-01   9.8919491635332268e-01   9.9975050000733312e-01   9.9255723780784055e-01   9.9980975676953188e-01   9.9463721748017142e-01   9.9983371153925982e-01   9.9566910952780485e-01   9.9982455005943871e-01   9.9582585393263079e-01   9.9976875269297272e-01   9.9496811108343497e-01   9.9961069098531596e-01   9.9217777327577561e-01   9.9914146147780392e-01   9.8389603855841046e-01   9.9778480305748096e-01   9.5930126986268938e-01   9.9529124627300636e-01   9.0783724140473421e-01   9.9278402187347237e-01   8.4830372460540282e-01   9.9377571269093101e-01   8.2764710845162626e-01   9.9829810981194800e-01   8.9616754170688495e-01   9.9993628525583234e-01   9.8535843493251341e-01   9.9999983971860806e-01   9.9981706618261101e-01   9.9999999997598255e-01   9.9999987287254044e-01   9.9999999999999922e-01   9.9999999999421307e-01   9.9999999999999989e-01   9.9999999999999989e-01   1.0000000000000000e+00   1.0000000000000000e+00   9.9999999999999989e-01   9.9999999999999989e-01   9.9999999999999989e-01   9.9999999999999989e-01   9.9999999999999989e-01   9.9999999999999989e-01   9.9999999999999989e-01   9.9999999999999989e-01   9.9999999999999989e-01   9.9999999999999989e-01   9.9999999999999989e-01   9.9999999999999989e-01   9.9999999999999989e-01   9.9999999999999989e-01   9.9999999999999989e-01   9.9999999999999989e-01   9.9999999999999989e-01   9.9999999999999989e-01   9.9999999999998546e-01   9.9999999999996891e-01   9.9999999998189049e-01   9.9999999994581834e-01   9.9999998500326337e-01   9.9999993291207456e-01   9.9999569168339397e-01   9.9996824617931090e-01   9.9964635260601586e-01   9.9581047126194955e-01   9.9276081445238362e-01   8.9729518775562966e-01   9.6952142391508533e-01   6.6231698429876040e-01   9.7313878067818937e-01   5.8677857259907151e-01   9.9547264340217434e-01   7.3211345260243155e-01   9.9986982357763232e-01   9.6206053266751357e-01   9.9999927519666010e-01   9.9948518810610665e-01   9.9999999898813208e-01   9.9999874261959909e-01   9.9999999999933531e-01   9.9999999912919102e-01   9.9999999999999944e-01   9.9999999999965783e-01   9.9999999999999989e-01   9.9999999999999967e-01   9.9999999999999989e-01   9.9999999999999989e-01   9.9999999999999989e-01   9.9999999999999989e-01   9.9999999999999989e-01   9.9999999999999989e-01   9.9999999999999989e-01   9.9999999999999989e-01   9.9999999999999989e-01   1.8915949939753404e-01   1.8891659343945810e-01   3.2943230244507813e-03   1.8858645772454929e-01   3.2889409168122366e-03   1.8795165042381559e-01   3.2765831841844446e-03   1.8679992408376744e-01   3.2503310048843563e-03   1.8498457469230761e-01   3.2040684307147369e-03   1.8243880828252682e-01   3.1360965759707755e-03   1.7913007593664210e-01   3.0456049734183714e-03   1.7510533025691763e-01   2.9342503457157883e-03   1.7056438779157815e-01   2.8068910649701466e-03   1.6588018868985077e-01   2.6746588460716896e-03   1.6146098919440544e-01   2.5497480890188753e-03   1.5761684931621214e-01   2.4415313493288127e-03   1.5457583725146659e-01   2.3539469564257021e-03   1.5262000642357243e-01   2.2915715452862251e-03   1.5210980242726943e-01   2.2611283376262610e-03   1.5341404789563790e-01   2.2721122348854923e-03   1.5681690381998636e-01   2.3333245984013726e-03   1.6247424945329869e-01   2.4542876231604480e-03   1.7027747998710457e-01   2.6423494398181979e-03   1.7970192558784528e-01   2.8991140815959418e-03   1.8974382314308810e-01   3.2114040271411142e-03   1.9893478266753753e-01   3.5456241985139521e-03   2.0543527870570003e-01   3.8377916999392243e-03   2.0737115920677293e-01   4.0007534385131842e-03   2.0334545797521580e-01   3.9529987222465517e-03   1.9299242571387348e-01   3.6686422792808478e-03   1.7723287224888609e-01   3.2005567183467638e-03   1.5809505151747646e-01   2.6547071182797801e-03   1.3826414486171451e-01   2.1346446327810036e-03   1.2036659389501668e-01   1.7077649895386460e-03   1.0614789400896504e-01   1.3951196960592660e-03   9.6409583876476398e-02   1.1875286786871924e-03   9.1807552132413359e-02   1.0717761425288002e-03   9.3478532683620164e-02   1.0503377040060322e-03   1.0316871002295044e-01   1.1467545176800833e-03   1.2309006751704493e-01   1.4170542262638697e-03   1.5501078900515608e-01   1.9737637619902100e-03   1.9802178422615560e-01   3.0163237105343588e-03   2.4622188024371566e-01   4.8027720930108866e-03   2.8946613735736815e-01   7.4052208206799291e-03   3.1694815255341013e-01   1.0185688070884203e-02   3.1983062114532507e-01   1.1619657795370886e-02   2.9270154404077636e-01   1.0411798164905485e-02   2.3446587828474802e-01   7.1303778273849230e-03   1.5031840993237722e-01   3.7038214426457863e-03   7.0834458991559643e-02   1.4670553951827241e-03   2.9965110031782691e-02   5.2851756204533307e-04   1.6313925844805753e-02   2.6230799032250779e-04   1.4841333983579867e-02   2.1162382829794285e-04   3.9124818854783909e-02   3.9983619977901336e-04   3.0708204485252605e-01   3.5799962289583534e-03   7.9905917301935725e-01   1.6812010301254937e-01   9.9995994296491364e-01   8.3743387133613145e-01   9.9999999981756249e-01   9.9999380559245432e-01   9.9999999999999922e-01   9.9999999999149902e-01   1.0000000000000000e+00   1.0000000000000000e+00   1.0000000000000000e+00   1.0000000000000000e+00   9.9999999999999989e-01   9.9999999999999989e-01   1.0000000000000000e+00   1.0000000000000000e+00   9.9999999999999989e-01   9.9999999999999989e-01   1.0000000000000000e+00   1.0000000000000000e+00   1.0000000000000000e+00   1.0000000000000000e+00   9.9999999999999989e-01   9.9999999999999989e-01   9.9999999999999944e-01   9.9999999999999889e-01   9.9999999999567013e-01   9.9999999998786238e-01   9.9999996371267130e-01   9.9999984369723749e-01   9.9978510107156748e-01   9.9853558684768073e-01   8.0047295151070574e-01   6.2133640588968009e-01   6.2590298639958175e-01   3.2405828777999490e-01   2.5350233209056516e-01   2.9720234555992209e-02   1.7637109147162475e-02   4.4130032453610718e-04   1.9392163899065726e-03   2.7811498858369230e-05   1.2700421117987080e-03   9.5469035172879285e-06   5.8415893334176341e-03   1.9876975261151619e-05   1.2368708857763498e-01   2.6811982254348882e-04   5.9219660627791015e-01   2.2453994959880610e-02   9.7851919051327296e-01   3.9169825292981703e-01   9.9999802572067364e-01   9.7484533625475833e-01   9.9999999991417776e-01   9.9999889932794439e-01   9.9999999999999045e-01   9.9999999996789113e-01   9.9999999999999989e-01   9.9999999999999645e-01   1.0000000000000000e+00   1.0000000000000000e+00   9.9999999999999989e-01   9.9999999999999989e-01   1.0000000000000000e+00   1.0000000000000000e+00   1.0000000000000000e+00   1.0000000000000000e+00   9.9999999999999944e-01   6.9564343174732802e-10   6.9589764506439167e-10   3.3678152859077191e-12   6.9395246956223845e-10   3.3656966103023929e-12   6.8777961104160568e-10   3.3471096264984603e-12   6.7617113759984215e-10   3.3041254917283896e-12   6.5888243009718873e-10   3.2338021149769243e-12   6.3590077648001387e-10   3.1367408670490700e-12   6.0755257306569855e-10   3.0128214737838261e-12   5.7556403162036419e-10   2.8667068718846171e-12   5.4325678215209417e-10   2.7110813594077850e-12   5.1399344965415606e-10   2.5642543644011080e-12   4.8948699723124390e-10   2.4387251477501577e-12   4.7016956069197592e-10   2.3383054751728119e-12   4.5691241531050270e-10   2.2645311551864702e-12   4.5168607742951389e-10   2.2251922526805852e-12   4.5696632589020680e-10   2.2319646131307991e-12   4.7528475599634124e-10   2.2977175717642240e-12   5.0949375274278432e-10   2.4352742045152805e-12   5.6242951962381927e-10   2.6603071597482609e-12   6.3508436472699736e-10   2.9838168972654931e-12   7.2449984900302411e-10   3.4020471625003280e-12   8.2072667180928716e-10   3.8844298148414201e-12   9.0344342192535011e-10   4.3559322815411852e-12   9.4407142288884427e-10   4.6874818841284114e-12   9.1853500731412864e-10   4.7359246154362227e-12   8.2473008977679275e-10   4.4285963785029017e-12   6.8716743406582726e-10   3.8318329990498041e-12   5.4097915036521716e-10   3.1113907746534624e-12   4.1370054604250583e-10   2.4290477037188412e-12   3.1801974017161189e-10   1.8825959309983387e-12   2.5346428659626475e-10   1.4996522542295072e-12   2.1347957660881417e-10   1.2575033607002220e-12   1.9372543384280994e-10   1.1262935029066055e-12   1.9563163126494010e-10   1.1048384429557247e-12   2.2755760239097828e-10   1.2301548668602889e-12   3.1028264217229185e-10   1.5956402865668906e-12   4.9138559887751398e-10   2.4183340515312084e-12   8.6962288296336477e-10   4.1803597620552547e-12   1.6035255345769883e-09   7.8238526768359407e-12   2.7931363795937378e-09   1.4589172462701562e-11   4.1418307950014094e-09   2.4444122651937995e-11   4.7884430217267262e-09   3.3467108713954495e-11   4.0893211224653677e-09   3.4950746001053767e-11   2.5925500727700755e-09   2.7338464825277245e-11   1.2981759926293057e-09   1.7024705719255920e-11   5.8351440346271467e-10   9.4351563599085824e-12   3.0487853908134355e-10   5.6410894474131128e-12   2.6515804367003654e-10   5.0268030478880137e-12   5.1801672211008543e-10   9.1637438378218868e-12   3.9261221126037534e-09   4.4383478374025266e-11   2.4939126619383245e-07   1.0999142800264632e-09   2.1340601008406254e-04   2.5997885012378019e-07   3.4303511823660932e-01   9.8976091538259038e-04   9.99898231