<?xml version="1.0"?>
<VTKFile type="UnstructuredGrid"  version="0.1"  >
<UnstructuredGrid>
<Piece  NumberOfPoints="2394" NumberOfCells="4583">
<Points>
<DataArray  type="Float64"  NumberOfComponents="3"  format="ascii">1.734782608695652 0 0  1.743043478260869 0 0  1.743043478260869 0.008333333333333333 0  1.751304347826087 0 0  1.751304347826087 0.008333333333333333 0  1.759565217391304 0 0  1.759565217391304 0.008333333333333333 0  1.767826086956522 0 0  1.767826086956522 0.008333333333333333 0  1.776086956521739 0 0  1.776086956521739 0.008333333333333333 0  1.784347826086957 0 0  1.784347826086957 0.008333333333333333 0  1.792608695652174 0 0  1.792608695652174 0.008333333333333333 0  1.800869565217391 0 0  1.800869565217391 0.008333333333333333 0  1.809130434782608 0 0  1.809130434782608 0.008333333333333333 0  1.817391304347826 0 0  1.817391304347826 0.008333333333333333 0  1.825652173913043 0 0  1.825652173913043 0.008333333333333333 0  1.833913043478261 0 0  1.833913043478261 0.008333333333333333 0  1.842173913043478 0 0  1.842173913043478 0.008333333333333333 0  1.850434782608696 0 0  1.850434782608696 0.008333333333333333 0  1.858695652173913 0 0  1.858695652173913 0.008333333333333333 0  1.86695652173913 0 0  1.86695652173913 0.008333333333333333 0  1.875217391304348 0 0  1.875217391304348 0.008333333333333333 0  1.883478260869565 0 0  1.883478260869565 0.008333333333333333 0  1.891739130434782 0 0  1.891739130434782 0.008333333333333333 0  1.9 0 0  1.9 0.008333333333333333 0  1.908260869565217 0 0  1.908260869565217 0.008333333333333333 0  1.916521739130435 0 0  1.916521739130435 0.008333333333333333 0  1.924782608695652 0 0  1.924782608695652 0.008333333333333333 0  1.933043478260869 0 0  1.933043478260869 0.008333333333333333 0  1.941304347826087 0 0  1.941304347826087 0.008333333333333333 0  1.949565217391304 0 0  1.949565217391304 0.008333333333333333 0  1.957826086956522 0 0  1.957826086956522 0.008333333333333333 0  1.966086956521739 0 0  1.966086956521739 0.008333333333333333 0  1.974347826086956 0 0  1.974347826086956 0.008333333333333333 0  1.982608695652174 0 0  1.982608695652174 0.008333333333333333 0  1.990869565217391 0 0  1.990869565217391 0.008333333333333333 0  1.999130434782608 0 0  1.999130434782608 0.008333333333333333 0  2.007391304347826 0 0  2.007391304347826 0.008333333333333333 0  2.015652173913043 0 0  2.015652173913043 0.008333333333333333 0  2.023913043478261 0 0  2.023913043478261 0.008333333333333333 0  2.032173913043478 0 0  2.032173913043478 0.008333333333333333 0  2.040434782608695 0 0  2.040434782608695 0.008333333333333333 0  2.048695652173913 0 0  2.048695652173913 0.008333333333333333 0  2.05695652173913 0 0  2.05695652173913 0.008333333333333333 0  2.065217391304348 0 0  2.065217391304348 0.008333333333333333 0  2.073478260869565 0 0  2.073478260869565 0.008333333333333333 0  2.081739130434782 0 0  2.081739130434782 0.008333333333333333 0  2.09 0 0  2.09 0.008333333333333333 0  2.098260869565217 0 0  2.098260869565217 0.008333333333333333 0  2.106521739130435 0 0  2.106521739130435 0.008333333333333333 0  2.114782608695652 0 0  2.114782608695652 0.008333333333333333 0  2.12304347826087 0 0  2.12304347826087 0.008333333333333333 0  2.131304347826087 0 0  2.131304347826087 0.008333333333333333 0  2.139565217391304 0 0  2.139565217391304 0.008333333333333333 0  2.147826086956522 0 0  2.147826086956522 0.008333333333333333 0  1.751304347826087 0.01666666666666667 0  1.743043478260869 0.01666666666666667 0  1.759565217391304 0.01666666666666667 0  1.767826086956522 0.01666666666666667 0  1.776086956521739 0.01666666666666667 0  1.784347826086957 0.01666666666666667 0  1.792608695652174 0.01666666666666667 0  1.800869565217391 0.01666666666666667 0  1.809130434782608 0.01666666666666667 0  1.817391304347826 0.01666666666666667 0  1.825652173913043 0.01666666666666667 0  1.833913043478261 0.01666666666666667 0  1.842173913043478 0.01666666666666667 0  1.850434782608696 0.01666666666666667 0  1.858695652173913 0.01666666666666667 0  1.86695652173913 0.01666666666666667 0  1.875217391304348 0.01666666666666667 0  1.883478260869565 0.01666666666666667 0  1.891739130434782 0.01666666666666667 0  1.9 0.01666666666666667 0  1.908260869565217 0.01666666666666667 0  1.916521739130435 0.01666666666666667 0  1.924782608695652 0.01666666666666667 0  1.933043478260869 0.01666666666666667 0  1.941304347826087 0.01666666666666667 0  1.949565217391304 0.01666666666666667 0  1.957826086956522 0.01666666666666667 0  1.966086956521739 0.01666666666666667 0  1.974347826086956 0.01666666666666667 0  1.982608695652174 0.01666666666666667 0  1.990869565217391 0.01666666666666667 0  1.999130434782608 0.01666666666666667 0  2.007391304347826 0.01666666666666667 0  2.015652173913043 0.01666666666666667 0  2.023913043478261 0.01666666666666667 0  2.032173913043478 0.01666666666666667 0  2.040434782608695 0.01666666666666667 0  2.048695652173913 0.01666666666666667 0  2.05695652173913 0.01666666666666667 0  2.065217391304348 0.01666666666666667 0  2.073478260869565 0.01666666666666667 0  2.081739130434782 0.01666666666666667 0  2.09 0.01666666666666667 0  2.098260869565217 0.01666666666666667 0  2.106521739130435 0.01666666666666667 0  2.114782608695652 0.01666666666666667 0  2.12304347826087 0.01666666666666667 0  2.131304347826087 0.01666666666666667 0  2.139565217391304 0.01666666666666667 0  2.147826086956522 0.01666666666666667 0  2.156086956521739 0.01666666666666667 0  1.751304347826087 0.025 0  1.759565217391304 0.025 0  1.767826086956522 0.025 0  1.776086956521739 0.025 0  1.784347826086957 0.025 0  1.792608695652174 0.025 0  1.800869565217391 0.025 0  1.809130434782608 0.025 0  1.817391304347826 0.025 0  1.825652173913043 0.025 0  1.833913043478261 0.025 0  1.842173913043478 0.025 0  1.850434782608696 0.025 0  1.858695652173913 0.025 0  1.86695652173913 0.025 0  1.875217391304348 0.025 0  1.883478260869565 0.025 0  1.891739130434782 0.025 0  1.9 0.025 0  1.908260869565217 0.025 0  1.916521739130435 0.025 0  1.924782608695652 0.025 0  1.933043478260869 0.025 0  1.941304347826087 0.025 0  1.949565217391304 0.025 0  1.957826086956522 0.025 0  1.966086956521739 0.025 0  1.974347826086956 0.025 0  1.982608695652174 0.025 0  1.990869565217391 0.025 0  1.999130434782608 0.025 0  2.007391304347826 0.025 0  2.015652173913043 0.025 0  2.023913043478261 0.025 0  2.032173913043478 0.025 0  2.040434782608695 0.025 0  2.048695652173913 0.025 0  2.05695652173913 0.025 0  2.065217391304348 0.025 0  2.073478260869565 0.025 0  2.081739130434782 0.025 0  2.09 0.025 0  2.098260869565217 0.025 0  2.106521739130435 0.025 0  2.114782608695652 0.025 0  2.12304347826087 0.025 0  2.131304347826087 0.025 0  2.139565217391304 0.025 0  2.147826086956522 0.025 0  2.156086956521739 0.025 0  2.164347826086956 0.025 0  1.759565217391304 0.03333333333333333 0  1.767826086956522 0.03333333333333333 0  1.776086956521739 0.03333333333333333 0  1.784347826086957 0.03333333333333333 0  1.792608695652174 0.03333333333333333 0  1.800869565217391 0.03333333333333333 0  1.809130434782608 0.03333333333333333 0  1.817391304347826 0.03333333333333333 0  1.825652173913043 0.03333333333333333 0  1.833913043478261 0.03333333333333333 0  1.842173913043478 0.03333333333333333 0  1.850434782608696 0.03333333333333333 0  1.858695652173913 0.03333333333333333 0  1.86695652173913 0.03333333333333333 0  1.875217391304348 0.03333333333333333 0  1.883478260869565 0.03333333333333333 0  1.891739130434782 0.03333333333333333 0  1.9 0.03333333333333333 0  1.908260869565217 0.03333333333333333 0  1.916521739130435 0.03333333333333333 0  1.924782608695652 0.03333333333333333 0  1.933043478260869 0.03333333333333333 0  1.941304347826087 0.03333333333333333 0  1.949565217391304 0.03333333333333333 0  1.957826086956522 0.03333333333333333 0  1.966086956521739 0.03333333333333333 0  1.974347826086956 0.03333333333333333 0  1.982608695652174 0.03333333333333333 0  1.990869565217391 0.03333333333333333 0  1.999130434782608 0.03333333333333333 0  2.007391304347826 0.03333333333333333 0  2.015652173913043 0.03333333333333333 0  2.023913043478261 0.03333333333333333 0  2.032173913043478 0.03333333333333333 0  2.040434782608695 0.03333333333333333 0  2.048695652173913 0.03333333333333333 0  2.05695652173913 0.03333333333333333 0  2.065217391304348 0.03333333333333333 0  2.073478260869565 0.03333333333333333 0  2.081739130434782 0.03333333333333333 0  2.09 0.03333333333333333 0  2.098260869565217 0.03333333333333333 0  2.106521739130435 0.03333333333333333 0  2.114782608695652 0.03333333333333333 0  2.12304347826087 0.03333333333333333 0  2.131304347826087 0.03333333333333333 0  2.139565217391304 0.03333333333333333 0  2.147826086956522 0.03333333333333333 0  2.156086956521739 0.03333333333333333 0  2.164347826086956 0.03333333333333333 0  2.172608695652174 0.03333333333333333 0  1.767826086956522 0.04166666666666666 0  1.776086956521739 0.04166666666666666 0  1.784347826086957 0.04166666666666666 0  1.792608695652174 0.04166666666666666 0  1.800869565217391 0.04166666666666666 0  1.809130434782608 0.04166666666666666 0  1.817391304347826 0.04166666666666666 0  1.825652173913043 0.04166666666666666 0  1.833913043478261 0.04166666666666666 0  1.842173913043478 0.04166666666666666 0  1.850434782608696 0.04166666666666666 0  1.858695652173913 0.04166666666666666 0  1.86695652173913 0.04166666666666666 0  1.875217391304348 0.04166666666666666 0  1.883478260869565 0.04166666666666666 0  1.891739130434782 0.04166666666666666 0  1.9 0.04166666666666666 0  1.908260869565217 0.04166666666666666 0  1.916521739130435 0.04166666666666666 0  1.924782608695652 0.04166666666666666 0  1.933043478260869 0.04166666666666666 0  1.941304347826087 0.04166666666666666 0  1.949565217391304 0.04166666666666666 0  1.957826086956522 0.04166666666666666 0  1.966086956521739 0.04166666666666666 0  1.974347826086956 0.04166666666666666 0  1.982608695652174 0.04166666666666666 0  1.9908
[...]
<CellData  Scalars="sigma_m"> 
<DataArray  type="Float64"  Name="sigma_m"  format="ascii">6.8467348348901253e+06   8.2642393998691011e+06   6.5028182929507410e+06   9.5016674925533589e+06   7.1697807423663689e+06   1.0243567654121852e+07   7.7173735541738225e+06   1.0329618075310422e+07   8.2123312107813284e+06   9.9279560596148334e+06   8.7047467908555195e+06   9.5331184055617284e+06   9.2936256952909119e+06   9.2157386890972573e+06   1.0226366525268340e+07   8.7921736450895965e+06   1.1679662243395869e+07   8.3167225725646298e+06   1.3248484511218160e+07   7.9998442660008660e+06   1.3981485149334591e+07   8.0167820714221094e+06   1.3637941783982890e+07   8.3191869207477504e+06   1.2749850678823985e+07   8.7269987339563295e+06   1.1885172225039672e+07   9.1044684034162574e+06   1.1268592386212924e+07   9.4037255531776622e+06   1.0904377088431647e+07   9.6256695466795769e+06   1.0737184166927520e+07   9.7841493721903004e+06   1.0720721771670362e+07   9.8907881150467340e+06   1.0828920797557425e+07   9.9531563869984690e+06   1.1047582302049140e+07   9.9785854283729587e+06   1.1361214656322462e+07   9.9782120767091978e+06   1.1742817060567340e+07   9.9676223115510494e+06   1.2150344661075700e+07   9.9637459011177495e+06   1.2532973273711435e+07   9.9805612872291226e+06   1.2843948259571217e+07   1.0026154377406830e+07   1.3055401369231936e+07   1.0102011512114750e+07   1.3164529682906378e+07   1.0204296700813793e+07   1.3189432851959050e+07   1.0326365075395167e+07   1.3156764480451589e+07   1.0461253186239950e+07   1.3092260852566792e+07   1.0603122117387507e+07   1.3015785833017590e+07   1.0747505151163820e+07   1.2942181743993927e+07   1.0891139884992240e+07   1.2881401052683016e+07   1.1031889934066365e+07   1.2839584810967164e+07   1.1168718299298096e+07   1.2818984351725057e+07   1.1301438022992646e+07   1.2820177221781882e+07   1.1430353304598695e+07   1.2842785183951393e+07   1.1555989826449197e+07   1.2886987095957339e+07   1.1678969469403133e+07   1.2953475922680974e+07   1.1799888813641613e+07   1.3045045625707259e+07   1.1919186636260113e+07   1.3166877986285273e+07   1.2036998447404699e+07   1.3327835752657602e+07   1.2153322292565526e+07   1.3537720507658755e+07   1.2268540658656450e+07   1.3802915918534465e+07   1.2384024206120998e+07   1.4117967550604280e+07   1.2501991092052659e+07   1.4461651539809592e+07   1.2624502320716949e+07   1.4798354963010367e+07   1.2752238577693203e+07   1.5088264242727233e+07   1.2884257202717375e+07   1.5295711025734492e+07   1.3019071359788828e+07   1.5394242029650005e+07   7.0287902921288665e+06   5.2728030257969610e+06   7.6027651007976569e+06   5.4229221623827172e+06   7.8970073252337780e+06   5.4200464369610213e+06   8.1616017010439076e+06   5.5238398335602023e+06   8.5649213835203201e+06   6.7135026238079136e+06   9.2820052534788549e+06   8.7812284734235387e+06   1.0350384267734004e+07   1.0184728099124480e+07   1.1846454662132356e+07   1.3067579187566202e+07   1.3261661723848462e+07   1.8375695845818657e+07   1.3894297547682354e+07   2.0776348151879370e+07   1.3576339820429793e+07   1.9324365938935213e+07   1.2725339780291094e+07   1.6470510526063155e+07   1.1879813477618955e+07   1.4050493704773441e+07   1.1273917141146379e+07   1.2552684745360207e+07   1.0913769719909510e+07   1.1718566450800657e+07   1.0747005781215778e+07   1.1291364868178651e+07   1.0730556878903989e+07   1.1144341234749012e+07   1.0839540829539463e+07   1.1230428326864673e+07   1.1058573787281154e+07   1.1538115779598581e+07   1.1369142302677605e+07   1.2055585482784713e+07   1.1740804053076936e+07   1.2738238242365306e+07   1.2130086396512836e+07   1.3491411315101583e+07   1.2488338073711319e+07   1.4187689358094370e+07   1.2773969474090002e+07   1.4710102736772714e+07   1.2964227685654335e+07   1.4996529274081355e+07   1.3058868361974422e+07   1.5052358435408656e+07   1.3075483715346718e+07   1.4932318328020081e+07   1.3038750117774351e+07   1.4704247728112878e+07   1.2972272942557795e+07   1.4424619012206048e+07   1.2894437103321271e+07   1.4130220683507079e+07   1.2819063912242372e+07   1.3845392218516674e+07   1.2755541697792646e+07   1.3586661029932395e+07   1.2709636927519912e+07   1.3364689711887736e+07   1.2683537178172080e+07   1.3182294783273710e+07   1.2677774644890767e+07   1.3038194733144293e+07   1.2691994567278683e+07   1.2929376790330281e+07   1.2726245493252393e+07   1.2854136057638276e+07   1.2781077199187426e+07   1.2811067736013688e+07   1.2858883778999610e+07   1.2801432673333719e+07   1.2964222641900368e+07   1.2829910001957132e+07   1.3104644101707799e+07   1.2908346119184468e+07   1.3287970766179629e+07   1.3053352221418273e+07   1.3517978429944940e+07   1.3279018713202443e+07   1.3787358738102831e+07   1.3580124073401673e+07   1.4075342723765519e+07   1.3921761634228656e+07   1.4350562688258838e+07   1.4243677100113913e+07   1.4580417005376475e+07   1.4484318820264975e+07   1.4737666911282504e+07   1.4600743225386815e+07   1.4803350165221956e+07   1.4570943530574141e+07   1.4385592368398434e+07   5.7479307027549632e+06   5.9139458504845751e+06   3.7479737839997532e+06   5.7104256398800621e+06   3.0672852260103524e+06   5.5583557201042883e+06   2.9196727607618850e+06   6.7504160296010338e+06   3.0028187811917989e+06   7.8819352785813985e+06   5.9414343708325028e+06   5.5669767865223857e+06   1.5904613114792237e+06   2.2557007134134765e+06   1.3760034839351775e+05   1.7490114135164132e+06   6.7612481110449095e+04   1.7653131491358429e+06   5.1801520030567583e+04   1.9880806171246713e+06   6.8201932724579194e+04   2.3918482031623661e+06   1.0021571338051825e+05   2.9713779911901974e+06   1.4469574078217853e+05   3.5130551990090762e+06   2.0097889118637872e+05   3.8752271303440528e+06   2.5049887655508265e+05   4.0093813309217934e+06   2.7940617293376580e+05   3.9225995859269658e+06   2.7922192512063682e+05   3.6560748565910431e+06   2.5280593862690014e+05   3.2774131364272600e+06   2.1281178196361722e+05   2.8665732131192554e+06   1.7226347408109638e+05   2.4925077299368046e+06   1.3813768993319920e+05   2.1960765472193528e+06   1.1169263279211363e+05   1.9921955538526915e+06   9.2603423999341001e+04   1.8759153509750869e+06   8.0812266828562264e+04   1.8274872365530494e+06   7.5488319338711211e+04   1.8216300019118215e+06   7.4637461876619520e+04   1.8371263537208515e+06   7.6164268131602163e+04   1.8597675871113448e+06   7.8467385652506651e+04   1.8821993858994918e+06   8.0619061625814080e+04   1.9016503912907944e+06   8.2177577925132573e+04   1.9181958297941189e+06   8.3013476026622753e+04   1.9335286013533387e+06   8.3104580810885469e+04   1.9507536473159750e+06   8.2621147017902840e+04   1.9736767020486637e+06   8.1857250673798437e+04   2.0065619263550520e+06   8.1201207923393857e+04   2.0536654182569035e+06   8.0952046472407019e+04   2.1194351565299374e+06   8.1392096213806071e+04   2.2080499521508934e+06   8.2748684114460018e+04   2.3230537283297530e+06   8.5251229969000720e+04   2.4657436773904739e+06   8.9028736347591694e+04   2.6312496866597258e+06   9.4061568804072944e+04   2.7999851176146981e+06   9.9780944910295264e+04   2.9302300816795477e+06   1.0470978814746469e+05   2.9687585032665804e+06   1.0663647243185036e+05   2.8890996406118842e+06   1.0419909463333864e+05   2.7186939821385434e+06   9.8051504422075741e+04   2.5177919903230653e+06   9.0325117000892962e+04   2.3403508130500410e+06   8.3108852888746915e+04   2.2204389762253379e+06   7.7816863263991152e+04   2.1753948192285639e+06   7.5254088085390424e+04   7.5841711489663357e+04   3.9361665602039630e+06   3.2135767292014896e+06   2.6723781923026098e+06   2.8997027725646938e+06   3.3404741629271056e+06   6.7214198274237558e+05   4.6603496922305255e+05   1.8835789189078866e+03   4.3227755605566074e+02   1.3503929861890670e+01   9.8640790891651342e-01   1.0674432019266182e+00   3.3207960976830583e-02   4.6539072011228522e-01   7.6102375693819970e-03   5.7057593370164550e-01   5.7136397783121712e-03   1.1938740798346088e+00   9.0029408153835342e-03   2.9247043539834898e+00   2.0495403238313750e-02   6.1219370380867897e+00   5.0085655796440413e-02   9.9576201157884707e+00   9.2758675918486952e-02   1.2984062701325948e+01   1.3129159140298449e-01   1.4043817789209912e+01   1.5037915377219613e-01   1.2847308109222592e+01   1.4236049614714361e-01   1.0244112395318599e+01   1.1395311548139871e-01   7.4805636663529693e+00   8.0905673757834334e-02   5.3062088462843793e+00   5.4505362722555989e-02   3.8491833200657957e+00   3.7200153230881890e-02   2.9511542198017522e+00   2.6947534970147232e-02   2.4331783092523005e+00   2.1207917775317716e-02   2.1787650499765223e+00   1.8296581483815501e-02   2.1189401717678371e+00   1.7308980678362045e-02   2.2059632352209562e+00   1.7765410492209061e-02   2.3978337241642391e+00   1.9302487242938812e-02   2.6550213846415991e+00   2.1559523836199294e-02   2.9459964200372188e+00   2.4208694195210084e-02   3.2485929985876911e+00   2.7037951639853414e-02   3.5411964009817525e+00   2.9875291527242300e-02   3.7981703250621019e+00   3.2496604605539256e-02   3.9970144561694601e+00   3.4639649186109317e-02   4.1283628997767119e+00   3.6155413501797545e-02   4.1945232986944916e+00   3.7039843927344863e-02   4.2001098712453127e+00   3.7360162098753369e-02   4.1493458505282685e+00   3.7152559786229576e-02   4.0478406788572503e+00   3.6476108252833025e-02   3.9004743781588549e+00   3.5394218780683530e-02   3.7063745279955183e+00   3.3950543152968943e-02   3.4521254291988970e+00   3.2051772470972857e-02   3.1177502132715844e+00   2.9448314036026768e-02   2.7009176190182513e+00   2.5902730203422621e-02   2.2424971979924422e+00   2.1601104081517677e-02   1.8121937341862930e+00   1.7242158560553084e-02   1.4639286469061390e+00   1.3568181210893595e-02   1.2120030492064791e+00   1.0879605624948774e-02   1.0450359709856756e+00   9.0884464287993138e-03   9.4944807705995471e-01   8.0048668518973905e-03   9.1887763980393256e-01   7.5222221765030390e-03   9.5311016971762785e-01   7.6151562863870197e-03   8.3202996522939356e-03   4.3904066422665734e+06   1.2857180658258512e+06   8.5331854119154508e+05   3.5044323644410426e+01   2.3301793629517324e+01   3.7487044883775644e-03   1.7047221107666102e-03   7.2160194520426649e-06   1.5546054938614416e-06   1.3063700410397385e-07   1.3801875305747736e-08   1.4178735564533021e-08   0.0000000000000000e+00   7.9021776241031222e-09   0.0000000000000000e+00   7.8119292178340898e-09   0.0000000000000000e+00   1.3247915233112791e-08   0.0000000000000000e+00   2.2711560546851122e-08   0.0000000000000000e+00   3.6360900453417026e-08   0.0000000000000000e+00   4.4607537744274007e-08   0.0000000000000000e+00   4.5214059933025836e-08   0.0000000000000000e+00   3.7616543495315395e-08   0.0000000000000000e+00   2.6646393131158918e-08   0.0000000000000000e+00   1.5634180109440046e-08   0.0000000000000000e+00   8.6032147421329954e-09   0.0000000000000000e+00   5.1592427378819063e-09   0.0000000000000000e+00   2.7632331028484973e-09   0.0000000000000000e+00   2.9970493699490506e-09   0.0000000000000000e+00   3.2684766980805378e-09   0.0000000000000000e+00   3.5680844386435804e-09   0.0000000000000000e+00   3.8894551148901489e-09   0.0000000000000000e+00   4.2266834556549859e-09   0.0000000000000000e+00   4.5727047259032585e-09   0.0000000000000000e+00   4.9198215350197886e-09   0.0000000000000000e+00   5.2612364497875916e-09   0.0000000000000000e+00   5.5919900759301955e-09   0.0000000000000000e+00   5.9089405979790409e-09   0.0000000000000000e+00   6.2103263076172544e-09   0.0000000000000000e+00   6.4953755357800028e-09   0.0000000000000000e+00   6.7640301044488973e-09   0.0000000000000000e+00   7.0166616508513944e-09   0.0000000000000000e+00   7.2537830956902925e-09   0.0000000000000000e+00   7.4759881144284434e-09   0.0000000000000000e+00   7.6841318339546129e-09   0.0000000000000000e+00   7.8794565321568024e-09   0.0000000000000000e+00   8.0629233572144513e-09   0.0000000000000000e+00   8.2332315992533829e-09   0.0000000000000000e+00   0.0000000000000000e+00   0.0000000000000000e+00   0.0000000000000000e+00   0.0000000000000000e+00   0.0000000000000000e+00   0.0000000000000000e+00   0.0000000000000000e+00   0.0000000000000000e+00   0.0000000000000000e+00   0.0000000000000000e+00   0.0000000000000000e+00   0.0000000000000000e+00   0.0000000000000000e+00   0.0000000000000000e+00   0.0000000000000000e+00   0.0000000000000000e+00   0.0000000000000000e+00   0.0000000000000000e+00   0.0000000000000000e+00   0.0000000000000000e+00   3.1718085549154176e+02   8.0690073839040247e+02   1.7024441310492368e-03   2.7603715755022732e-03   1.1793825797964994e-07   1.2000193457232266e-07   0.0000000000000000e+00   0.0000000000000000e+00   0.0000000000000000e+00   0.0000000000000000e+00   0.0000000000000000e+00   0.0000000000000000e+00   0.0000000000000000e+00   0.0000000000000000e+00   0.0000000000000000e+00   0.0000000000000000e+00   0.0000000000000000e+00   0.0000000000000000e+00   0.0000000000000000e+00   0.0000000000000000e+00   0.0000000000000000e+00   0.0000000000000000e+00   0.0000000000000000e+00   0.0000000000000000e+00   0.0000000000000000e+00   0.0000000000000000e+00   0.0000000000000000e+00   0.0000000000000000e+00   0.0000000000000000e+00   0.0000000000000000e+00   0.0000000000000000e+00   0.0000000000000000e+00   0.0000000000000000e+00   0.0000000000000000e+00   0.0000000000000000e+00   0.0000000000000000e+00   0.0000000000000000e+00   0.0000000000000000e+00   0.0000000000000000e+00   0.0000000000000000e+00   0.0000000000000000e+00   0.0000000000000000e+00   0.0000000000000000e+00   0.0000000000000000e+00   0.0000000000000000e+00   0.0000000000000000e+00   0.0000000000000000e+00   0.0000000000000000e+00   0.0000000000000000e+00   0.0000000000000000e+00   0.0000000000000000e+00   0.0000000000000000e+00   0.0000000000000000e+00   0.0000000000000000e+00   0.0000000000000000e+00   0.0000000000000000e+00   0.0000000000000000e+00   0.0000000000000000e+00   0.0000000000000000e+00   0.0000000000000000e+00   0.0000000000000000e+00   0.0000000000000000e+00   0.0000000000000000e+00   0.0000000000000000e+00   0.0000000000000000e+00   0.0000000000000000e+00   0.0000000000000000e+00   0.0000000000000000e+00   0.0000000000000000e+00   0.0000000000000000e+00   0.0000000000000000e+00   0.0000000000000000e+00   0.0000000000000000e+00   0.0000000000000000e+00   0.0000000000000000e+00   0.0000000000000000e+00   0.0000000000000000e+00   0.0000000000000000e+00   0.0000000000000000e+00   0.0000000000000000e+00   0.0000000000000000e+00   0.0000000000000000e+00   0.0000000000000000e+00   0.0000000000000000e+00   0.0000000000000000e+00   0.0000000000000000e+00   0.0000000000000000e+00   0.0000000000000000e+00   0.0000000000000000e+00   0.0000000000000000e+00   0.0000000000000000e+00   0.0000000000000000e+00   0.0000000000000000e+00   0.0000000000000000e+00   0.0000000000000000e+00   0.0000000000000000e+00   0.0000000000000000e+00   0.0000000000000000e+00   0.0000000000000000e+00   3.6302957166709415e-01   1.5513823252286320e-06   6.2741277672494091e-06   0.0000000000000000e+00   0.0000000000000000e+00   0.0000000000000000e+00   0.0000000000000000e+00   0.0000000000000000e+00   0.0000000000000000e+00   0.0000000000000000e+00   0.0000000000000000e+00   0.0000000000000000e+00   0.0000000000000000e+00   0.0000000000000000e+00   0.0000000000000000e+00   0.0000000000000000e+00   0.0000000000000000e+00   0.0000000000000000e+00   0.0000000000000000e+00   0.0000000000000000e+00   0.0000000000000000e+00   0.0000000000000000e+00   0.0000000000000000e+00   0.0000000000000000e+00   0.0000000000000000e+00   0.0000000000000000e+00   0.0000000000000000e+00   0.0000000000000000e+00   0.0000000000000000e+00   0.0000000000000000e+00   0.0000000000000000e+00   0.0000000000000000e+00   0.0000000000000000e+00   0.0000000000000000e+00   0.0000000000000000e+00   0.0000000000000000e+00   0.0000000000000000e+00   0.0000000000000000e+00   0.0000000000000000e+00   0.0000000000000000e+00   0.0000000000000000e+00   0.0000000000000000e+00   0.0000000000000000e+00   0.0000000000000000e+00   0.0000000000000000e+00   0.0000000000000000e+00   0.0000000000000000e+00   0.0000000000000000e+00   0.0000000000000000e+00   0.0000000000000000e+00   0.0000000000000000e+00   0.0000000000000000e+00   0.0000000000000000e+00   0.0000000000000000e+00   0.0000000000000000e+00   0.0000000000000000e+00   0.0000000000000000e+00   0.0000000000000000e+00   0.0000000000000000e+00   0.0000000000000000e+00   0.0000000000000000e+00   0.0000000000000000e+00   0.0000000000000000e+00   0.0000000000000000e+00   0.0000000000000000e+00   0.0000000000000000e+00   0.0000000000000000e+00   0.0000000000000000e+00   0.0000000000000000e+00   0.0000000000000000e+00   0.0000000000000000e+00   0.0000000000000000e+00   0.0000000000000000e+00   0.0000000000000000e+00   0.0000000000000000e+00   0.0000000000000000e+00   0.0000000000000000e+00   0.0000000000000000e+00   0.0000000000000000e+00   0.0000000000000000e+00   0.0000000000000000e+00   0.0000000000000000e+00   0.0000000000000000e+00   0.0000000000000000e+00   0.0000000000000000e+00   0.0000000000000000e+00   0.0000000000000000e+00   0.0000000000000000e+00   0.0000000000000000e+00   0.0000000000000000e+00   0.0000000000000000e+00   0.0000000000000000e+00   0.0000000000000000e+00   0.0000000000000000e+00   0.0000000000000000e+00   0.0000000000000000e+00   0.0000000000000000e+00   0.0000000000000000e+00   0.0000000000000000e+00   3.3649917085379363e-08   3.6814104373743608e-07   0.0000000000000000e+00   0.0000000000000000e+00   0.0000000000000000e+00   0.0000000000000000e+00   0.0000000000000000e+00   0.0000000000000000e+00   0.0000000000000000e+00   0.0000000000000000e+00   0.0000000000000000e+00   0.0000000000000000e+00   0.0000000000000000e+00   0.0000000000000000e+00   0.0000000000000000e+00   0.0000000000000000e+00   0.0000000000000000e+00   0.0000000000000000e+00   0.0000000000000000e+00   0.0000000000000000e+00   0.0000000000000000e+00   0.0000000000000000e+00   0.0000000000000000e+00   0.0000000000000000e+00   0.0000000000000000e+00   0.0000000000000000e+00   0.0000000000000000e+00   0.0000000000000000e+00   0.0000000000000000e+00   0.0000000000000000e+00   0.0000000000000000e+00   0.0000000000000000e+00   0.0000000000000000e+00   0.0000000000000000e+00   0.0000000000000000e+00   0.0000000000000000e+00   0.0000000000000000e+00   0.0000000000000000e+00   0.0000000000000000e+00   0.0000000000000000e+00   0.0000000000000000e+00   0.0000000000000000e+00   0.0000000000000000e+00   0.0000000000000000e+00   0.0000000000000000e+00   0.0000000000000000e+00   0.0000000000000000e+00   0.0000000000000000e+00   0.0000000000000000e+00   0.0000000000000000e+00   0.0000000000000000e+00   0.0000000000000000e+00   0.0000000000000000e+00   0.0000000000000000e+00   0.0000000000000000e+00   0.0000000000000000e+00   0.0000000000000000e+00   0.0000000000000000e+00   0.0000000000000000e+00   0.0000000000000000e+00   0.0000000000000000e+00   0.0000000000000000e+00   0.0000000000000000e+00   0.0000000000000000e+00   0.0000000000000000e+00   0.0000000000000000e+00   0.0000000000000000e+00   0.0000000000000000e+00   0.0000000000000000e+00   0.0000000000000000e+00   0.0000000000000000e+00   0.0000000000000000e+00   0.0000000000000000e+00   0.0000000000000000e+00   0.0000000000000000e+00   0.0000000000000000e+00   0.0000000000000000e+00   0.0000000000000000e+00   0.0000000000000000e+00   0.0000000000000000e+00   0.0000000000000000e+00   0.0000000000000000e+00   0.0000000000000000e+00   0.0000000000000000e+00   0.0000000000000000e+00   0.0000000000000000e+00   0.0000000000000000e+00   0.0000000000000000e+00   0.0000000000000000e+00   0.0000000000000000e+00   0.0000000000000000e+00   0.0000000000000000e+00   0.0000000000000000e+00   0.0000000000000000e+00   0.0000000000000000e+00   0.0000000000000000e+00   0.0000000000000000e+00   0.0000000000000000e+00   1.6417163773726514e-08   8.3452562081508984e-07   0.0000000000000000e+00   0.00000000