<?xml version="1.0"?>
<VTKFile type="UnstructuredGrid"  version="0.1"  >
<UnstructuredGrid>
<Piece  NumberOfPoints="2484" NumberOfCells="4724">
<Points>
<DataArray  type="Float64"  NumberOfComponents="3"  format="ascii">2.949130434782608 0 0  2.957391304347826 0 0  2.957391304347826 0.008333333333333333 0  2.949130434782608 0.008333333333333333 0  2.965652173913043 0 0  2.965652173913043 0.008333333333333333 0  2.973913043478261 0 0  2.973913043478261 0.008333333333333333 0  2.982173913043478 0 0  2.982173913043478 0.008333333333333333 0  2.990434782608696 0 0  2.990434782608696 0.008333333333333333 0  2.998695652173913 0 0  2.998695652173913 0.008333333333333333 0  3.006956521739131 0 0  3.006956521739131 0.008333333333333333 0  3.015217391304348 0 0  3.015217391304348 0.008333333333333333 0  3.023478260869565 0 0  3.023478260869565 0.008333333333333333 0  3.031739130434782 0 0  3.031739130434782 0.008333333333333333 0  3.04 0 0  3.04 0.008333333333333333 0  3.048260869565218 0 0  3.048260869565218 0.008333333333333333 0  3.056521739130435 0 0  3.056521739130435 0.008333333333333333 0  3.064782608695652 0 0  3.064782608695652 0.008333333333333333 0  3.073043478260869 0 0  3.073043478260869 0.008333333333333333 0  3.081304347826087 0 0  3.081304347826087 0.008333333333333333 0  3.089565217391304 0 0  3.089565217391304 0.008333333333333333 0  3.097826086956522 0 0  3.097826086956522 0.008333333333333333 0  3.106086956521739 0 0  3.106086956521739 0.008333333333333333 0  3.114347826086956 0 0  3.114347826086956 0.008333333333333333 0  3.122608695652174 0 0  3.122608695652174 0.008333333333333333 0  3.130869565217391 0 0  3.130869565217391 0.008333333333333333 0  3.139130434782609 0 0  3.139130434782609 0.008333333333333333 0  3.147391304347826 0 0  3.147391304347826 0.008333333333333333 0  3.155652173913043 0 0  3.155652173913043 0.008333333333333333 0  3.163913043478261 0 0  3.163913043478261 0.008333333333333333 0  3.172173913043478 0.008333333333333333 0  2.957391304347826 0.01666666666666667 0  2.965652173913043 0.01666666666666667 0  2.973913043478261 0.01666666666666667 0  2.982173913043478 0.01666666666666667 0  2.990434782608696 0.01666666666666667 0  2.998695652173913 0.01666666666666667 0  3.006956521739131 0.01666666666666667 0  3.015217391304348 0.01666666666666667 0  3.023478260869565 0.01666666666666667 0  3.031739130434782 0.01666666666666667 0  3.04 0.01666666666666667 0  3.048260869565218 0.01666666666666667 0  3.056521739130435 0.01666666666666667 0  3.064782608695652 0.01666666666666667 0  3.073043478260869 0.01666666666666667 0  3.081304347826087 0.01666666666666667 0  3.089565217391304 0.01666666666666667 0  3.097826086956522 0.01666666666666667 0  3.106086956521739 0.01666666666666667 0  3.114347826086956 0.01666666666666667 0  3.122608695652174 0.01666666666666667 0  3.130869565217391 0.01666666666666667 0  3.139130434782609 0.01666666666666667 0  3.147391304347826 0.01666666666666667 0  3.155652173913043 0.01666666666666667 0  3.163913043478261 0.01666666666666667 0  3.172173913043478 0.01666666666666667 0  3.180434782608696 0.01666666666666667 0  2.965652173913043 0.025 0  2.973913043478261 0.025 0  2.982173913043478 0.025 0  2.990434782608696 0.025 0  2.998695652173913 0.025 0  3.006956521739131 0.025 0  3.015217391304348 0.025 0  3.023478260869565 0.025 0  3.031739130434782 0.025 0  3.04 0.025 0  3.048260869565218 0.025 0  3.056521739130435 0.025 0  3.064782608695652 0.025 0  3.073043478260869 0.025 0  3.081304347826087 0.025 0  3.089565217391304 0.025 0  3.097826086956522 0.025 0  3.106086956521739 0.025 0  3.114347826086956 0.025 0  3.122608695652174 0.025 0  3.130869565217391 0.025 0  3.139130434782609 0.025 0  3.147391304347826 0.025 0  3.155652173913043 0.025 0  3.163913043478261 0.025 0  3.172173913043478 0.025 0  3.180434782608696 0.025 0  3.188695652173913 0.025 0  2.973913043478261 0.03333333333333333 0  2.982173913043478 0.03333333333333333 0  2.990434782608696 0.03333333333333333 0  2.998695652173913 0.03333333333333333 0  3.006956521739131 0.03333333333333333 0  3.015217391304348 0.03333333333333333 0  3.023478260869565 0.03333333333333333 0  3.031739130434782 0.03333333333333333 0  3.04 0.03333333333333333 0  3.048260869565218 0.03333333333333333 0  3.056521739130435 0.03333333333333333 0  3.064782608695652 0.03333333333333333 0  3.073043478260869 0.03333333333333333 0  3.081304347826087 0.03333333333333333 0  3.089565217391304 0.03333333333333333 0  3.097826086956522 0.03333333333333333 0  3.106086956521739 0.03333333333333333 0  3.114347826086956 0.03333333333333333 0  3.122608695652174 0.03333333333333333 0  3.130869565217391 0.03333333333333333 0  3.139130434782609 0.03333333333333333 0  3.147391304347826 0.03333333333333333 0  3.155652173913043 0.03333333333333333 0  3.163913043478261 0.03333333333333333 0  3.172173913043478 0.03333333333333333 0  3.180434782608696 0.03333333333333333 0  3.188695652173913 0.03333333333333333 0  3.19695652173913 0.03333333333333333 0  2.982173913043478 0.04166666666666666 0  2.990434782608696 0.04166666666666666 0  2.998695652173913 0.04166666666666666 0  3.006956521739131 0.04166666666666666 0  3.015217391304348 0.04166666666666666 0  3.023478260869565 0.04166666666666666 0  3.031739130434782 0.04166666666666666 0  3.04 0.04166666666666666 0  3.048260869565218 0.04166666666666666 0  3.056521739130435 0.04166666666666666 0  3.064782608695652 0.04166666666666666 0  3.073043478260869 0.04166666666666666 0  3.081304347826087 0.04166666666666666 0  3.089565217391304 0.04166666666666666 0  3.097826086956522 0.04166666666666666 0  3.106086956521739 0.04166666666666666 0  3.114347826086956 0.04166666666666666 0  3.122608695652174 0.04166666666666666 0  3.130869565217391 0.04166666666666666 0  3.139130434782609 0.04166666666666666 0  3.147391304347826 0.04166666666666666 0  3.155652173913043 0.04166666666666666 0  3.163913043478261 0.04166666666666666 0  3.172173913043478 0.04166666666666666 0  3.180434782608696 0.04166666666666666 0  3.188695652173913 0.04166666666666666 0  3.19695652173913 0.04166666666666666 0  3.205217391304347 0.04166666666666666 0  2.990434782608696 0.05 0  2.998695652173913 0.05 0  3.006956521739131 0.05 0  3.015217391304348 0.05 0  3.023478260869565 0.05 0  3.031739130434782 0.05 0  3.04 0.05 0  3.048260869565218 0.05 0  3.056521739130435 0.05 0  3.064782608695652 0.05 0  3.073043478260869 0.05 0  3.081304347826087 0.05 0  3.089565217391304 0.05 0  3.097826086956522 0.05 0  3.106086956521739 0.05 0  3.114347826086956 0.05 0  3.122608695652174 0.05 0  3.130869565217391 0.05 0  3.139130434782609 0.05 0  3.147391304347826 0.05 0  3.155652173913043 0.05 0  3.163913043478261 0.05 0  3.172173913043478 0.05 0  3.180434782608696 0.05 0  3.188695652173913 0.05 0  3.19695652173913 0.05 0  3.205217391304347 0.05 0  3.213478260869565 0.05 0  2.998695652173913 0.05833333333333333 0  3.006956521739131 0.05833333333333333 0  3.015217391304348 0.05833333333333333 0  3.023478260869565 0.05833333333333333 0  3.031739130434782 0.05833333333333333 0  3.04 0.05833333333333333 0  3.048260869565218 0.05833333333333333 0  3.056521739130435 0.05833333333333333 0  3.064782608695652 0.05833333333333333 0  3.073043478260869 0.05833333333333333 0  3.081304347826087 0.05833333333333333 0  3.089565217391304 0.05833333333333333 0  3.097826086956522 0.05833333333333333 0  3.106086956521739 0.05833333333333333 0  3.114347826086956 0.05833333333333333 0  3.122608695652174 0.05833333333333333 0  3.130869565217391 0.05833333333333333 0  3.139130434782609 0.05833333333333333 0  3.147391304347826 0.05833333333333333 0  3.155652173913043 0.05833333333333333 0  3.163913043478261 0.05833333333333333 0  3.172173913043478 0.05833333333333333 0  3.180434782608696 0.05833333333333333 0  3.188695652173913 0.05833333333333333 0  3.19695652173913 0.05833333333333333 0  3.205217391304347 0.05833333333333333 0  3.213478260869565 0.05833333333333333 0  3.221739130434782 0.05833333333333333 0  3.006956521739131 0.06666666666666667 0  3.015217391304348 0.06666666666666667 0  3.023478260869565 0.06666666666666667 0  3.031739130434782 0.06666666666666667 0  3.04 0.06666666666666667 0  3.048260869565218 0.06666666666666667 0  3.056521739130435 0.06666666666666667 0  3.064782608695652 0.06666666666666667 0  3.073043478260869 0.06666666666666667 0  3.081304347826087 0.06666666666666667 0  3.089565217391304 0.06666666666666667 0  3.097826086956522 0.06666666666666667 0  3.106086956521739 0.06666666666666667 0  3.114347826086956 0.06666666666666667 0  3.122608695652174 0.06666666666666667 0  3.130869565217391 0.06666666666666667 0  3.139130434782609 0.06666666666666667 0  3.147391304347826 0.06666666666666667 0  3.155652173913043 0.06666666666666667 0  3.163913043478261 0.06666666666666667 0  3.172173913043478 0.06666666666666667 0  3.180434782608696 0.06666666666666667 0  3.188695652173913 0.06666666666666667 0  3.19695652173913 0.06666666666666667 0  3.205217391304347 0.06666666666666667 0  3.213478260869565 0.06666666666666667 0  3.221739130434782 0.06666666666666667 0  3.23 0.06666666666666667 0  3.015217391304348 0.075 0  3.023478260869565 0.075 0  3.031739130434782 0.075 0  3.04 0.075 0  3.048260869565218 0.075 0  3.056521739130435 0.075 0  3.064782608695652 0.075 0  3.073043478260869 0.075 0  3.081304347826087 0.075 0  3.089565217391304 0.075 0  3.097826086956522 0.075 0  3.106086956521739 0.075 0  3.114347826086956 0.075 0  3.122608695652174 0.075 0  3.130869565217391 0.075 0  3.139130434782609 0.075 0  3.147391304347826 0.075 0  3.155652173913043 0.075 0  3.163913043478261 0.075 0  3.172173913043478 0.075 0  3.180434782608696 0.075 0  3.188695652173913 0.075 0  3.19695652173913 0.075 0  3.205217391304347 0.075 0  3.213478260869565 0.075 0  3.221739130434782 0.075 0  3.23 0.075 0  3.238260869565217 0.075 0  3.023478260869565 0.08333333333333333 0  3.031739130434782 0.08333333333333333 0  3.04 0.08333333333333333 0  3.048260869565218 0.08333333333333333 0  3.056521739130
[...]
<CellData  Scalars="sigma_m"> 
<DataArray  type="Float64"  Name="sigma_m"  format="ascii">3.9514209808072089e+06   3.7517845556492778e+06   3.9738912889968255e+06   3.7634075935661523e+06   3.9924065205438202e+06   3.7748553554882146e+06   4.0072003648331184e+06   3.7857445707713272e+06   4.0199008404116798e+06   3.7961574732156186e+06   4.0332277324496652e+06   3.8058659256036342e+06   4.0509148131387001e+06   3.8132782690021698e+06   4.0798408504011789e+06   3.8151440516501488e+06   4.1390256697714059e+06   3.8051298254307122e+06   4.2601561334111132e+06   3.7952774050576752e+06   4.4405337630992904e+06   3.8053894451689529e+06   4.6302472018384626e+06   3.8363452677915832e+06   4.7538066126333401e+06   3.8571575043405653e+06   4.7477104776582262e+06   3.8258764674511235e+06   4.5922321181181259e+06   3.7170572625647639e+06   4.3137897776428433e+06   3.5324475005139718e+06   3.9526991146511417e+06   3.2903038139829487e+06   3.5393715506931888e+06   3.0104554740168774e+06   3.0867404344549556e+06   2.7067578982711174e+06   2.5927123568317080e+06   2.3856156981485649e+06   2.0486595087009857e+06   2.0457874892302505e+06   1.4521144106613267e+06   1.6696613202584931e+06   8.3552299826025194e+05   1.1756660016380297e+06   4.3814987391341850e+05   5.5950916134135146e+05   2.3644650025557294e+04   1.8411581514898513e+05   6.1432585361674485e+00   1.2539166088902398e+02   5.4428736238642118e-02   3.7411934982845350e+06   3.7519266115105203e+06   3.5404259207641371e+06   3.7625287599853431e+06   3.5435635598481987e+06   3.7725390186784621e+06   3.5489172530593704e+06   3.7821946074773008e+06   3.5555343644292462e+06   3.7910181714797085e+06   3.5612261272965237e+06   3.7967849840469360e+06   3.5597910817540674e+06   3.7957087655287967e+06   3.5404205458022486e+06   3.7808597836533058e+06   3.4867814227767633e+06   3.7739154646639572e+06   3.3449951082395995e+06   3.7940174037748035e+06   3.1658414563704077e+06   3.8280908753925296e+06   3.0636236167060114e+06   3.8300103172453884e+06   3.0354239588154224e+06   3.7634230317381020e+06   3.0167343160934597e+06   3.6256092895704904e+06   2.9650807416282827e+06   3.4359966899882564e+06   2.8703676660917411e+06   3.2114165443506744e+06   2.7468151166814873e+06   2.9665757707067570e+06   2.6112348007419962e+06   2.7153118392992415e+06   2.4784476742580547e+06   2.4708509753830540e+06   2.3596219918668368e+06   2.2432029539368455e+06   2.2598351119322763e+06   2.0251879121788980e+06   2.1732935277779377e+06   1.7818101521076341e+06   2.0805118354793028e+06   1.8209887544999723e+06   2.0327781648540667e+06   2.9341354837634426e+05   2.9454493188141552e+06   1.8270591709135437e+02   2.0606992291239763e+04   9.1214492712026349e-02   1.1913327125550765e+01   7.4575411616922905e-03   3.5281598438680647e+06   3.5309585881639244e+06   3.3039704198634434e+06   3.5358912582833329e+06   3.3060261899491297e+06   3.5424238108653151e+06   3.3152862606824702e+06   3.5481713677851520e+06   3.3278045622937442e+06   3.5458386050284575e+06   3.3381709814615874e+06   3.5241356508886395e+06   3.3316881515915417e+06   3.4665789682647372e+06   3.2893432341876994e+06   3.3073908416377674e+06   3.2079875713626095e+06   3.1243292306575007e+06   2.5680626386528513e+06   3.0395289013447938e+06   2.1512911654058374e+06   3.0075827749326141e+06   2.1474232412275053e+06   2.9409990866948594e+06   2.2588977692567152e+06   2.8334924503724813e+06   2.3377550804634071e+06   2.7195606507687569e+06   2.3427596419794024e+06   2.6114756404363690e+06   2.3157396774458531e+06   2.5138734167668466e+06   2.2853534506577868e+06   2.4321486556932130e+06   2.2675247712183846e+06   2.3697149285257678e+06   2.2695243379896441e+06   2.3199887415462295e+06   2.2890960135697811e+06   2.2573974216216556e+06   2.3157315443553552e+06   2.1510070934672328e+06   2.3420118735344163e+06   2.1310358580872500e+06   2.4484495228347471e+06   3.0008333985566623e+06   3.1995695355576165e+06   5.5603518549004162e+05   3.7296602389783501e+06   5.2230947433162828e+02   3.0891851576697035e+05   2.8448774584132885e-01   1.5500907968040826e+02   9.6602074151877979e-02   2.9997463431475381e+06   2.9936358948353985e+06   2.0435256432123438e+06   2.9899641851472217e+06   1.9750579470892863e+06   2.9851935046520750e+06   1.8595676799013130e+06   2.9786786313823285e+06   1.7220783456189255e+06   2.9689224157027625e+06   1.6593726058349207e+06   2.9534743171247090e+06   1.7684900001782912e+06   2.9270928329175995e+06   1.9272379794412600e+06   2.4662735769547545e+06   1.9581706899684307e+06   2.0770389244134193e+06   1.2819137217494284e+06   2.0962346103640413e+06   9.7880805451711745e+05   2.1297608492814498e+06   1.4584865145632138e+06   2.0910870624590798e+06   1.8088852008509978e+06   2.0625225546878714e+06   1.9046180151852646e+06   2.0557122165794245e+06   1.9308399151991787e+06   2.0672810819913207e+06   1.9507804036751774e+06   2.0941840543539273e+06   1.9850386672213352e+06   2.1294727635313203e+06   2.0380381990871907e+06   2.1563341736707371e+06   2.0997621444950388e+06   2.1487403469031746e+06   2.1518890542805181e+06   2.0970622317509146e+06   2.1774960138455564e+06   2.0924435766843793e+06   2.2216140508865053e+06   2.4531815527838278e+06   2.4868691761394497e+06   3.0443378010731041e+06   2.9233553067892655e+06   2.8477434904993470e+06   3.1822149236748661e+06   1.3456279386551428e+05   2.6423419366318439e+06   7.7558441424577637e+01   1.4765567424960752e+05   6.2193546729304281e+01   4.2504715355767047e+01   2.8119678733952394e+01   5.2185553486283098e-01   2.3799144615100687e+01   4.9048823565533228e-01   2.7090360155924088e+01   6.2912219063028074e-01   4.6134788275090308e+01   1.1414131362263060e+00   1.5261979787656293e+02   3.5184036575056932e+00   1.2970720641325711e+03   2.4196347448561170e+01   3.3825958177538458e+04   4.7166991952388128e+02   5.2866993452577118e+05   3.3220359485401532e+04   1.2195263566122518e+06   4.4183239128864510e+05   1.3204294521056281e+06   7.8577082502201118e+05   1.3276768567347548e+06   1.4037499841275071e+06   1.4060075818030261e+06   1.5269946608041367e+06   1.4951224000386125e+06   1.5594315067155545e+06   1.5845379385170899e+06   1.5870534605003486e+06   1.6750815527419616e+06   1.6321648590564919e+06   1.7615697793542547e+06   1.7013108650471182e+06   1.8277371270590476e+06   1.7808386754981435e+06   1.8523126397169009e+06   1.8508416636487178e+06   1.8369503832432325e+06   1.8856015845507365e+06   1.8501656587801704e+06   1.9221758410669290e+06   2.0319916769782049e+06   2.0657877888056389e+06   2.3431601691529923e+06   2.3061643737335778e+06   2.5953426640616134e+06   2.4746157397659146e+06   2.6512631429069294e+06   2.4956081098010135e+06   2.1978239925500532e+06   2.4056172468478326e+06   1.8497275502066166e+05   1.9244741350967742e+06   1.8843941071287220e+05   1.7086946583670310e-06   3.9568184077898137e-06   1.2966515575150216e-07   1.3699307285329418e-05   4.5723900856036363e-07   8.1113790223099366e-05   2.6118810269005281e-06   9.9809934220939853e-04   2.8327433528140455e-05   3.1760692108020974e-02   7.3359014648031746e-04   3.2610694797614315e+00   6.0057445106429685e-02   1.5603818306290761e+03   2.1159735309315636e+01   1.0492396221866019e+06   4.9200879383748092e+04   1.6859046253398284e+06   2.7083426992368856e+06   8.4727676669874508e+05   1.4707343014947334e+06   8.4247320871070551e+05   1.2722039569282471e+06   9.7300873114700604e+05   1.2321963001942877e+06   1.0985793122976210e+06   1.2325543955459485e+06   1.2156923476156385e+06   1.2601781985547582e+06   1.3262522680206399e+06   1.3251429827949291e+06   1.4184010047577866e+06   1.4123711635424807e+06   1.4732359382248598e+06   1.5106287818424129e+06   1.4958024334270291e+06   1.5702035992557164e+06   1.5416691539852421e+06   1.6293501072005574e+06   1.6838125414254901e+06   1.7493283602873760e+06   1.8951755847133270e+06   1.9254465532870286e+06   2.0804401852407996e+06   2.0751516725422039e+06   2.1944046211116598e+06   2.1438518266526992e+06   2.1694790664463891e+06   2.0879623310404348e+06   2.0282345851588242e+06   1.9470305896129231e+06   1.5886938939666511e+06   1.7815973461488215e+06   1.4197264698549649e+06   0.0000000000000000e+00   0.0000000000000000e+00   0.0000000000000000e+00   7.4326657140643241e-09   0.0000000000000000e+00   3.1758632681852705e-07   1.2980838842994266e-08   3.6997269421182479e-05   1.6182178780958001e-06   1.4435347014203032e-02   7.7886675938054198e-04   2.4749038071532695e+01   1.5735193271103185e+00   1.3423683532119775e+05   1.5450564227358022e+04   1.9882296723957758e+06   4.3337490769666666e+06   8.7724518370520102e+05   2.0839921531293136e+06   5.5877467356239201e+05   1.2202453924377058e+06   5.9983201846958522e+05   1.0143181995394673e+06   6.9398017750374007e+05   9.6290174720719992e+05   7.8950578936375596e+05   9.5611701209062943e+05   8.8922941741122759e+05   1.0003316663924673e+06   9.8650842634062225e+05   1.0706606747266578e+06   1.0629370738684321e+06   1.1990527677080724e+06   1.1213749670626207e+06   1.2700103833370949e+06   1.2107531441827356e+06   1.3493045874553472e+06   1.3659415332971180e+06   1.4720166946887986e+06   1.5616155724749004e+06   1.6341635708412596e+06   1.7409673805686191e+06   1.7866655642590995e+06   1.8656541268810630e+06   1.8836624974415174e+06   1.8936959498671908e+06   1.8909220571707101e+06   1.8468273703193348e+06   1.8219603279036321e+06   1.7204782426468225e+06   1.6808347741511287e+06   1.5335913472899385e+06   1.4933542230788763e+06   1.2967055601915417e+06   0.0000000000000000e+00   0.0000000000000000e+00   0.0000000000000000e+00   3.6876207757180970e-09   0.0000000000000000e+00   1.9573924772804935e-06   2.3541692537867560e-07   3.7818386951819958e-03   5.9669751016284750e-04   2.6810536126347756e+01   5.8567982739795417e+00   3.4740556246986549e+05   2.1189512810076465e+05   1.9258499969375068e+06   2.2665715718563711e+06   9.1393350761044421e+05   1.8277147197884354e+06   5.5453561179979274e+05   1.1441360599621080e+06   4.9353307539342629e+05   8.9001580146903545e+05   5.0884670601770398e+05   8.3311749285848683e+05   5.2914569962104526e+05   8.2525410098569072e+05   5.5710372141634859e+05   8.8090031580899481e+05   5.9403903003884817e+05   9.0877223048091121e+05   6.4736845295961760e+05   1.0473221036311383e+06   7.1297508750307153e+05   1.0286099745062236e+06   8.4583815581709240e+05   1.0647653179116945e+06   1.0387866008406300e+06   1.1765599434817075e+06   1.2596717745161722e+06   1.3471638344831499e+06   1.4667977452183939e+06   1.5257514823310354e+06   1.6236811649269261e+06   1.6610593160415278e+06   1.7031493852251207e+06   1.7248502945056749e+06   1.7098979845025532e+06   1.7168818464029632e+06   1.6414727524216524e+06   1.6371571831622110e+06   1.5232735779467663e+06   1.5072464218977049e+06   1.3560034122401183e+06   1.3353348317061507e+06   1.1351667271259832e+06   0.0000000000000000e+00   1.3700642650222689e-09   0.0000000000000000e+00   4.0853756472940061e-06   1.0639767653852246e-06   5.0692228365585498e-02   1.3650689294981325e-02   1.3382474171056842e+03   9.4084487287590025e+02   1.7484884090885629e+06   2.3296816510367692e+06   1.6996413404244327e+06   2.1211635775196613e+06   9.5297907396340836e+05   1.6284016610833022e+06   6.2517731059834606e+05   1.1502716006978166e+06   5.7305440464334306e+05   9.0659370087240112e+05   5.8842304658899549e+05   8.5379409905314737e+05   5.9023908684885304e+05   8.9273750443934428e+05   5.8832280532095989e+05   1.0760280589418246e+06   5.1029187043117575e+05   1.1744483271873256e+06   4.3359589943380503e+05   1.4197755351957472e+06   3.1048724357005284e+05   1.0540818229764288e+06   4.0140501459079987e+05   7.5675658775778499e+05   6.4718568229710264e+05   7.7756778900612413e+05   9.2780703002696985e+05   9.9016291982761200e+05   1.1975559580401790e+06   1.2377082357988136e+06   1.4112934857777969e+06   1.4370635640464139e+06   1.5495410511670024e+06   1.5652423700201274e+06   1.6125606645587077e+06   1.6204617110752915e+06   1.5999268326261968e+06   1.5994377646651112e+06   1.5317856460691511e+06   1.5231277593552582e+06   1.4175287236425835e+06   1.4048402350025035e+06   1.2753878996019389e+06   1.2573726538695886e+06   1.0842446303226231e+06   1.7294992605048271e-08   2.5231314978905393e-04   9.9484711176930658e-05   1.4376708604812942e+01   7.5016937802363675e+00   5.4981321696360444e+05   8.7942335929557891e+05   2.0761897142343239e+06   1.9168161609443570e+06   1.4860395140567995e+06   1.8165045136806446e+06   9.7805740259277343e+05   1.4420429718282288e+06   7.3930949525691045e+05   1.1031040248472067e+06   7.1697139972778177e+05   9.1197953229725664e+05   7.9202291832568124e+05   8.6835508134018700e+05   9.0994471260167786e+05   9.5970223393777991e+05   1.1132426437380330e+06   1.3839865104386329e+06   1.2987881554171978e+06   1.4692023601598132e+06   1.0784727152700929e+06   2.4338162246799991e+06   7.4944635514169210e+05   1.4283625569081390e+06   3.7365477338688681e+05   8.9533247880423139e+05   1.6227202219245036e+05   2.7355562973316177e+05   5.1909170189874095e+05   5.2849757292394107e+05   9.0519903739805415e+05   9.2589516543339158e+05   1.2057827984280831e+06   1.2196813566118297e+06   1.4150705829704255e+06   1.4212071244817500e+06   1.5394845993141423e+06   1.5413421649675113e+06   1.5767092261959899e+06   1.5706393044680841e+06   1.5521325004738264e+06   1.5403651135594260e+06   1.4797817287498633e+06   1.4661060934152217e+06   1.3686202327241413e+06   1.3523533193356469e+06   1.2230528365464937e+06   1.2097990683740983e+06   1.0650323113252628e+06   3.5843683641983304e-01   3.9222094200400395e+04   6.6317245854503431e+04   2.1446737546674800e+06   2.2218333241453697e+06   1.8358842849975827e+06   2.1164325477633239e+06   1.3988373507004355e+06   1.7103667597136144e+06   1.0290011687765657e+06   1.3550098599451454e+06   8.5291752315676538e+05   1.0658911554069431e+06   8.4766695179762493e+05   8.8009492704111489e+05   9.6273835046258464e+05   8.0246094755023625e+05   1.1798595674597898e+06   9.4735484013286920e+05   1.4766202816053622e+06   1.3315140341666457e+06   1.9778329215537771e+05   2.2055211033099450e+05   4.0473247958524403e+03   2.5505826367303629e+02   6.1375279323173720e+02   1.7495301997933584e+01   2.4782102459337757e+03   2.2307389424555900e+01   8.2226484471181291e+04   4.3399419118281315e+02   2.3666875612190718e+05   5.4082234263355298e+04   7.1479098338461516e+05   5.5557986525638157e+05   1.0515157132710386e+06   1.0897957376367226e+06   1.3225035661888272e+06   1.3603495863248138e+06   1.5073324220725344e+06   1.5270342151981024e+06   1.5839721402873173e+06   1.5828825005036972e+06   1.5937399741648727e+06   1.5835040710958033e+06   1.5543926646680033e+06   1.5427510436896284e+06   1.4668551404277897e+06   1.4522679711681867e+06   1.3458917041925299e+06   1.3311814964222363e+06   1.2139314389413458e+06   1.1992389365125597e+06   1.0561227515167454e+06   1.6267286166604550e+06   1.9963481893057651e+06   1.9822820732849156e+06   1.6172830438044132e+06   1.7239851012761134e+06   1.2858252312118434e+06   1.4560211584738102e+06   1.0213282689143850e+06   1.1960677513934202e+06   8.7210616135940014e+05   9.6564984759513766e+05   8.3189582385961362e+05   7.8034455210789945e+05   8.6285275482207665e+05   6.7892792701321968e+05   9.5708583536778530e+05   6.5410149453191587e+05   1.5628917897352281e+04   3.1333879087233738e+04   2.9185293628295397e+00   8.4550054433981670e-01   5.1614804283727266e-03   9.4452577853081261e-04   3.8039780533532890e-04   2.5948761172996991e-05   6.2119939736139695e-04   1.1964843567923143e-05   1.7483056089529062e-02   7.0092065294028450e-05   4.2304329523943878e+00   4.0847438404445153e-03   5.2861121931681637e+03   2.0340002647504178e+00   7.9607977604737668e+05   6.4495187032608083e+03   1.3401853627930614e+06   9.6785955675762717e+05   1.5622399886445533e+06   1.6396854319402839e+06   1.6626441013652962e+06   1.6980795765861620e+06   1.6852645991487021e+06   1.6904610723927927e+06   1.6658133130684900e+06   1.6651884882160979e+06   1.5891203507260829e+06   1.5789507703056273e+06   1.4830616128090513e+06   1.4682768245216948e+06   1.3681363724686450e+06   1.3525452500150122e+06   1.2427876407539838e+06   1.2254262632835417e+06   1.0791680121699895e+06   1.7197826122877162e+06   1.4342169792001566e+06   1.4879410692306089e+06   1.1649136028201678e+06   1.2803532207536257e+06   9.3901754404890572e+05   1.0579361547156069e+06   7.7367314665802941e+05   8.4316525834705879e+05   6.5579377706875419e+05   6.3667585707669938e+05   5.2799345430440502e+05   4.8454382788528048e+05   7.6517101982244916e+04   5.0151802352654318e+04   5.0844079723257485e-01   6.6246719257167175e-01   2.7300565990862179e-05   1.3415593644478140e-05   4.2401581960385411e-08   1.0677361253752335e-08   1.7096521193325065e-09   2.4526439275012289e-10   1.0340980537130508e-09   0.0000000000000000e+00   8.0505320574650711e-09   0.0000000000000000e+00   5.0443826452250263e-07   1.7429103703455867e-09   2.3594057925348046e-04   2.2918577018870701e-07   1.0815171303923192e+00   1.9362064251263035e-04   9.8277603705932997e+03   1.0867950147420005e+00   1.6112978579991939e+06   2.5419042090020157e+04   1.9455258079838760e+06   1.6872404034708377e+06   1.8619050669452106e+06   1.8757843918676947e+06   1.8346849226409020e+06   1.8547719176941512e+06   1.7454947415445258e+06   1.7427188619591168e+06   1.6384977701289135e+06   1.6254379093015618e+06   1.5336290095085227e+06   1.5202326356201991e+06   1.4164960646297648e+06   1.4020670965559192e+06   1.2803197324506340e+06   1.2646047895457170e+06   1.1167586053876006e+06   1.2707340018896845e+06   1.0278126796332622e+06   1.1436139099799199e+06   8.0093531681805174e+05   9.2494637333457486e+05   5.9169440855757450e+05   7.0462936213804455e+05   3.7394722141202324e+05   4.6138961983046849e+05   1.7246924279516461e+05   1.7084781776168823e+05   5.8631161411370174e+00   1.6414868111946998e+01   1.6428556333151557e-05   1.4526765022146522e-05   8.6649336237919462e-10   3.6033440409368970e-10   0.0000000000000000e+00   0.0000000000000000e+00   0.0000000000000000e+00   0.0000000000000000e+00   0.0000000000000000e+00   0.0000000000000000e+00   0.0000000000000000e+00   0.0000000000000000e+00   0.0000000000000000e+00   0.0000000000000000e+00   0.0000000000000000e+00   0.0000000000000000e+00   7.9745288729363530e-08   0.0000000000000000e+00   3.0216451361762966e-04   8.5565468652604531e-08   1.0718629878319533e+01   6.2156029808125516e-04   2.4052579675122700e+05   3.0226923192567618e+01   1.8677515035613107e+06   5.0659969586301973e+05   2.0286800184468834e+06   2.0725401573432719e+06   1.9406465191661317e+06   1.9518906534808530e+06   1.8171286095106672e+06   1.8052566598678727e+06   1.7150484185817651e+06   1.7065967162096496e+06   1.5970979329582488e+06   1.5883132904938841e+06   1.4568523952949306e+06   1.4448836142472567e+06   1.3056684376877537e+06   1.2932398748872736e+06   1.1498708363693785e+06   8.9138047761910991e+05   6.6779626080165617e+05   7.9217495536641404e+05   4.7116124474909686e+05   5.5522597746050893e+05   2.4257683556247558e+05   2.8753710324730742e+05   1.0911810238465494e+03   3.1057407782741193e+03   2.9453129592272768e-04   6.1048532051812161e-04   7.4412561186675523e-10   6.6187416655759614e-10   0.0000000000000000e+00   0.0000000000000000e+00   0.0000000000000000e+00   0.0000000000000000e+00   0.0000000000000000e+00   0.0000000000000000e+00   0.0000000000000000e+00   0.0000000000000000e+00   0.0000000000000000e+00   0.0000000000000000e+00   0.0000000000000000e+00   0.0000000000000000e+00   0.0000000000000000e+00   0.0000000000000000e+00   0.0000000000000000e+00   0.0000000000000000e+00   0.0000000000000000e+00   0.0000000000000000e+00   6.7675365382583927e-07   0.0000000000000000e+00   3.0037502539372356e-02   1.5209381753120575e-06   2.6011494486531496e+03   8.9509226407548811e-02   2.0694234970810683e+06   2.0678642325146640e+04   2.3299326068282025e+06   2.0952633486405904e+06   2.04305751