<?xml version="1.0"?>
<VTKFile type="UnstructuredGrid"  version="0.1"  >
<UnstructuredGrid>
<Piece  NumberOfPoints="2420" NumberOfCells="4626">
<Points>
<DataArray  type="Float64"  NumberOfComponents="3"  format="ascii">1.255652173913044 0.225 0  1.263913043478261 0.225 0  1.263913043478261 0.2333333333333333 0  1.255652173913044 0.2333333333333333 0  1.272173913043478 0.225 0  1.272173913043478 0.2333333333333333 0  1.280434782608696 0.225 0  1.280434782608696 0.2333333333333333 0  1.288695652173913 0.225 0  1.288695652173913 0.2333333333333333 0  1.296956521739131 0.225 0  1.296956521739131 0.2333333333333333 0  1.305217391304348 0.225 0  1.305217391304348 0.2333333333333333 0  1.313478260869565 0.225 0  1.313478260869565 0.2333333333333333 0  1.321739130434783 0.225 0  1.321739130434783 0.2333333333333333 0  1.33 0.225 0  1.33 0.2333333333333333 0  1.338260869565217 0.225 0  1.338260869565217 0.2333333333333333 0  1.346521739130435 0.225 0  1.346521739130435 0.2333333333333333 0  1.354782608695652 0.225 0  1.354782608695652 0.2333333333333333 0  1.36304347826087 0.225 0  1.36304347826087 0.2333333333333333 0  1.371304347826087 0.225 0  1.371304347826087 0.2333333333333333 0  1.379565217391304 0.225 0  1.379565217391304 0.2333333333333333 0  1.387826086956522 0.225 0  1.387826086956522 0.2333333333333333 0  1.396086956521739 0.225 0  1.396086956521739 0.2333333333333333 0  1.404347826086957 0.225 0  1.404347826086957 0.2333333333333333 0  1.412608695652174 0.225 0  1.412608695652174 0.2333333333333333 0  1.420869565217391 0.225 0  1.420869565217391 0.2333333333333333 0  1.429130434782609 0.225 0  1.429130434782609 0.2333333333333333 0  1.437391304347826 0.225 0  1.437391304347826 0.2333333333333333 0  1.445652173913043 0.2333333333333333 0  1.263913043478261 0.2416666666666667 0  1.255652173913044 0.2416666666666667 0  1.272173913043478 0.2416666666666667 0  1.280434782608696 0.2416666666666667 0  1.288695652173913 0.2416666666666667 0  1.296956521739131 0.2416666666666667 0  1.305217391304348 0.2416666666666667 0  1.313478260869565 0.2416666666666667 0  1.321739130434783 0.2416666666666667 0  1.33 0.2416666666666667 0  1.338260869565217 0.2416666666666667 0  1.346521739130435 0.2416666666666667 0  1.354782608695652 0.2416666666666667 0  1.36304347826087 0.2416666666666667 0  1.371304347826087 0.2416666666666667 0  1.379565217391304 0.2416666666666667 0  1.387826086956522 0.2416666666666667 0  1.396086956521739 0.2416666666666667 0  1.404347826086957 0.2416666666666667 0  1.412608695652174 0.2416666666666667 0  1.420869565217391 0.2416666666666667 0  1.429130434782609 0.2416666666666667 0  1.437391304347826 0.2416666666666667 0  1.445652173913043 0.2416666666666667 0  1.453913043478261 0.2333333333333333 0  1.453913043478261 0.2416666666666667 0  1.462173913043478 0.2333333333333333 0  1.462173913043478 0.2416666666666667 0  1.470434782608696 0.2333333333333333 0  1.470434782608696 0.2416666666666667 0  1.478695652173913 0.2333333333333333 0  1.478695652173913 0.2416666666666667 0  1.486956521739131 0.2416666666666667 0  1.875217391304348 0.2333333333333333 0  1.883478260869565 0.2333333333333333 0  1.883478260869565 0.2416666666666667 0  1.875217391304348 0.2416666666666667 0  1.891739130434782 0.2416666666666667 0  1.263913043478261 0.25 0  1.272173913043478 0.25 0  1.280434782608696 0.25 0  1.288695652173913 0.25 0  1.296956521739131 0.25 0  1.305217391304348 0.25 0  1.313478260869565 0.25 0  1.321739130434783 0.25 0  1.33 0.25 0  1.338260869565217 0.25 0  1.346521739130435 0.25 0  1.354782608695652 0.25 0  1.36304347826087 0.25 0  1.371304347826087 0.25 0  1.379565217391304 0.25 0  1.387826086956522 0.25 0  1.396086956521739 0.25 0  1.404347826086957 0.25 0  1.412608695652174 0.25 0  1.420869565217391 0.25 0  1.429130434782609 0.25 0  1.437391304347826 0.25 0  1.445652173913043 0.25 0  1.453913043478261 0.25 0  1.462173913043478 0.25 0  1.470434782608696 0.25 0  1.478695652173913 0.25 0  1.486956521739131 0.25 0  1.495217391304348 0.2416666666666667 0  1.495217391304348 0.25 0  1.503478260869565 0.2416666666666667 0  1.503478260869565 0.25 0  1.511739130434782 0.2416666666666667 0  1.511739130434782 0.25 0  1.52 0.2416666666666667 0  1.52 0.25 0  1.528260869565217 0.2416666666666667 0  1.528260869565217 0.25 0  1.536521739130435 0.2416666666666667 0  1.536521739130435 0.25 0  1.544782608695652 0.2416666666666667 0  1.544782608695652 0.25 0  1.55304347826087 0.2416666666666667 0  1.55304347826087 0.25 0  1.561304347826087 0.2416666666666667 0  1.561304347826087 0.25 0  1.569565217391304 0.2416666666666667 0  1.569565217391304 0.25 0  1.577826086956522 0.2416666666666667 0  1.577826086956522 0.25 0  1.586086956521739 0.2416666666666667 0  1.586086956521739 0.25 0  1.594347826086957 0.2416666666666667 0  1.594347826086957 0.25 0  1.602608695652174 0.2416666666666667 0  1.602608695652174 0.25 0  1.610869565217391 0.2416666666666667 0  1.610869565217391 0.25 0  1.619130434782609 0.2416666666666667 0  1.619130434782609 0.25 0  1.627391304347826 0.2416666666666667 0  1.627391304347826 0.25 0  1.635652173913043 0.2416666666666667 0  1.635652173913043 0.25 0  1.643913043478261 0.2416666666666667 0  1.643913043478261 0.25 0  1.652173913043478 0.2416666666666667 0  1.652173913043478 0.25 0  1.660434782608696 0.2416666666666667 0  1.660434782608696 0.25 0  1.668695652173913 0.2416666666666667 0  1.668695652173913 0.25 0  1.67695652173913 0.2416666666666667 0  1.67695652173913 0.25 0  1.685217391304348 0.2416666666666667 0  1.685217391304348 0.25 0  1.693478260869565 0.2416666666666667 0  1.693478260869565 0.25 0  1.701739130434782 0.2416666666666667 0  1.701739130434782 0.25 0  1.71 0.2416666666666667 0  1.71 0.25 0  1.718260869565217 0.2416666666666667 0  1.718260869565217 0.25 0  1.726521739130435 0.2416666666666667 0  1.726521739130435 0.25 0  1.734782608695652 0.2416666666666667 0  1.734782608695652 0.25 0  1.743043478260869 0.2416666666666667 0  1.743043478260869 0.25 0  1.751304347826087 0.2416666666666667 0  1.751304347826087 0.25 0  1.759565217391304 0.2416666666666667 0  1.759565217391304 0.25 0  1.767826086956522 0.2416666666666667 0  1.767826086956522 0.25 0  1.776086956521739 0.2416666666666667 0  1.776086956521739 0.25 0  1.784347826086957 0.2416666666666667 0  1.784347826086957 0.25 0  1.792608695652174 0.2416666666666667 0  1.792608695652174 0.25 0  1.800869565217391 0.2416666666666667 0  1.800869565217391 0.25 0  1.809130434782608 0.2416666666666667 0  1.809130434782608 0.25 0  1.817391304347826 0.2416666666666667 0  1.817391304347826 0.25 0  1.825652173913043 0.2416666666666667 0  1.825652173913043 0.25 0  1.833913043478261 0.2416666666666667 0  1.833913043478261 0.25 0  1.842173913043478 0.2416666666666667 0  1.842173913043478 0.25 0  1.850434782608696 0.2416666666666667 0  1.850434782608696 0.25 0  1.858695652173913 0.2416666666666667 0  1.858695652173913 0.25 0  1.86695652173913 0.2416666666666667 0  1.86695652173913 0.25 0  1.875217391304348 0.25 0  1.883478260869565 0.25 0  1.891739130434782 0.25 0  1.9 0.25 0  1.272173913043478 0.2583333333333334 0  1.280434782608696 0.2583333333333334 0  1.288695652173913 0.2583333333333334 0  1.296956521739131 0.2583333333333334 0  1.305217391304348 0.2583333333333334 0  1.313478260869565 0.2583333333333334 0  1.321739130434783 0.2583333333333334 0  1.33 0.2583333333333334 0  1.338260869565217 0.2583333333333334 0  1.346521739130435 0.2583333333333334 0  1.354782608695652 0.2583333333333334 0  1.36304347826087 0.2583333333333334 0  1.371304347826087 0.2583333333333334 0  1.379565217391304 0.2583333333333334 0  1.387826086956522 0.2583333333333334 0  1.396086956521739 0.2583333333333334 0  1.404347826086957 0.2583333333333334 0  1.412608695652174 0.2583333333333334 0  1.420869565217391 0.2583333333333334 0  1.429130434782609 0.2583333333333334 0  1.437391304347826 0.2583333333333334 0  1.445652173913043 0.2583333333333334 0  1.453913043478261 0.2583333333333334 0  1.462173913043478 0.2583333333333334 0  1.470434782608696 0.2583333333333334 0  1.478695652173913 0.2583333333333334 0  1.486956521739131 0.2583333333333334 0  1.495217391304348 0.2583333333333334 0  1.503478260869565 0.2583333333333334 0  1.511739130434782 0.2583333333333334 0  1.52 0.2583333333333334 0  1.528260869565217 0.2583333333333334 0  1.536521739130435 0.2583333333333334 0  1.544782608695652 0.2583333333333334 0  1.55304347826087 0.2583333333333334 0  1.561304347826087 0.2583333333333334 0  1.569565217391304 0.2583333333333334 0  1.577826086956522 0.2583333333333334 0  1.586086956521739 0.2583333333333334 0  1.594347826086957 0.2583333333333334 0  1.602608695652174 0.2583333333333334 0  1.610869565217391 0.2583333333333334 0  1.619130434782609 0.2583333333333334 0  1.627391304347826 0.2583333333333334 0  1.635652173913043 0.2583333333333334 0  1.643913043478261 0.2583333333333334 0  1.652173913043478 0.2583333333333334 0  1.660434782608696 0.2583333333333334 0  1.668695652173913 0.2583333333333334 0  1.67695652173913 0.2583333333333334 0  1.685217391304348 0.2583333333333334 0  1.693478260869565 0.2583333333333334 0  1.701739130434782 0.2583333333333334 0  1.71 0.2583333333333334 0  1.718260869565217 0.2583333333333334 0  1.726521739130435 0.2583333333333334 0  1.734782608695652 0.2583333333333334 0  1.743043478260869 0.2583333333333334 0  1.751304347826087 0.2583333333333334 0  1.759565217391304 0.2583333333333334 0  1.767826086956522 0.2583333333333334 0  1.776086956521739 0.2583333333333334 0  1.784347826086957 0.2583333333333334 0  1.792608695652174 0.2583333333333334 0  1.800869565217391 0.2583333333333334 0  1.809130434782608 0.2583333333333334 0  1.817391304347826 0.2583333333333334 0  1.825652173913043 0.2583333333333334 0  1.833913043478261 0.2583333333333334 0  1.842173913043478 0.2583333333333334 0  1.850434782608696 0.2583333333333334 0  1.858695652173913 0.2583333333333334 0  1.86695652173913 0.2583333333333334 0  1.875217391304348 0.2583333333333334 0  1.883478260869565 0.25
[...]
<PointData  Vectors="Displacement"> 
<DataArray  type="Float64"  Name="Displacement"  NumberOfComponents="3" format="ascii">5.4449904875174918e-05 1.0208471373707134e-03 0.0000000000000000e+00  5.4901854268143686e-05 1.0269275633045282e-03 0.0000000000000000e+00  4.9452239367809896e-05 1.0258263539325320e-03 0.0000000000000000e+00  4.8996853571076806e-05 1.0197190423090231e-03 0.0000000000000000e+00  5.5336189262293426e-05 1.0330145015769092e-03 0.0000000000000000e+00  4.9887630770154640e-05 1.0319826217284160e-03 0.0000000000000000e+00  5.5752091664825738e-05 1.0390652835422772e-03 0.0000000000000000e+00  5.0310751221629246e-05 1.0380820653988533e-03 0.0000000000000000e+00  5.6148134638553397e-05 1.0450528750084629e-03 0.0000000000000000e+00  5.0747317248616436e-05 1.0441165454051278e-03 0.0000000000000000e+00  5.6514576623945608e-05 1.0509968057726229e-03 0.0000000000000000e+00  5.1085597923048302e-05 1.0501057627792575e-03 0.0000000000000000e+00  5.6729394036378977e-05 1.0573183303966105e-03 0.0000000000000000e+00  5.0724642390679073e-05 1.0568579965375146e-03 0.0000000000000000e+00  5.6804626888846640e-05 1.0635491136922054e-03 0.0000000000000000e+00  5.0546855002900274e-05 1.0635139654674400e-03 0.0000000000000000e+00  5.6589768201338929e-05 1.0701564256994326e-03 0.0000000000000000e+00  5.0393533846490807e-05 1.0700995677963997e-03 0.0000000000000000e+00  5.6453460549497495e-05 1.0766623807685301e-03 0.0000000000000000e+00  5.0254091982235051e-05 1.0766181846158928e-03 0.0000000000000000e+00  5.6314884729132617e-05 1.0831374076717471e-03 0.0000000000000000e+00  5.0121037657646556e-05 1.0831050893172797e-03 0.0000000000000000e+00  5.6176712415641100e-05 1.0895987462903880e-03 0.0000000000000000e+00  4.9996346701219587e-05 1.0895619382242478e-03 0.0000000000000000e+00  5.6050572419611135e-05 1.0959998369451491e-03 0.0000000000000000e+00  4.9884189014268584e-05 1.0959692907411803e-03 0.0000000000000000e+00  5.5933149469474417e-05 1.1023553103336105e-03 0.0000000000000000e+00  4.9780553979673252e-05 1.1023320421192104e-03 0.0000000000000000e+00  5.5824239496917503e-05 1.1086723074647472e-03 0.0000000000000000e+00  4.9685878090990581e-05 1.1086530292242038e-03 0.0000000000000000e+00  5.5725024641530108e-05 1.1149555672069925e-03 0.0000000000000000e+00  4.9600880165375655e-05 1.1149365890194037e-03 0.0000000000000000e+00  5.5636270930808564e-05 1.1212068576832565e-03 0.0000000000000000e+00  4.9524303826431349e-05 1.1211888364955937e-03 0.0000000000000000e+00  5.5556207874992144e-05 1.1274332823723258e-03 0.0000000000000000e+00  4.9446785568210533e-05 1.1274213406097203e-03 0.0000000000000000e+00  5.5488752791417603e-05 1.1336192231558553e-03 0.0000000000000000e+00  4.9393742326696741e-05 1.1336050755985498e-03 0.0000000000000000e+00  5.5430259377751234e-05 1.1397690812045072e-03 0.0000000000000000e+00  4.9329867990243437e-05 1.1397681380822715e-03 0.0000000000000000e+00  5.5351267931946356e-05 1.1459161594620968e-03 0.0000000000000000e+00  4.8386239853275656e-05 1.1489086652529013e-03 0.0000000000000000e+00  5.4622849211402567e-05 1.1543450436136992e-03 0.0000000000000000e+00  4.6718584843380507e-05 1.1577378326548997e-03 0.0000000000000000e+00  5.3217035571168992e-05 1.1623018977693653e-03 0.0000000000000000e+00  4.4931253937520473e-05 1.1664623002529313e-03 0.0000000000000000e+00  4.2917528029001263e-05 1.1757234795550628e-03 0.0000000000000000e+00  4.3921024533530035e-05 1.0247249390751638e-03 0.0000000000000000e+00  4.3477660123807603e-05 1.0186046151717607e-03 0.0000000000000000e+00  4.4303835226428485e-05 1.0309964807528706e-03 0.0000000000000000e+00  4.4647288507549910e-05 1.0371988927995361e-03 0.0000000000000000e+00  4.4844390310063058e-05 1.0433657649045187e-03 0.0000000000000000e+00  4.4634961038363459e-05 1.0501077675328717e-03 0.0000000000000000e+00  4.4484349563072922e-05 1.0567873454668450e-03 0.0000000000000000e+00  4.4301732813983521e-05 1.0634603671228432e-03 0.0000000000000000e+00  4.4150283549616698e-05 1.0700491945095079e-03 0.0000000000000000e+00  4.4015244648360026e-05 1.0765830750896349e-03 0.0000000000000000e+00  4.3890707637493085e-05 1.0830769345248834e-03 0.0000000000000000e+00  4.3778629492633766e-05 1.0895329696178173e-03 0.0000000000000000e+00  4.3679924133091652e-05 1.0959440922481650e-03 0.0000000000000000e+00  4.3591693968857101e-05 1.1023125593025334e-03 0.0000000000000000e+00  4.3514391904759537e-05 1.1086353067322483e-03 0.0000000000000000e+00  4.3448561135155832e-05 1.1149185982073549e-03 0.0000000000000000e+00  4.3386647367430550e-05 1.1211731356573578e-03 0.0000000000000000e+00  4.3327083476474526e-05 1.1274044052125337e-03 0.0000000000000000e+00  4.3246483282484424e-05 1.1336078719226580e-03 0.0000000000000000e+00  4.2110899115624349e-05 1.1430416500528273e-03 0.0000000000000000e+00  4.0272669396771835e-05 1.1523468704760461e-03 0.0000000000000000e+00  3.8457358660046623e-05 1.1615263248389649e-03 0.0000000000000000e+00  3.6535940310708720e-05 1.1705701123365781e-03 0.0000000000000000e+00  3.4515032395905888e-05 1.1798599340459264e-03 0.0000000000000000e+00  4.0915440864835615e-05 1.1851029185976701e-03 0.0000000000000000e+00  3.2484044856361839e-05 1.1892429782188172e-03 0.0000000000000000e+00  3.8884257972459613e-05 1.1944837976313788e-03 0.0000000000000000e+00  3.0434046792327436e-05 1.1986809615445475e-03 0.0000000000000000e+00  3.6774843958345962e-05 1.2039664209484015e-03 0.0000000000000000e+00  2.8342059487713987e-05 1.2082098801059421e-03 0.0000000000000000e+00  3.4618254853349442e-05 1.2135715827406497e-03 0.0000000000000000e+00  2.6215516845857815e-05 1.2178360093068688e-03 0.0000000000000000e+00  2.4067076732146399e-05 1.2275569761057135e-03 0.0000000000000000e+00  -3.5462582486494917e-05 1.6666982461049915e-03 0.0000000000000000e+00  -3.5394120756753122e-05 1.6764674300910804e-03 0.0000000000000000e+00  -4.4966142103330198e-05 1.6765298982938731e-03 0.0000000000000000e+00  -4.5046841691779868e-05 1.6667640647391416e-03 0.0000000000000000e+00  -4.4895344795472572e-05 1.6862563126134671e-03 0.0000000000000000e+00  3.8319162816655961e-05 1.0236229527970273e-03 0.0000000000000000e+00  3.8562007316049860e-05 1.0301357552715529e-03 0.0000000000000000e+00  3.8654392120987820e-05 1.0365001359624248e-03 0.0000000000000000e+00  3.8417476119833983e-05 1.0433370780484846e-03 0.0000000000000000e+00  3.8274390458615933e-05 1.0500569552947827e-03 0.0000000000000000e+00  3.8122962568044618e-05 1.0567497442399653e-03 0.0000000000000000e+00  3.7976223565961286e-05 1.0634158069378729e-03 0.0000000000000000e+00  3.7844782832867464e-05 1.0700119857169925e-03 0.0000000000000000e+00  3.7724482653680891e-05 1.0765550067774641e-03 0.0000000000000000e+00  3.7615225998476137e-05 1.0830535909309841e-03 0.0000000000000000e+00  3.7518729617086036e-05 1.0895099678596340e-03 0.0000000000000000e+00  3.7435269166158786e-05 1.0959234628695421e-03 0.0000000000000000e+00  3.7363317749754495e-05 1.1022967190215205e-03 0.0000000000000000e+00  3.7306218529027520e-05 1.1086200631235952e-03 0.0000000000000000e+00  3.7255707513010277e-05 1.1149034395528403e-03 0.0000000000000000e+00  3.7195402050597938e-05 1.1211682135161178e-03 0.0000000000000000e+00  3.6577774050461245e-05 1.1286499943199519e-03 0.0000000000000000e+00  3.5414845499590124e-05 1.1373332666208703e-03 0.0000000000000000e+00  3.3619082546133169e-05 1.1467004037336969e-03 0.0000000000000000e+00  3.1834676428570350e-05 1.1561379317482174e-03 0.0000000000000000e+00  2.9989797259736521e-05 1.1654071784486411e-03 0.0000000000000000e+00  2.8078557305717872e-05 1.1746286778285613e-03 0.0000000000000000e+00  2.6088500456134797e-05 1.1839630133581604e-03 0.0000000000000000e+00  2.4069451287369924e-05 1.1933720021506981e-03 0.0000000000000000e+00  2.2025417257505078e-05 1.2028472748197914e-03 0.0000000000000000e+00  1.9951799547392628e-05 1.2124049502777745e-03 0.0000000000000000e+00  1.7853294812071585e-05 1.2220471499858709e-03 0.0000000000000000e+00  1.5737284165867705e-05 1.2317731184844380e-03 0.0000000000000000e+00  2.1904977589365892e-05 1.2373758255464331e-03 0.0000000000000000e+00  1.3611237372132699e-05 1.2415845501485164e-03 0.0000000000000000e+00  1.9738015653530399e-05 1.2472956321539321e-03 0.0000000000000000e+00  1.1483715224706415e-05 1.2514816224031815e-03 0.0000000000000000e+00  1.7577644839594456e-05 1.2573100231861045e-03 0.0000000000000000e+00  9.3644029477827527e-06 1.2614589425695084e-03 0.0000000000000000e+00  1.5434951538201875e-05 1.2674090494784946e-03 0.0000000000000000e+00  7.2625206839661377e-06 1.2715080830732455e-03 0.0000000000000000e+00  1.3319884976614909e-05 1.2775801751184043e-03 0.0000000000000000e+00  5.1863589895110220e-06 1.2816184380739005e-03 0.0000000000000000e+00  1.1240640067161581e-05 1.2878089777223834e-03 0.0000000000000000e+00  3.1429089217766967e-06 1.2917778705655821e-03 0.0000000000000000e+00  9.2033456459425113e-06 1.2980800443404669e-03 0.0000000000000000e+00  1.1376185061447356e-06 1.3019733864441001e-03 0.0000000000000000e+00  7.2120837527831365e-06 1.3083779629184643e-03 0.0000000000000000e+00  -8.2565662261604174e-07 1.3121918374545869e-03 0.0000000000000000e+00  5.2691591826711074e-06 1.3186881468487631e-03 0.0000000000000000e+00  -2.7445169451981334e-06 1.3224205256018215e-03 0.0000000000000000e+00  3.3754845867630385e-06 1.3289972740521323e-03 0.0000000000000000e+00  -4.6177702107779119e-06 1.3326475929976017e-03 0.0000000000000000e+00  1.5309453520314503e-06 1.3392934724042128e-03 0.0000000000000000e+00  -6.4451599175993071e-06 1.3428622317301446e-03 0.0000000000000000e+00  -2.6528433852335335e-07 1.3495663255096429e-03 0.0000000000000000e+00  -8.2271123789698292e-06 1.3530547477844010e-03 0.0000000000000000e+00  -2.0144807636170950e-06 1.3598067655696065e-03 0.0000000000000000e+00  -9.9645208171176991e-06 1.3632165220393505e-03 0.0000000000000000e+00  -3.7181669359482401e-06 1.3700068998042914e-03 0.0000000000000000e+00  -1.1658572977648134e-05 1.3733399055562757e-03 0.0000000000000000e+00  -5.3779664451746617e-06 1.3801598030085053e-03 0.0000000000000000e+00  -1.3310623708001009e-05 1.3834180779912957e-03 0.0000000000000000e+00  -6.9955127458578573e-06 1.3902593010185638e-03 0.0000000000000000e+00  -1.4922111094480792e-05 1.3934448912423180e-03 0.0000000000000000e+00  -8.5724082507449336e-06 1.4002997645249974e-03 0.0000000000000000e+00  -1.6494512385562142e-05 1.4034147154692814e-03 0.0000000000000000e+00  -1.0110224874139385e-05 1.4102759279165460e-03 0.0000000000000000e+00  -1.8029334043053316e-05 1.4133223006442613e-03 0.0000000000000000e+00  -1.1610536532203722e-05 1.4201827434453410e-03 0.0000000000000000e+00  -1.9528129145737246e-05 1.4231626633842422e-03 0.0000000000000000e+00  -1.3074974388260951e-05 1.4300152773293019e-03 0.0000000000000000e+00  -2.0992535045509761e-05 1.4329310059520560e-03 0.0000000000000000e+00  -1.4505296694301234e-05 1.4397686518308704e-03 0.0000000000000000e+00  -2.2424324383913743e-05 1.4426226720713759e-03 0.0000000000000000e+00  -1.5903466200820875e-05 1.4494380359275627e-03 0.0000000000000000e+00  -2.3825462922102672e-05 1.4522331425830324e-03 0.0000000000000000e+00  -1.7271728702457765e-05 1.4590186866327711e-03 0.0000000000000000e+00  -2.5198167740381774e-05 1.4617580727736264e-03 0.0000000000000000e+00  -1.8612685969787755e-05 1.4685060427719696e-03 0.0000000000000000e+00  -2.6544958950928127e-05 1.4711933720288751e-03 0.0000000000000000e+00  -1.9929354876978666e-05 1.4778958722652350e-03 0.0000000000000000e+00  -2.7868697016426657e-05 1.4805353247005579e-03 0.0000000000000000e+00  -2.1225201934056469e-05 1.4871844716407539e-03 0.0000000000000000e+00  -2.9172596151650649e-05 1.4897807479345411e-03 0.0000000000000000e+00  -2.2504138887337788e-05 1.4963689111695971e-03 0.0000000000000000e+00  -3.0460202463141965e-05 1.4989271767057014e-03 0.0000000000000000e+00  -2.3770461259574170e-05 1.5054473086878902e-03 0.0000000000000000e+00  -3.1735324277083511e-05 1.5079730573030357e-03 0.0000000000000000e+00  -2.5028709365593235e-05 1.5144190971121381e-03 0.0000000000000000e+00  -3.3001903127990075e-05 1.5169179169107702e-03 0.0000000000000000e+00  -2.6283434259198004e-05 1.5232852215698470e-03 0.0000000000000000e+00  -3.4263820010206683e-05 1.5257624585591292e-03 0.0000000000000000e+00  -2.7538866924621828e-05 1.5320481610502474e-03 0.0000000000000000e+00  -3.5524647204728226e-05 1.5345085111449501e-03 0.0000000000000000e+00  -2.8798530236081609e-05 1.5407116300496927e-03 0.0000000000000000e+00  -3.6787386047476008e-05 1.5431587577060609e-03 0.0000000000000000e+00  -3.0064909218155347e-05 1.5492798340997305e-03 0.0000000000000000e+00  -3.8054273771443306e-05 1.5517162060759064e-03 0.0000000000000000e+00  -3.1339381623982658e-05 1.5577563443537445e-03 0.0000000000000000e+00  -3.9326774735929858e-05 1.5601834997628699e-03 0.0000000000000000e+00  -3.2622606482878797e-05 1.5661430635929923e-03 0.0000000000000000e+00  -4.0605837529406168e-05 1.5685623730246911e-03 0.0000000000000000e+00  -3.3915340959125926e-05 1.5744400597612780e-03 0.0000000000000000e+00  -4.1892351313868545e-05 1.5768536439780189e-03 0.0000000000000000e+00  -3.5219202432535350e-05 1.5826469194738311e-03 0.0000000000000000e+00  -4.3187523775980838e-05 1.5850578897560184e-03 0.0000000000000000e+00  -3.6536741805725160e-05 1.5907633401479253e-03 0.0000000000000000e+00  -4.4492903964129537e-05 1.5931758626910083e-03 0.0000000000000000e+00  -3.7871337188733963e-05 1.5987893688847881e-03 0.0000000000000000e+00  -4.5810242112861881e-05 1.6012088035949146e-03 0.0000000000000000e+00  -3.9227186476397836e-05 1.6067253316547252e-03 0.0000000000000000e+00  -4.7141289425488772e-05 1.6091587725668660e-03 0.0000000000000000e+00  -4.0609814174872795e-05 1.6145712521024246e-03 0.0000000000000000e+00  -4.8487639259611803e-05 1.6170293113669078e-03 0.0000000000000000e+00  -4.2028149560887138e-05 1.6223260469970930e-03 0.0000000000000000e+00  -4.9850675793378199e-05 1.6248278657588647e-03 0.0000000000000000e+00  -4.3501103031793610e-05 1.6299886118467015e-03 0.0000000000000000e+00  -5.1230915708315573e-05 1.6325755914660192e-03 0.0000000000000000e+00  -4.5072923251392524e-05 1.6375994369640110e-03 0.0000000000000000e+00  -5.2619344461239641e-05 1.6403515306797705e-03 0.0000000000000000e+00  -4.5240786099845890e-05 1.6471146958320540e-03 0.0000000000000000e+00  -5.3928967155317919e-05 1.6484676617038467e-03 0.0000000000000000e+00  -4.5137845793242991e-05 1.6569597988662162e-03 0.0000000000000000e+00  -5.4701154812332425e-05 1.6570262965821504e-03 0.0000000000000000e+00  -5.4595727555383346e-05 1.6668337887789462e-03 0.0000000000000000e+00  -5.4500944035719351e-05 1.6765974422467036e-03 0.0000000000000000e+00  -5.4417453254505323e-05 1.6863200763532300e-03 0.0000000000000000e+00  -5.4344453737510211e-05 1.6960007216649735e-03 0.0000000000000000e+00  3.2369017126025161e-05 1.0295821133554383e-03 0.0000000000000000e+00  3.2180408204233219e-05 1.0364683760340999e-03 0.0000000000000000e+00  3.2018444631381536e-05 1.0432786359001918e-03 0.0000000000000000e+00  3.1871894072299018e-05 1.0500134867605267e-03 0.0000000000000000e+00  3.1732464878707470e-05 1.0567154516606520e-03 0.0000000000000000e+00  3.1604076331515298e-05 1.0633771345155828e-03 0.0000000000000000e+00  3.1490232219561836e-05 1.0699804376995664e-03 0.0000000000000000e+00  3.1387073866700689e-05 1.0765312969999784e-03 0.0000000000000000e+00  3.1295247847572528e-05 1.0830338245657483e-03 0.0000000000000000e+00  3.1215703675956491e-05 1.0894912046112159e-03 0.0000000000000000e+00  3.1147608235329844e-05 1.0959078805617382e-03 0.0000000000000000e+00  3.1086261752471586e-05 1.1022867996165616e-03 0.0000000000000000e+00  3.1045935384281578e-05 1.1086086619793622e-03 0.0000000000000000e+00  3.0995784360429787e-05 1.1149054337375431e-03 0.0000000000000000e+00  3.0224324621609881e-05 1.1238575632799134e-03 0.0000000000000000e+00  2.8734848710630356e-05 1.1322538010833734e-03 0.0000000000000000e+00  2.7014079301994834e-05 1.1411947749764291e-03 0.0000000000000000e+00  2.5199789442103032e-05 1.1505704845576022e-03 0.0000000000000000e+00  2.3373976191651543e-05 1.1599677647047037e-03 0.0000000000000000e+00  2.1530714660228134e-05 1.1693108520977123e-03 0.0000000000000000e+00  1.9629536546472668e-05 1.1786354228940574e-03 0.0000000000000000e+00  1.7669115208417503e-05 1.1880228173055645e-03 0.0000000000000000e+00  1.5672360353105176e-05 1.1974681142765228e-03 0.0000000000000000e+00  1.3647142046368200e-05 1.2069757630172482e-03 0.0000000000000000e+00  1.1596580095296398e-05 1.2165555864589201e-03 0.0000000000000000e+00  9.5262729886533280e-06 1.2262095370699996e-03 0.0000000000000000e+00  7.4424377985861284e-06 1.2359373897704933e-03 0.0000000000000000e+00  5.3517472139891566e-06 1.2457393656207022e-03 0.0000000000000000e+00  3.2618542028372389e-06 1.2556141242159367e-03 0.0000000000000000e+00  1.1810102668802396e-06 1.2655568716949850e-03 0.0000000000000000e+00  -8.8290496896880766e-07 1.2755603900072314e-03 0.0000000000000000e+00  -2.9227841647516485e-06 1.2856156254927758e-03 0.0000000000000000e+00  -4.9325581083257690e-06 1.2957122322581048e-03 0.0000000000000000e+00  -6.9073669425325464e-06 1.3058391092017718e-03 0.0000000000000000e+00  -8.8436129598044954e-06 1.3159849248252174e-03 0.0000000000000000e+00  -1.0738890471122584e-05 1.3261385709737103e-03 0.0000000000000000e+00  -1.2591827660794726e-05 1.3362894882540924e-03 0.0000000000000000e+00  -1.4401892639238930e-05 1.3464278678186150e-03 0.0000000000000000e+00  -1.6169198581225727e-05 1.3565447429261484e-03 0.0000000000000000e+00  -1.7894328908327340e-05 1.3666319947819568e-03 0.0000000000000000e+00  -1.9578192676899671e-05 1.3766822986403661e-03 0.0000000000000000e+00  -2.1221913910983697e-05 1.3866890331105106e-03 0.0000000000000000e+00  -2.2826754959984764e-05 1.3966461714629000e-03 0.0000000000000000e+00  -2.4394071620209557e-05 1.4065481699124624e-03 0.0000000000000000e+00  -2.5925296126192479e-05 1.4163898646021562e-03 0.0000000000000000e+00  -2.7421943046741121e-05 1.4261663862429621e-03 0.0000000000000000e+00  -2.8885632545516883e-05 1.4358730990045221e-03 0.0000000000000000e+00  -3.0318125245964777e-05 1.4455055682685873e-03 0.0000000000000000e+00  -3.1721362862270752e-05 1.4550595601932558e-03 0.0000000000000000e+00  -3.3097508602380994e-05 1.4645310745279225e-03 0.0000000000000000e+00  -3.4448980958739551e-05 1.4739164104756758e-03 0.0000000000000000e+00  -3.5778473838202869e-05 1.4832122632031277e-03 0.0000000000000000e+00  -3.7088955179775052e-05 1.4924158453268358e-03 0.0000000000000000e+00  -3.8383635650450612e-05 1.5015250227963571e-03 0.0000000000000000e+00  -3.9665899435727897e-05 1.5105384475736546e-03 0.0000000000000000e+00  -4.0939191789244495e-05 1.5194556603369230e-03 0.0000000000000000e+00  -4.2206864695898748e-05 1.5282771263539334e-03 0.0000000000000000e+00  -4.3471994833216556e-05 1.5370041610661186e-03 0.0000000000000000e+00  -4.4737207772209216e-05 1.5456387093632019e-03 0.0000000000000000e+00  -4.6004564278175389e-05 1.5541829818672454e-03 0.0000000000000000e+00  -4.7275572101251346e-05 1.5626390357404794e-03 0.0000000000000000e+00  -4.8551352521212183e-05 1.5710084857042728e-03 0.0000000000000000e+00  -4.9832903483821130e-05 1.5792925389981306e-03 0.0000000000000000e+00  -5.1121308799579603e-05 1.5874923666627742e-03 0.0000000000000000e+00  -5.2417775880695226e-05 1.5956094293402741e-03 0.0000000000000000e+00  -5.3723590533910706e-05 1.6036458458743932e-03 0.0000000000000000e+00  -5.5040060620123458e-05 1.6116049701631846e-03 0.0000000000000000e+00  -5.6368515393717850e-05 1.6194926163806565e-03 0.0000000000000000e+00  -5.7710307458654275e-05 1.6273202254665883e-03 0.0000000000000000e+00  -5.9065985245964611e-05 1.6351134443629712e-03 0.0000000000000000e+00  -6.0429337778450013e-05 1.6429341929464359e-03 0.0000000000000000e+00  -6.1762970918971641e-05 1.6509093648181148e-03 0.0000000000000000e+00  -6.2983975310167240e-05 1.6589826223545425e-03 0.0000000000000000e+00  -6.4100781