<?xml version="1.0"?>
<VTKFile type="UnstructuredGrid"  version="0.1"  >
<UnstructuredGrid>
<Piece  NumberOfPoints="2429" NumberOfCells="4646">
<Points>
<DataArray  type="Float64"  NumberOfComponents="3"  format="ascii">0.2973913043478261 0.225 0  0.3056521739130434 0.225 0  0.3056521739130434 0.2333333333333333 0  0.3139130434782609 0.225 0  0.3139130434782609 0.2333333333333333 0  0.3221739130434783 0.225 0  0.3221739130434783 0.2333333333333333 0  0.3304347826086956 0.225 0  0.3304347826086956 0.2333333333333333 0  0.338695652173913 0.225 0  0.338695652173913 0.2333333333333333 0  0.3469565217391304 0.225 0  0.3469565217391304 0.2333333333333333 0  0.3552173913043478 0.225 0  0.3552173913043478 0.2333333333333333 0  0.3634782608695652 0.225 0  0.3634782608695652 0.2333333333333333 0  0.3717391304347826 0.225 0  0.3717391304347826 0.2333333333333333 0  0.3799999999999999 0.225 0  0.3799999999999999 0.2333333333333333 0  0.3882608695652174 0.225 0  0.3882608695652174 0.2333333333333333 0  0.3965217391304348 0.225 0  0.3965217391304348 0.2333333333333333 0  0.4047826086956521 0.225 0  0.4047826086956521 0.2333333333333333 0  0.4130434782608696 0.225 0  0.4130434782608696 0.2333333333333333 0  0.4213043478260869 0.225 0  0.4213043478260869 0.2333333333333333 0  0.4295652173913043 0.225 0  0.4295652173913043 0.2333333333333333 0  0.4378260869565217 0.225 0  0.4378260869565217 0.2333333333333333 0  0.4460869565217391 0.225 0  0.4460869565217391 0.2333333333333333 0  0.4543478260869565 0.225 0  0.4543478260869565 0.2333333333333333 0  0.4626086956521739 0.225 0  0.4626086956521739 0.2333333333333333 0  0.4708695652173913 0.225 0  0.4708695652173913 0.2333333333333333 0  0.4791304347826086 0.225 0  0.4791304347826086 0.2333333333333333 0  0.4873913043478261 0.225 0  0.4873913043478261 0.2333333333333333 0  0.4956521739130435 0.225 0  0.4956521739130435 0.2333333333333333 0  0.5039130434782608 0.225 0  0.5039130434782608 0.2333333333333333 0  0.5121739130434783 0.225 0  0.5121739130434783 0.2333333333333333 0  0.5204347826086956 0.225 0  0.5204347826086956 0.2333333333333333 0  0.528695652173913 0.225 0  0.528695652173913 0.2333333333333333 0  0.5369565217391304 0.225 0  0.5369565217391304 0.2333333333333333 0  0.5452173913043478 0.225 0  0.5452173913043478 0.2333333333333333 0  0.5534782608695652 0.225 0  0.5534782608695652 0.2333333333333333 0  0.5617391304347825 0.225 0  0.5617391304347825 0.2333333333333333 0  0.57 0.225 0  0.57 0.2333333333333333 0  0.5782608695652174 0.225 0  0.5782608695652174 0.2333333333333333 0  0.5865217391304348 0.225 0  0.5865217391304348 0.2333333333333333 0  0.5947826086956521 0.225 0  0.5947826086956521 0.2333333333333333 0  0.6030434782608696 0.225 0  0.6030434782608696 0.2333333333333333 0  0.6113043478260869 0.225 0  0.6113043478260869 0.2333333333333333 0  0.6195652173913043 0.225 0  0.6195652173913043 0.2333333333333333 0  0.6278260869565218 0.225 0  0.6278260869565218 0.2333333333333333 0  0.6360869565217391 0.225 0  0.6360869565217391 0.2333333333333333 0  0.6443478260869565 0.225 0  0.6443478260869565 0.2333333333333333 0  0.6526086956521739 0.225 0  0.6526086956521739 0.2333333333333333 0  0.6608695652173913 0.225 0  0.6608695652173913 0.2333333333333333 0  0.6691304347826087 0.225 0  0.6691304347826087 0.2333333333333333 0  0.677391304347826 0.225 0  0.677391304347826 0.2333333333333333 0  0.6856521739130435 0.225 0  0.6856521739130435 0.2333333333333333 0  0.6939130434782609 0.225 0  0.6939130434782609 0.2333333333333333 0  0.7021739130434783 0.225 0  0.7021739130434783 0.2333333333333333 0  0.7104347826086956 0.225 0  0.7104347826086956 0.2333333333333333 0  0.718695652173913 0.225 0  0.718695652173913 0.2333333333333333 0  0.7269565217391304 0.225 0  0.7269565217391304 0.2333333333333333 0  0.7352173913043478 0.225 0  0.7352173913043478 0.2333333333333333 0  0.7434782608695653 0.225 0  0.7434782608695653 0.2333333333333333 0  0.7517391304347827 0.225 0  0.7517391304347827 0.2333333333333333 0  0.7599999999999999 0.225 0  0.7599999999999999 0.2333333333333333 0  0.7682608695652173 0.225 0  0.7682608695652173 0.2333333333333333 0  0.7765217391304348 0.2333333333333333 0  0.3139130434782609 0.2416666666666667 0  0.3221739130434783 0.2416666666666667 0  0.3304347826086956 0.2416666666666667 0  0.338695652173913 0.2416666666666667 0  0.3469565217391304 0.2416666666666667 0  0.3552173913043478 0.2416666666666667 0  0.3634782608695652 0.2416666666666667 0  0.3717391304347826 0.2416666666666667 0  0.3799999999999999 0.2416666666666667 0  0.3882608695652174 0.2416666666666667 0  0.3965217391304348 0.2416666666666667 0  0.4047826086956521 0.2416666666666667 0  0.4130434782608696 0.2416666666666667 0  0.4213043478260869 0.2416666666666667 0  0.4295652173913043 0.2416666666666667 0  0.4378260869565217 0.2416666666666667 0  0.4460869565217391 0.2416666666666667 0  0.4543478260869565 0.2416666666666667 0  0.4626086956521739 0.2416666666666667 0  0.4708695652173913 0.2416666666666667 0  0.4791304347826086 0.2416666666666667 0  0.4873913043478261 0.2416666666666667 0  0.4956521739130435 0.2416666666666667 0  0.5039130434782608 0.2416666666666667 0  0.5121739130434783 0.2416666666666667 0  0.5204347826086956 0.2416666666666667 0  0.528695652173913 0.2416666666666667 0  0.5369565217391304 0.2416666666666667 0  0.5452173913043478 0.2416666666666667 0  0.5534782608695652 0.2416666666666667 0  0.5617391304347825 0.2416666666666667 0  0.57 0.2416666666666667 0  0.5782608695652174 0.2416666666666667 0  0.5865217391304348 0.2416666666666667 0  0.5947826086956521 0.2416666666666667 0  0.6030434782608696 0.2416666666666667 0  0.6113043478260869 0.2416666666666667 0  0.6195652173913043 0.2416666666666667 0  0.6278260869565218 0.2416666666666667 0  0.6360869565217391 0.2416666666666667 0  0.6443478260869565 0.2416666666666667 0  0.6526086956521739 0.2416666666666667 0  0.6608695652173913 0.2416666666666667 0  0.6691304347826087 0.2416666666666667 0  0.677391304347826 0.2416666666666667 0  0.6856521739130435 0.2416666666666667 0  0.6939130434782609 0.2416666666666667 0  0.7021739130434783 0.2416666666666667 0  0.7104347826086956 0.2416666666666667 0  0.718695652173913 0.2416666666666667 0  0.7269565217391304 0.2416666666666667 0  0.7352173913043478 0.2416666666666667 0  0.7434782608695653 0.2416666666666667 0  0.7517391304347827 0.2416666666666667 0  0.7599999999999999 0.2416666666666667 0  0.7682608695652173 0.2416666666666667 0  0.7765217391304348 0.2416666666666667 0  0.7847826086956522 0.2333333333333333 0  0.7847826086956522 0.2416666666666667 0  0.7930434782608695 0.2416666666666667 0  0.3221739130434783 0.25 0  0.3304347826086956 0.25 0  0.338695652173913 0.25 0  0.3469565217391304 0.25 0  0.3552173913043478 0.25 0  0.3634782608695652 0.25 0  0.3717391304347826 0.25 0  0.3799999999999999 0.25 0  0.3882608695652174 0.25 0  0.3965217391304348 0.25 0  0.4047826086956521 0.25 0  0.4130434782608696 0.25 0  0.4213043478260869 0.25 0  0.4295652173913043 0.25 0  0.4378260869565217 0.25 0  0.4460869565217391 0.25 0  0.4543478260869565 0.25 0  0.4626086956521739 0.25 0  0.4708695652173913 0.25 0  0.4791304347826086 0.25 0  0.4873913043478261 0.25 0  0.4956521739130435 0.25 0  0.5039130434782608 0.25 0  0.5121739130434783 0.25 0  0.5204347826086956 0.25 0  0.528695652173913 0.25 0  0.5369565217391304 0.25 0  0.5452173913043478 0.25 0  0.5534782608695652 0.25 0  0.5617391304347825 0.25 0  0.57 0.25 0  0.5782608695652174 0.25 0  0.5865217391304348 0.25 0  0.5947826086956521 0.25 0  0.6030434782608696 0.25 0  0.6113043478260869 0.25 0  0.6195652173913043 0.25 0  0.6278260869565218 0.25 0  0.6360869565217391 0.25 0  0.6443478260869565 0.25 0  0.6526086956521739 0.25 0  0.6608695652173913 0.25 0  0.6691304347826087 0.25 0  0.677391304347826 0.25 0  0.6856521739130435 0.25 0  0.6939130434782609 0.25 0  0.7021739130434783 0.25 0  0.7104347826086956 0.25 0  0.718695652173913 0.25 0  0.7269565217391304 0.25 0  0.7352173913043478 0.25 0  0.7434782608695653 0.25 0  0.7517391304347827 0.25 0  0.7599999999999999 0.25 0  0.7682608695652173 0.25 0  0.7765217391304348 0.25 0  0.7847826086956522 0.25 0  0.7930434782608695 0.25 0  0.8013043478260868 0.2416666666666667 0  0.8013043478260868 0.25 0  0.8095652173913043 0.2416666666666667 0  0.8095652173913043 0.25 0  0.8178260869565217 0.2416666666666667 0  0.8178260869565217 0.25 0  0.8260869565217391 0.2416666666666667 0  0.8260869565217391 0.25 0  0.8343478260869565 0.2416666666666667 0  0.8343478260869565 0.25 0  0.8426086956521739 0.2416666666666667 0  0.8426086956521739 0.25 0  0.8508695652173912 0.2416666666666667 0  0.8508695652173912 0.25 0  0.8591304347826086 0.2416666666666667 0  0.8591304347826086 0.25 0  0.8673913043478261 0.2416666666666667 0  0.8673913043478261 0.25 0  0.8756521739130434 0.2416666666666667 0  0.8756521739130434 0.25 0  0.8839130434782608 0.2416666666666667 0  0.8839130434782608 0.25 0  0.8921739130434783 0.2416666666666667 0  0.8921739130434783 0.25 0  0.9004347826086956 0.2416666666666667 0  0.9004347826086956 0.25 0  0.908695652173913 0.2416666666666667 0  0.908695652173913 0.25 0  0.9169565217391303 0.25 0  0.3304347826086956 0.2583333333333334 0  0.338695652173913 0.2583333333333334 0  0.3469565217391304 0.2583333333333334 0  0.3552173913043478 0.2583333333333334 0  0.3634782608695652 0.2583333333333334 0  0.3717391304347826 0.2583333333333334 0  0.3799999999999999 0.2583333333333334 0  0.3882608695652174 0.2583333333333334 0  0.3965217391304348 0.2583333333333334 0  0.4047826086956521 0.2583333333333334 0  0.4130434782608696 0.2583333333333334 0  0.4213043478260869 0.2583333333333334 0  0.4295652173913043 0.2583333333333334 0  0.4378260869565217 0.2583333333333334 0  0.4460869565217391 0.2583333333333334 0  0.4543478260869565 0.2583333333333334 0  0.4626086956521739 0.2583333333333334 0  0.4708695652173913 0.2583333333333334 0  0.4791304347826086 0.2583333333333334 0  0.4873913043478261 0.2583333333333334 0  0.4956521739130435 0.2583333
[...]
<CellData  Scalars="rho_bar"> 
<DataArray  type="Float64"  Name="rho_bar"  format="ascii">0.0000000000000000e+00   0.0000000000000000e+00   0.0000000000000000e+00   0.0000000000000000e+00   0.0000000000000000e+00   0.0000000000000000e+00   0.0000000000000000e+00   0.0000000000000000e+00   0.0000000000000000e+00   0.0000000000000000e+00   0.0000000000000000e+00   0.0000000000000000e+00   0.0000000000000000e+00   0.0000000000000000e+00   0.0000000000000000e+00   0.0000000000000000e+00   0.0000000000000000e+00   0.0000000000000000e+00   0.0000000000000000e+00   0.0000000000000000e+00   0.0000000000000000e+00   0.0000000000000000e+00   0.0000000000000000e+00   0.0000000000000000e+00   0.0000000000000000e+00   0.0000000000000000e+00   0.0000000000000000e+00   0.0000000000000000e+00   0.0000000000000000e+00   0.0000000000000000e+00   0.0000000000000000e+00   0.0000000000000000e+00   0.0000000000000000e+00   0.0000000000000000e+00   0.0000000000000000e+00   0.0000000000000000e+00   0.0000000000000000e+00   0.0000000000000000e+00   0.0000000000000000e+00   0.0000000000000000e+00   0.0000000000000000e+00   0.0000000000000000e+00   0.0000000000000000e+00   0.0000000000000000e+00   0.0000000000000000e+00   0.0000000000000000e+00   0.0000000000000000e+00   0.0000000000000000e+00   0.0000000000000000e+00   0.0000000000000000e+00   0.0000000000000000e+00   1.1085576900882188e-13   0.0000000000000000e+00   1.0990887089334933e-09   2.3111142629280345e-13   2.1644215897620445e-06   2.0403445599725956e-09   8.9916724988239871e-04   3.7143063715365053e-06   7.1964735579400599e-02   1.4263345998275778e-03   5.5677319476599696e-01   1.0125962715421627e-01   9.1245312623970409e-01   6.2006795965692207e-01   9.5799578413963915e-01   9.2211786203778723e-01   9.0508814897594070e-01   9.5720041279049706e-01   5.3837819538573384e-01   8.8959719660542480e-01   5.9548662089066992e-02   4.5943254170142056e-01   5.7477446591592629e-04   3.9388997340783008e-02   1.0496876219438325e-06   3.3577942606131489e-04   3.6467894444965521e-10   5.5109848164554721e-07   2.3490468829360602e-14   1.6874940333977406e-10   0.0000000000000000e+00   9.4091401336982001e-15   0.0000000000000000e+00   0.0000000000000000e+00   0.0000000000000000e+00   0.0000000000000000e+00   0.0000000000000000e+00   0.0000000000000000e+00   0.0000000000000000e+00   0.0000000000000000e+00   0.0000000000000000e+00   0.0000000000000000e+00   0.0000000000000000e+00   0.0000000000000000e+00   0.0000000000000000e+00   0.0000000000000000e+00   0.0000000000000000e+00   0.0000000000000000e+00   0.0000000000000000e+00   0.0000000000000000e+00   0.0000000000000000e+00   0.0000000000000000e+00   0.0000000000000000e+00   0.0000000000000000e+00   0.0000000000000000e+00   0.0000000000000000e+00   0.0000000000000000e+00   0.0000000000000000e+00   0.0000000000000000e+00   0.0000000000000000e+00   0.0000000000000000e+00   0.0000000000000000e+00   0.0000000000000000e+00   0.0000000000000000e+00   0.0000000000000000e+00   0.0000000000000000e+00   0.0000000000000000e+00   0.0000000000000000e+00   0.0000000000000000e+00   0.0000000000000000e+00   0.0000000000000000e+00   0.0000000000000000e+00   0.0000000000000000e+00   0.0000000000000000e+00   0.0000000000000000e+00   0.0000000000000000e+00   0.0000000000000000e+00   0.0000000000000000e+00   0.0000000000000000e+00   0.0000000000000000e+00   0.0000000000000000e+00   0.0000000000000000e+00   0.0000000000000000e+00   0.0000000000000000e+00   0.0000000000000000e+00   0.0000000000000000e+00   0.0000000000000000e+00   0.0000000000000000e+00   0.0000000000000000e+00   0.0000000000000000e+00   0.0000000000000000e+00   0.0000000000000000e+00   0.0000000000000000e+00   0.0000000000000000e+00   0.0000000000000000e+00   0.0000000000000000e+00   0.0000000000000000e+00   0.0000000000000000e+00   0.0000000000000000e+00   0.0000000000000000e+00   0.0000000000000000e+00   0.0000000000000000e+00   0.0000000000000000e+00   0.0000000000000000e+00   0.0000000000000000e+00   0.0000000000000000e+00   0.0000000000000000e+00   0.0000000000000000e+00   0.0000000000000000e+00   0.0000000000000000e+00   0.0000000000000000e+00   0.0000000000000000e+00   0.0000000000000000e+00   0.0000000000000000e+00   9.2518585385429716e-17   0.0000000000000000e+00   2.3494724684288335e-12   1.8503717077085943e-16   1.4727380222752849e-08   4.7777522678889755e-12   1.7938992071993749e-05   2.7123680884644227e-08   4.6018641947485331e-03   3.0377196676312224e-05   1.8148614656411471e-01   7.1252764174138655e-03   7.2994160555815890e-01   2.3821909424017301e-01   9.4045991958785424e-01   7.6991235949428538e-01   9.5164238376136356e-01   9.4458021639843459e-01   8.2802620466654031e-01   9.4787435820570365e-01   3.2541581259385344e-01   7.9333732552805347e-01   1.3807496347723658e-02   2.4862841477042608e-01   6.9170031024560569e-05   8.5313377558234402e-03   6.8483577568094020e-08   3.8341299540519312e-05   1.2269463223191225e-11   3.4028710007201931e-08   4.3483735131151963e-16   5.3795023990943491e-12   0.0000000000000000e+00   1.8503717077085941e-16   0.0000000000000000e+00   0.0000000000000000e+00   0.0000000000000000e+00   0.0000000000000000e+00   0.0000000000000000e+00   0.0000000000000000e+00   0.0000000000000000e+00   0.0000000000000000e+00   0.0000000000000000e+00   0.0000000000000000e+00   0.0000000000000000e+00   0.0000000000000000e+00   0.0000000000000000e+00   0.0000000000000000e+00   0.0000000000000000e+00   0.0000000000000000e+00   0.0000000000000000e+00   0.0000000000000000e+00   0.0000000000000000e+00   0.0000000000000000e+00   0.0000000000000000e+00   0.0000000000000000e+00   0.0000000000000000e+00   0.0000000000000000e+00   0.0000000000000000e+00   0.0000000000000000e+00   0.0000000000000000e+00   0.0000000000000000e+00   0.0000000000000000e+00   0.0000000000000000e+00   0.0000000000000000e+00   0.0000000000000000e+00   0.0000000000000000e+00   0.0000000000000000e+00   0.0000000000000000e+00   0.0000000000000000e+00   0.0000000000000000e+00   0.0000000000000000e+00   0.0000000000000000e+00   0.0000000000000000e+00   0.0000000000000000e+00   0.0000000000000000e+00   0.0000000000000000e+00   0.0000000000000000e+00   0.0000000000000000e+00   0.0000000000000000e+00   0.0000000000000000e+00   0.0000000000000000e+00   0.0000000000000000e+00   0.0000000000000000e+00   0.0000000000000000e+00   0.0000000000000000e+00   0.0000000000000000e+00   0.0000000000000000e+00   0.0000000000000000e+00   0.0000000000000000e+00   0.0000000000000000e+00   0.0000000000000000e+00   0.0000000000000000e+00   0.0000000000000000e+00   0.0000000000000000e+00   0.0000000000000000e+00   0.0000000000000000e+00   0.0000000000000000e+00   0.0000000000000000e+00   0.0000000000000000e+00   0.0000000000000000e+00   0.0000000000000000e+00   0.0000000000000000e+00   0.0000000000000000e+00   0.0000000000000000e+00   0.0000000000000000e+00   0.0000000000000000e+00   0.0000000000000000e+00   0.0000000000000000e+00   0.0000000000000000e+00   0.0000000000000000e+00   0.0000000000000000e+00   0.0000000000000000e+00   0.0000000000000000e+00   0.0000000000000000e+00   0.0000000000000000e+00   0.0000000000000000e+00   0.0000000000000000e+00   2.5720166737149457e-15   0.0000000000000000e+00   4.7687058006099882e-11   5.6713892841268408e-15   1.8054006869124470e-07   9.6201176654394275e-11   1.3076714535392719e-04   3.2512456032973708e-07   1.9674292292548336e-02   2.1502747928635788e-04   3.4802128621120865e-01   2.9434562565387026e-02   8.4523862668499472e-01   4.2242270023602319e-01   9.5178618346870980e-01   8.6634184615117360e-01   9.3160096002392867e-01   9.5277123327285951e-01   6.8143439578753651e-01   9.2231500671612554e-01   1.4025111580992697e-01   6.1675501938627275e-01   2.3818181021221978e-03   9.7009480539036144e-02   6.6337669266854551e-06   1.4175359477030991e-03   3.7210721171021524e-09   3.6219834020911885e-06   4.2098731907932085e-13   1.8911985126083648e-09   9.2518585385429707e-18   1.9342860646531790e-13   0.0000000000000000e+00   0.0000000000000000e+00   0.0000000000000000e+00   0.0000000000000000e+00   0.0000000000000000e+00   0.0000000000000000e+00   0.0000000000000000e+00   0.0000000000000000e+00   0.0000000000000000e+00   0.0000000000000000e+00   0.0000000000000000e+00   0.0000000000000000e+00   0.0000000000000000e+00   0.0000000000000000e+00   0.0000000000000000e+00   0.0000000000000000e+00   0.0000000000000000e+00   0.0000000000000000e+00   0.0000000000000000e+00   0.0000000000000000e+00   0.0000000000000000e+00   0.0000000000000000e+00   0.0000000000000000e+00   0.0000000000000000e+00   0.0000000000000000e+00   0.0000000000000000e+00   0.0000000000000000e+00   0.0000000000000000e+00   0.0000000000000000e+00   0.0000000000000000e+00   0.0000000000000000e+00   0.0000000000000000e+00   0.0000000000000000e+00   0.0000000000000000e+00   0.0000000000000000e+00   0.0000000000000000e+00   0.0000000000000000e+00   0.0000000000000000e+00   0.0000000000000000e+00   0.0000000000000000e+00   0.0000000000000000e+00   0.0000000000000000e+00   0.0000000000000000e+00   0.0000000000000000e+00   0.0000000000000000e+00   0.0000000000000000e+00   0.0000000000000000e+00   0.0000000000000000e+00   0.0000000000000000e+00   0.0000000000000000e+00   0.0000000000000000e+00   0.0000000000000000e+00   0.0000000000000000e+00   0.0000000000000000e+00   0.0000000000000000e+00   0.0000000000000000e+00   0.0000000000000000e+00   0.0000000000000000e+00   0.0000000000000000e+00   0.0000000000000000e+00   0.0000000000000000e+00   0.0000000000000000e+00   0.0000000000000000e+00   0.0000000000000000e+00   0.0000000000000000e+00   0.0000000000000000e+00   0.0000000000000000e+00   0.0000000000000000e+00   0.0000000000000000e+00   0.0000000000000000e+00   0.0000000000000000e+00   0.0000000000000000e+00   0.0000000000000000e+00   0.0000000000000000e+00   0.0000000000000000e+00   0.0000000000000000e+00   0.0000000000000000e+00   0.0000000000000000e+00   0.0000000000000000e+00   0.0000000000000000e+00   0.0000000000000000e+00   0.0000000000000000e+00   0.0000000000000000e+00   0.0000000000000000e+00   0.0000000000000000e+00   0.0000000000000000e+00   0.0000000000000000e+00   0.0000000000000000e+00   0.0000000000000000e+00   0.0000000000000000e+00   0.0000000000000000e+00   0.0000000000000000e+00   0.0000000000000000e+00   0.0000000000000000e+00   0.0000000000000000e+00   0.0000000000000000e+00   0.0000000000000000e+00   0.0000000000000000e+00   0.0000000000000000e+00   0.0000000000000000e+00   0.0000000000000000e+00   0.0000000000000000e+00   0.0000000000000000e+00   0.0000000000000000e+00   0.0000000000000000e+00   0.0000000000000000e+00   0.0000000000000000e+00   0.0000000000000000e+00   0.0000000000000000e+00   0.0000000000000000e+00   0.0000000000000000e+00   0.0000000000000000e+00   0.0000000000000000e+00   0.0000000000000000e+00   7.8353989962920423e-14   0.0000000000000000e+00   8.5625099603229669e-10   1.6757891370862882e-13   1.8518370525725610e-06   1.6404118341473149e-09   8.1965442557365320e-04   3.2786907669853549e-06   6.8381652508327631e-02   1.3348735505780509e-03   5.4694351068765901e-01   9.7961098134080743e-02   9.0682634469144585e-01   6.1234248378307898e-01   9.5231811717283232e-01   9.1663422966248287e-01   8.8450926248364170e-01   9.5072562370952085e-01   4.7737053876691637e-01   8.6420350761830966e-01   4.1810798396885944e-02   3.9625861893272124e-01   3.5557576222451176e-04   2.7550470897507111e-02   6.0981858745109063e-07   2.1274342196694884e-04   2.0587614020980044e-10   3.3468965568439474e-07   1.3535469041888366e-14   1.0117339373690489e-10   0.0000000000000000e+00   5.8934338890518713e-15   0.0000000000000000e+00   0.0000000000000000e+00   0.0000000000000000e+00   0.0000000000000000e+00   0.0000000000000000e+00   0.0000000000000000e+00   0.0000000000000000e+00   0.0000000000000000e+00   0.0000000000000000e+00   0.0000000000000000e+00   0.0000000000000000e+00   0.0000000000000000e+00   0.0000000000000000e+00   0.0000000000000000e+00   0.0000000000000000e+00   0.0000000000000000e+00   0.0000000000000000e+00   0.0000000000000000e+00   0.0000000000000000e+00   0.0000000000000000e+00   0.0000000000000000e+00   0.0000000000000000e+00   0.0000000000000000e+00   0.0000000000000000e+00   0.0000000000000000e+00   0.0000000000000000e+00   0.0000000000000000e+00   0.0000000000000000e+00   0.0000000000000000e+00   0.0000000000000000e+00   0.0000000000000000e+00   0.0000000000000000e+00   0.0000000000000000e+00   0.0000000000000000e+00   0.0000000000000000e+00   0.0000000000000000e+00   0.0000000000000000e+00   0.0000000000000000e+00   0.0000000000000000e+00   0.0000000000000000e+00   0.0000000000000000e+00   0.0000000000000000e+00   0.0000000000000000e+00   0.0000000000000000e+00   0.0000000000000000e+00   0.0000000000000000e+00   0.0000000000000000e+00   0.0000000000000000e+00   0.0000000000000000e+00   0.0000000000000000e+00   0.0000000000000000e+00   0.0000000000000000e+00   0.0000000000000000e+00   0.0000000000000000e+00   0.0000000000000000e+00   0.0000000000000000e+00   0.0000000000000000e+00   0.0000000000000000e+00   0.0000000000000000e+00   0.0000000000000000e+00   0.0000000000000000e+00   0.0000000000000000e+00   0.0000000000000000e+00   0.0000000000000000e+00   0.0000000000000000e+00   0.0000000000000000e+00   0.0000000000000000e+00   0.0000000000000000e+00   0.0000000000000000e+00   0.0000000000000000e+00   0.0000000000000000e+00   0.0000000000000000e+00   0.0000000000000000e+00   0.0000000000000000e+00   0.0000000000000000e+00   0.0000000000000000e+00   0.0000000000000000e+00   0.0000000000000000e+00   0.0000000000000000e+00   0.0000000000000000e+00   0.0000000000000000e+00   0.0000000000000000e+00   0.0000000000000000e+00   0.0000000000000000e+00   0.0000000000000000e+00   0.0000000000000000e+00   0.0000000000000000e+00   0.0000000000000000e+00   0.0000000000000000e+00   0.0000000000000000e+00   0.0000000000000000e+00   0.0000000000000000e+00   0.0000000000000000e+00   0.0000000000000000e+00   0.0000000000000000e+00   0.0000000000000000e+00   0.0000000000000000e+00   0.0000000000000000e+00   0.0000000000000000e+00   0.0000000000000000e+00   0.0000000000000000e+00   0.0000000000000000e+00   0.0000000000000000e+00   0.0000000000000000e+00   0.0000000000000000e+00   0.0000000000000000e+00   0.0000000000000000e+00   0.0000000000000000e+00   0.0000000000000000e+00   0.0000000000000000e+00   0.0000000000000000e+00   0.0000000000000000e+00   6.4763009769800815e-17   0.0000000000000000e+00   1.9334811529603257e-12   1.3877787807814457e-16   1.3434558280659793e-08   4.1720053337949521e-12   1.7445084442772409e-05   2.5950236839008170e-08   4.5787901222286518e-03   3.0631416194693006e-05   1.7994341104107506e-01   7.2591328240818953e-03   7.2503589014825320e-01   2.3872521402863681e-01   9.3540757268073171e-01   7.6634338484005715e-01   9.4307449486628625e-01   9.3989844200898387e-01   7.9163665593936572e-01   9.3892143395859784e-01   2.7527307379287624e-01   7.5434654783989619e-01   1.0100917942336120e-02   2.1161357547686555e-01   4.9403131027988170e-05   6.5072125104446155e-03   4.9676126295805618e-08   2.8968497366157094e-05   9.4463788643158361e-12   2.6487576372987341e-08   3.6082248300317588e-16   4.5124089650035631e-12   0.0000000000000000e+00   1.7578531223231644e-16   0.0000000000000000e+00   0.0000000000000000e+00   0.0000000000000000e+00   0.0000000000000000e+00   0.0000000000000000e+00   0.0000000000000000e+00   0.0000000000000000e+00   0.0000000000000000e+00   0.0000000000000000e+00   0.0000000000000000e+00   0.0000000000000000e+00   0.0000000000000000e+00   0.0000000000000000e+00   0.0000000000000000e+00   0.0000000000000000e+00   0.0000000000000000e+00   0.0000000000000000e+00   0.0000000000000000e+00   0.0000000000000000e+00   0.0000000000000000e+00   0.0000000000000000e+00   0.0000000000000000e+00   0.0000000000000000e+00   0.0000000000000000e+00   0.0000000000000000e+00   0.0000000000000000e+00   0.0000000000000000e+00   0.0000000000000000e+00   0.0000000000000000e+00   0.0000000000000000e+00   0.0000000000000000e+00   0.0000000000000000e+00   0.0000000000000000e+00   0.0000000000000000e+00   0.0000000000000000e+00   0.0000000000000000e+00   0.0000000000000000e+00   0.0000000000000000e+00   0.0000000000000000e+00   0.0000000000000000e+00   0.0000000000000000e+00   0.0000000000000000e+00   0.0000000000000000e+00   0.0000000000000000e+00   0.0000000000000000e+00   0.0000000000000000e+00   0.0000000000000000e+00   0.0000000000000000e+00   0.0000000000000000e+00   0.0000000000000000e+00   0.0000000000000000e+00   0.0000000000000000e+00   0.0000000000000000e+00   0.0000000000000000e+00   0.0000000000000000e+00   0.0000000000000000e+00   0.0000000000000000e+00   0.0000000000000000e+00   0.0000000000000000e+00   0.0000000000000000e+00   0.0000000000000000e+00   0.0000000000000000e+00   0.0000000000000000e+00   0.0000000000000000e+00   0.0000000000000000e+00   0.0000000000000000e+00   0.0000000000000000e+00   0.0000000000000000e+00   0.0000000000000000e+00   0.0000000000000000e+00   0.0000000000000000e+00   0.0000000000000000e+00   0.0000000000000000e+00   0.0000000000000000e+00   0.0000000000000000e+00   0.0000000000000000e+00   0.0000000000000000e+00   0.0000000000000000e+00   0.0000000000000000e+00   0.0000000000000000e+00   0.0000000000000000e+00   0.0000000000000000e+00   0.0000000000000000e+00   0.0000000000000000e+00   0.0000000000000000e+00   0.0000000000000000e+00   0.0000000000000000e+00   0.0000000000000000e+00   0.0000000000000000e+00   0.0000000000000000e+00   0.0000000000000000e+00   0.0000000000000000e+00   0.0000000000000000e+00   0.0000000000000000e+00   0.0000000000000000e+00   0.0000000000000000e+00   0.0000000000000000e+00   0.0000000000000000e+00   0.0000000000000000e+00   0.0000000000000000e+00   0.0000000000000000e+00   0.0000000000000000e+00   0.0000000000000000e+00   0.0000000000000000e+00   0.0000000000000000e+00   0.0000000000000000e+00   0.0000000000000000e+00   0.0000000000000000e+00   0.0000000000000000e+00   0.0000000000000000e+00   0.0000000000000000e+00   0.0000000000000000e+00   0.0000000000000000e+00   0.0000000000000000e+00   2.4702462297909729e-15   0.0000000000000000e+00   4.9910742205838681e-11   5.8379227378206143e-15   1.9674257906165948e-07   1.0627674666234079e-10   1.4212034718784811e-04   3.6652116519597655e-07   2.0729956389292373e-02   2.3888349900378722e-04   3.5271465390983214e-01   3.1475465323580920e-02   8.4464462846909549e-01   4.3079203097740992e-01   9.4849666017155820e-01   8.6753058697778473e-01   9.2251728367852792e-01   9.5051188871784265e-01   6.4924181139930848e-01   9.1443730486939923e-01   1.2406062157649612e-01   5.9132925334379793e-01   2.0736726632252234e-03   8.9406501170627081e-02   6.0416172711352792e-06   1.3113658434101561e-03   3.6976475122537283e-09   3.5420610675999478e-06   4.8022696930161126e-13   2.0460684072946354e-09   9.2518585385429707e-18   2.4629372615455237e-13   0.0000000000000000e+00   9.2518585385429707e-18   0.0000000000000000e+00   0.0000000000000000e+00   0.0000000000000000e+00   0.0000000000000000e+00   0.0000000000000000e+00   0.0000000000000000e+00   0.0000000000000000e+00   0.0000000000000000e+00   0.0000000000000000e+00   0.0000000000000000e+00   0.0000000000000000e+00   0.0000000000000000e+00   0.0000000000000000e+00   0.0000000000000000e+00   0.0000000000000000e+00   0.0000000000000000e+00   0.0000000000000000e+00   0.0000000000000000e+00   0.0000000000000000e+00   0.0000000000000000e+00   0.0000000000000000e+00   0.0000000000000000e+00   0.0000000000000000e+00   0.0000000000000000e+00   0.0000000000000000e+00   0.0000000000000000e+00   0.0000000000000000e+00   0.0000000000000000e+00   0.0000000000000000e+00   0.0000000000000000e+00   0.0000000000000000e+00   0.0000000000000000e+00   0.0000000000000000e+00   0.0000000000000000e+00   0.0000000000000000e+00   0.0000000000000000e+00   0.0000000000000000e+00   0.0000000000000000e+00   0.0000000000000000e+00   0.0000000000000000e+00   0.0000000000000000e+00   0.00000000