<?xml version="1.0"?>
<VTKFile type="UnstructuredGrid"  version="0.1"  >
<UnstructuredGrid>
<Piece  NumberOfPoints="2433" NumberOfCells="4671">
<Points>
<DataArray  type="Float64"  NumberOfComponents="3"  format="ascii">0.7599999999999999 0 0  0.7682608695652173 0 0  0.7682608695652173 0.008333333333333333 0  0.7599999999999999 0.008333333333333333 0  0.7765217391304348 0 0  0.7765217391304348 0.008333333333333333 0  0.7847826086956522 0 0  0.7847826086956522 0.008333333333333333 0  0.7930434782608695 0 0  0.7930434782608695 0.008333333333333333 0  0.8013043478260868 0 0  0.8013043478260868 0.008333333333333333 0  0.8095652173913043 0 0  0.8095652173913043 0.008333333333333333 0  0.8178260869565217 0 0  0.8178260869565217 0.008333333333333333 0  0.8260869565217391 0 0  0.8260869565217391 0.008333333333333333 0  0.8343478260869565 0 0  0.8343478260869565 0.008333333333333333 0  0.8426086956521739 0 0  0.8426086956521739 0.008333333333333333 0  0.8508695652173912 0 0  0.8508695652173912 0.008333333333333333 0  0.8591304347826086 0 0  0.8591304347826086 0.008333333333333333 0  0.8673913043478261 0 0  0.8673913043478261 0.008333333333333333 0  0.8756521739130434 0 0  0.8756521739130434 0.008333333333333333 0  0.8839130434782608 0 0  0.8839130434782608 0.008333333333333333 0  0.8921739130434783 0 0  0.8921739130434783 0.008333333333333333 0  0.9004347826086956 0 0  0.9004347826086956 0.008333333333333333 0  0.908695652173913 0 0  0.908695652173913 0.008333333333333333 0  0.9169565217391303 0 0  0.9169565217391303 0.008333333333333333 0  0.9252173913043478 0 0  0.9252173913043478 0.008333333333333333 0  0.9334782608695652 0 0  0.9334782608695652 0.008333333333333333 0  0.9417391304347826 0 0  0.9417391304347826 0.008333333333333333 0  0.95 0 0  0.95 0.008333333333333333 0  0.9582608695652173 0 0  0.9582608695652173 0.008333333333333333 0  0.9665217391304347 0 0  0.9665217391304347 0.008333333333333333 0  0.9747826086956521 0 0  0.9747826086956521 0.008333333333333333 0  0.9830434782608696 0 0  0.9830434782608696 0.008333333333333333 0  0.991304347826087 0 0  0.991304347826087 0.008333333333333333 0  0.9995652173913042 0 0  0.9995652173913042 0.008333333333333333 0  1.007826086956522 0 0  1.007826086956522 0.008333333333333333 0  1.016086956521739 0 0  1.016086956521739 0.008333333333333333 0  1.024347826086957 0.008333333333333333 0  0.7682608695652173 0.01666666666666667 0  0.7599999999999999 0.01666666666666667 0  0.7765217391304348 0.01666666666666667 0  0.7847826086956522 0.01666666666666667 0  0.7930434782608695 0.01666666666666667 0  0.8013043478260868 0.01666666666666667 0  0.8095652173913043 0.01666666666666667 0  0.8178260869565217 0.01666666666666667 0  0.8260869565217391 0.01666666666666667 0  0.8343478260869565 0.01666666666666667 0  0.8426086956521739 0.01666666666666667 0  0.8508695652173912 0.01666666666666667 0  0.8591304347826086 0.01666666666666667 0  0.8673913043478261 0.01666666666666667 0  0.8756521739130434 0.01666666666666667 0  0.8839130434782608 0.01666666666666667 0  0.8921739130434783 0.01666666666666667 0  0.9004347826086956 0.01666666666666667 0  0.908695652173913 0.01666666666666667 0  0.9169565217391303 0.01666666666666667 0  0.9252173913043478 0.01666666666666667 0  0.9334782608695652 0.01666666666666667 0  0.9417391304347826 0.01666666666666667 0  0.95 0.01666666666666667 0  0.9582608695652173 0.01666666666666667 0  0.9665217391304347 0.01666666666666667 0  0.9747826086956521 0.01666666666666667 0  0.9830434782608696 0.01666666666666667 0  0.991304347826087 0.01666666666666667 0  0.9995652173913042 0.01666666666666667 0  1.007826086956522 0.01666666666666667 0  1.016086956521739 0.01666666666666667 0  1.024347826086957 0.01666666666666667 0  1.032608695652174 0.01666666666666667 0  0.7682608695652173 0.025 0  0.7765217391304348 0.025 0  0.7847826086956522 0.025 0  0.7930434782608695 0.025 0  0.8013043478260868 0.025 0  0.8095652173913043 0.025 0  0.8178260869565217 0.025 0  0.8260869565217391 0.025 0  0.8343478260869565 0.025 0  0.8426086956521739 0.025 0  0.8508695652173912 0.025 0  0.8591304347826086 0.025 0  0.8673913043478261 0.025 0  0.8756521739130434 0.025 0  0.8839130434782608 0.025 0  0.8921739130434783 0.025 0  0.9004347826086956 0.025 0  0.908695652173913 0.025 0  0.9169565217391303 0.025 0  0.9252173913043478 0.025 0  0.9334782608695652 0.025 0  0.9417391304347826 0.025 0  0.95 0.025 0  0.9582608695652173 0.025 0  0.9665217391304347 0.025 0  0.9747826086956521 0.025 0  0.9830434782608696 0.025 0  0.991304347826087 0.025 0  0.9995652173913042 0.025 0  1.007826086956522 0.025 0  1.016086956521739 0.025 0  1.024347826086957 0.025 0  1.032608695652174 0.025 0  1.040869565217391 0.025 0  0.7765217391304348 0.03333333333333333 0  0.7847826086956522 0.03333333333333333 0  0.7930434782608695 0.03333333333333333 0  0.8013043478260868 0.03333333333333333 0  0.8095652173913043 0.03333333333333333 0  0.8178260869565217 0.03333333333333333 0  0.8260869565217391 0.03333333333333333 0  0.8343478260869565 0.03333333333333333 0  0.8426086956521739 0.03333333333333333 0  0.8508695652173912 0.03333333333333333 0  0.8591304347826086 0.03333333333333333 0  0.8673913043478261 0.03333333333333333 0  0.8756521739130434 0.03333333333333333 0  0.8839130434782608 0.03333333333333333 0  0.8921739130434783 0.03333333333333333 0  0.9004347826086956 0.03333333333333333 0  0.908695652173913 0.03333333333333333 0  0.9169565217391303 0.03333333333333333 0  0.9252173913043478 0.03333333333333333 0  0.9334782608695652 0.03333333333333333 0  0.9417391304347826 0.03333333333333333 0  0.95 0.03333333333333333 0  0.9582608695652173 0.03333333333333333 0  0.9665217391304347 0.03333333333333333 0  0.9747826086956521 0.03333333333333333 0  0.9830434782608696 0.03333333333333333 0  0.991304347826087 0.03333333333333333 0  0.9995652173913042 0.03333333333333333 0  1.007826086956522 0.03333333333333333 0  1.016086956521739 0.03333333333333333 0  1.024347826086957 0.03333333333333333 0  1.032608695652174 0.03333333333333333 0  1.040869565217391 0.03333333333333333 0  1.049130434782609 0.03333333333333333 0  0.7847826086956522 0.04166666666666666 0  0.7930434782608695 0.04166666666666666 0  0.8013043478260868 0.04166666666666666 0  0.8095652173913043 0.04166666666666666 0  0.8178260869565217 0.04166666666666666 0  0.8260869565217391 0.04166666666666666 0  0.8343478260869565 0.04166666666666666 0  0.8426086956521739 0.04166666666666666 0  0.8508695652173912 0.04166666666666666 0  0.8591304347826086 0.04166666666666666 0  0.8673913043478261 0.04166666666666666 0  0.8756521739130434 0.04166666666666666 0  0.8839130434782608 0.04166666666666666 0  0.8921739130434783 0.04166666666666666 0  0.9004347826086956 0.04166666666666666 0  0.908695652173913 0.04166666666666666 0  0.9169565217391303 0.04166666666666666 0  0.9252173913043478 0.04166666666666666 0  0.9334782608695652 0.04166666666666666 0  0.9417391304347826 0.04166666666666666 0  0.95 0.04166666666666666 0  0.9582608695652173 0.04166666666666666 0  0.9665217391304347 0.04166666666666666 0  0.9747826086956521 0.04166666666666666 0  0.9830434782608696 0.04166666666666666 0  0.991304347826087 0.04166666666666666 0  0.9995652173913042 0.04166666666666666 0  1.007826086956522 0.04166666666666666 0  1.016086956521739 0.04166666666666666 0  1.024347826086957 0.04166666666666666 0  1.032608695652174 0.04166666666666666 0  1.040869565217391 0.04166666666666666 0  1.049130434782609 0.04166666666666666 0  1.057391304347826 0.04166666666666666 0  0.7930434782608695 0.05 0  0.8013043478260868 0.05 0  0.8095652173913043 0.05 0  0.8178260869565217 0.05 0  0.8260869565217391 0.05 0  0.8343478260869565 0.05 0  0.8426086956521739 0.05 0  0.8508695652173912 0.05 0  0.8591304347826086 0.05 0  0.8673913043478261 0.05 0  0.8756521739130434 0.05 0  0.8839130434782608 0.05 0  0.8921739130434783 0.05 0  0.9004347826086956 0.05 0  0.908695652173913 0.05 0  0.9169565217391303 0.05 0  0.9252173913043478 0.05 0  0.9334782608695652 0.05 0  0.9417391304347826 0.05 0  0.95 0.05 0  0.9582608695652173 0.05 0  0.9665217391304347 0.05 0  0.9747826086956521 0.05 0  0.9830434782608696 0.05 0  0.991304347826087 0.05 0  0.9995652173913042 0.05 0  1.007826086956522 0.05 0  1.016086956521739 0.05 0  1.024347826086957 0.05 0  1.032608695652174 0.05 0  1.040869565217391 0.05 0  1.049130434782609 0.05 0  1.057391304347826 0.05 0  1.065652173913043 0.05 0  0.8013043478260868 0.05833333333333333 0  0.8095652173913043 0.05833333333333333 0  0.8178260869565217 0.05833333333333333 0  0.8260869565217391 0.05833333333333333 0  0.8343478260869565 0.05833333333333333 0  0.8426086956521739 0.05833333333333333 0  0.8508695652173912 0.05833333333333333 0  0.8591304347826086 0.05833333333333333 0  0.8673913043478261 0.05833333333333333 0  0.8756521739130434 0.05833333333333333 0  0.8839130434782608 0.05833333333333333 0  0.8921739130434783 0.05833333333333333 0  0.9004347826086956 0.05833333333333333 0  0.908695652173913 0.05833333333333333 0  0.9169565217391303 0.05833333333333333 0  0.9252173913043478 0.05833333333333333 0  0.9334782608695652 0.05833333333333333 0  0.9417391304347826 0.05833333333333333 0  0.95 0.05833333333333333 0  0.9582608695652173 0.05833333333333333 0  0.9665217391304347 0.05833333333333333 0  0.9747826086956521 0.05833333333333333 0  0.9830434782608696 0.05833333333333333 0  0.991304347826087 0.05833333333333333 0  0.9995652173913042 0.05833333333333333 0  1.007826086956522 0.05833333333333333 0  1.016086956521739 0.05833333333333333 0  1.024347826086957 0.05833333333333333 0  1.032608695652174 0.05833333333333333 0  1.040869565217391 0.05833333333333333 0  1.049130434782609 0.05833333333333333 0  1.057391304347826 0.05833333333333333 0  1.065652173913043 0.05833333333333333 0  1.073913043478261 0.05833333333333333 0  0.8095652173913043 0.06666666666666667 0  0.8178260869565217 0.06666666666666667 0  0.8260869565217391 0.06666666666666667 0  0.8343478260869565 0.06666666666666667 0  0.8426086956521
[...]
<CellData  Scalars="rho_bar"> 
<DataArray  type="Float64"  Name="rho_bar"  format="ascii">9.9999999998924538e-01   9.9999999997590483e-01   9.9999999998883304e-01   9.9999999997493794e-01   9.9999999998846023e-01   9.9999999997404143e-01   9.9999999998814659e-01   9.9999999997326861e-01   9.9999999998790512e-01   9.9999999997265432e-01   9.9999999998773581e-01   9.9999999997221045e-01   9.9999999998763422e-01   9.9999999997192879e-01   9.9999999998758582e-01   9.9999999997178335e-01   9.9999999998757538e-01   9.9999999997173827e-01   9.9999999998758304e-01   9.9999999997174993e-01   9.9999999998759492e-01   9.9999999997178146e-01   9.9999999998759648e-01   9.9999999997179967e-01   9.9999999998757849e-01   9.9999999997177946e-01   9.9999999998753242e-01   9.9999999997169975e-01   9.9999999998745637e-01   9.9999999997155109e-01   9.9999999998734979e-01   9.9999999997133071e-01   9.9999999998721734e-01   9.9999999997104561e-01   9.9999999998706290e-01   9.9999999997070643e-01   9.9999999998689504e-01   9.9999999997032996e-01   9.9999999998671940e-01   9.9999999996992928e-01   9.9999999998654532e-01   9.9999999996952538e-01   9.9999999998638078e-01   9.9999999996913669e-01   9.9999999998623401e-01   9.9999999996878364e-01   9.9999999998610645e-01   9.9999999996847511e-01   9.9999999998599831e-01   9.9999999996821298e-01   9.9999999998590428e-01   9.9999999996798861e-01   9.9999999998582167e-01   9.9999999996779254e-01   9.9999999998574440e-01   9.9999999996761291e-01   9.9999999998567080e-01   9.9999999996744293e-01   9.9999999998559774e-01   9.9999999996727551e-01   9.9999999998552791e-01   9.9999999996711264e-01   9.9999999996695321e-01   9.9999999697887076e-01   9.9999997571009169e-01   9.9999999685078478e-01   9.9999997460706003e-01   9.9999999673636419e-01   9.9999997359295467e-01   9.9999999664338224e-01   9.9999997273669916e-01   9.9999999657452499e-01   9.9999997208080915e-01   9.9999999653027927e-01   9.9999997163620569e-01   9.9999999650703364e-01   9.9999997138469288e-01   9.9999999650036087e-01   9.9999997128947626e-01   9.9999999650375693e-01   9.9999997130064400e-01   9.9999999651201421e-01   9.9999997136868757e-01   9.9999999651976323e-01   9.9999997144803010e-01   9.9999999652360161e-01   9.9999997150369346e-01   9.9999999651974925e-01   9.9999997150518982e-01   9.9999999650656934e-01   9.9999997143151897e-01   9.9999999648251026e-01   9.9999997126895579e-01   9.9999999644870974e-01   9.9999997101812244e-01   9.9999999640632931e-01   9.9999997068942847e-01   9.9999999635806402e-01   9.9999997030187870e-01   9.9999999630508241e-01   9.9999996987087714e-01   9.9999999625002678e-01   9.9999996941310543e-01   9.9999999619517266e-01   9.9999996894828924e-01   9.9999999614469848e-01   9.9999996850637329e-01   9.9999999610058277e-01   9.9999996811339387e-01   9.9999999606413448e-01   9.9999996778401712e-01   9.9999999603368628e-01   9.9999996751341824e-01   9.9999999600810285e-01   9.9999996728889617e-01   9.9999999598481359e-01   9.9999996709197592e-01   9.9999999596314337e-01   9.9999996690978055e-01   9.9999999594160416e-01   9.9999996673230696e-01   9.9999999592029898e-01   9.9999996655554313e-01   9.9999999589844824e-01   9.9999996637510868e-01   9.9999999587745447e-01   9.9999996619604115e-01   9.9999996602190178e-01   9.9970596376574916e-01   9.9969099114561355e-01   9.9199685981090702e-01   9.9967786669112069e-01   9.9162008086749565e-01   9.9966750200760501e-01   9.9130989810364645e-01   9.9966044336934778e-01   9.9108613426121239e-01   9.9965646461928470e-01   9.9095109085382838e-01   9.9965508786518253e-01   9.9089327013395589e-01   9.9965553141061136e-01   9.9089355301299098e-01   9.9965705235056046e-01   9.9093055704436228e-01   9.9965889162512678e-01   9.9098331813714813e-01   9.9966054817383709e-01   9.9103535585205604e-01   9.9966155193854656e-01   9.9107385554316096e-01   9.9966158731684795e-01   9.9108895235932493e-01   9.9966029634682774e-01   9.9107136659912942e-01   9.9965761354375970e-01   9.9101583200670396e-01   9.9965360215092047e-01   9.9092257719791366e-01   9.9964866215952952e-01   9.9079920172174918e-01   9.9964304904050161e-01   9.9065515738940546e-01   9.9963694399783420e-01   9.9049653598265097e-01   9.9963041934768448e-01   9.9032569634575784e-01   9.9962393699335872e-01   9.9015014643840737e-01   9.9961801535778305e-01   9.8998377583827324e-01   9.9961318005106470e-01   9.8984201996191701e-01   9.9960942394219532e-01   9.8973144366914012e-01   9.9960653856337989e-01   9.8964819328360720e-01   9.9960409267198125e-01   9.8958187986993118e-01   9.9960186509707050e-01   9.8952330686913104e-01   9.9959966918129983e-01   9.8946674674405677e-01   9.9959750280435677e-01   9.8941049883024379e-01   9.9959518454557961e-01   9.8935181033760977e-01   9.9959274644657625e-01   9.8928886724105169e-01   9.9959028051119292e-01   9.8922332713765870e-01   9.9958804892720399e-01   9.8916125072045069e-01   9.8910845976613260e-01   2.2420821362791521e-01   2.1875606547467782e-01   4.3886019756639669e-03   2.1459236665962661e-01   4.2036173905470311e-03   2.1181531840929915e-01   4.0788380748440767e-03   2.1030897953542724e-01   4.0091032488889511e-03   2.0981492187118087e-01   3.9821769547094456e-03   2.1004810434691856e-01   3.9867639398331696e-03   2.1070763557889310e-01   4.0108835187751910e-03   2.1152467447897721e-01   4.0442771492291973e-03   2.1228649476337189e-01   4.0775201894749187e-03   2.1284089636809181e-01   4.1048591154566319e-03   2.1304714628674032e-01   4.1204669020117332e-03   2.1277701943998723e-01   4.1194505176823468e-03   2.1195987847685901e-01   4.0968738703334633e-03   2.1063749480000624e-01   4.0534453752680928e-03   2.0895789509451479e-01   3.9938068945817393e-03   2.0707927394629877e-01   3.9264196794309980e-03   2.0505462882855108e-01   3.8546703871907466e-03   2.0290898718514891e-01   3.7792157890839014e-03   2.0075344077617355e-01   3.7015279207932112e-03   1.9879338537323468e-01   3.6291251951082555e-03   1.9720859547548497e-01   3.5692173963256515e-03   1.9604218689045461e-01   3.5259312236861993e-03   1.9519441049482783e-01   3.4959268067609275e-03   1.9452392452504949e-01   3.4740955916252028e-03   1.9391139012423300e-01   3.4547799290541945e-03   1.9331727041919855e-01   3.4361367345920788e-03   1.9272167953041064e-01   3.4173496766809943e-03   1.9209110611087843e-01   3.3981508217113725e-03   1.9139948939342236e-01   3.3765455720755249e-03   1.9068537600444077e-01   3.3533587183075253e-03   1.9002711274523196e-01   3.3308044973414290e-03   1.8950781783084997e-01   3.3125637055529213e-03   3.3004723431338712e-03   9.2478926368618387e-10   8.8413013021870747e-10   4.3758422811161308e-12   8.5961298264732489e-10   4.2214842732590796e-12   8.4862663192926858e-10   4.1397070956368988e-12   8.4762171355852912e-10   4.1140701956265957e-12   8.5331275379019179e-10   4.1268100048341702e-12   8.6276570147407006e-10   4.1639747205834965e-12   8.7324151613425260e-10   4.2112332139983745e-12   8.8269101287489582e-10   4.2572056990763932e-12   8.8985155355381096e-10   4.2940280960597956e-12   8.9354239748059173e-10   4.3173612832940007e-12   8.9221329398666173e-10   4.3201090852799479e-12   8.8482589773638166e-10   4.2955361490015775e-12   8.7182533414775765e-10   4.2418013546097200e-12   8.5539317296046136e-10   4.1661951666327468e-12   8.3793268620032322e-10   4.0816516833075411e-12   8.1994348348028235e-10   3.9963587994407135e-12   8.0082988388833586e-10   3.9068655717973871e-12   7.8136093891364078e-10   3.8126261407237889e-12   7.6386924563465176e-10   3.7221337123583006e-12   7.5062385936538090e-10   3.6483408886548805e-12   7.4210497006769549e-10   3.5981865635174391e-12   7.3689467490941252e-10   3.5682475492867147e-12   7.3310472507396663e-10   3.5486428610435419e-12   7.2935819421064240e-10   3.5316379450497002e-12   7.2537443644253108e-10   3.5126438794700716e-12   7.2135630801994921e-10   3.4936220583148266e-12   7.1692470478742121e-10   3.4738785921935760e-12   7.1169843166944225e-10   3.4510450053204510e-12   7.0595799576504216e-10   3.4244181564465245e-12   7.0069985924625645e-10   3.3978560705823680e-12   6.9701864650421409e-10   3.3767433293974132e-12   6.9547694455292697e-10   3.3655300768486991e-12   3.3642163129362258e-12   0.0000000000000000e+00   0.0000000000000000e+00   0.0000000000000000e+00   0.0000000000000000e+00   0.0000000000000000e+00   0.0000000000000000e+00   0.0000000000000000e+00   0.0000000000000000e+00   0.0000000000000000e+00   0.0000000000000000e+00   0.0000000000000000e+00   0.0000000000000000e+00   0.0000000000000000e+00   0.0000000000000000e+00   0.0000000000000000e+00   0.0000000000000000e+00   0.0000000000000000e+00   0.0000000000000000e+00   0.0000000000000000e+00   0.0000000000000000e+00   0.0000000000000000e+00   0.0000000000000000e+00   0.0000000000000000e+00   0.0000000000000000e+00   0.0000000000000000e+00   0.0000000000000000e+00   0.0000000000000000e+00   0.0000000000000000e+00   0.0000000000000000e+00   0.0000000000000000e+00   0.0000000000000000e+00   0.0000000000000000e+00   0.0000000000000000e+00   0.0000000000000000e+00   0.0000000000000000e+00   0.0000000000000000e+00   0.0000000000000000e+00   0.0000000000000000e+00   0.0000000000000000e+00   0.0000000000000000e+00   0.0000000000000000e+00   0.0000000000000000e+00   0.0000000000000000e+00   0.0000000000000000e+00   0.0000000000000000e+00   0.0000000000000000e+00   0.0000000000000000e+00   0.0000000000000000e+00   0.0000000000000000e+00   0.0000000000000000e+00   0.0000000000000000e+00   0.0000000000000000e+00   0.0000000000000000e+00   0.0000000000000000e+00   0.0000000000000000e+00   0.0000000000000000e+00   0.0000000000000000e+00   0.0000000000000000e+00   0.0000000000000000e+00   0.0000000000000000e+00   0.0000000000000000e+00   0.0000000000000000e+00   0.0000000000000000e+00   0.0000000000000000e+00   0.0000000000000000e+00   0.0000000000000000e+00   0.0000000000000000e+00   0.0000000000000000e+00   0.0000000000000000e+00   0.0000000000000000e+00   0.0000000000000000e+00   0.0000000000000000e+00   0.0000000000000000e+00   0.0000000000000000e+00   0.0000000000000000e+00   0.0000000000000000e+00   0.0000000000000000e+00   0.0000000000000000e+00   0.0000000000000000e+00   0.0000000000000000e+00   0.0000000000000000e+00   0.0000000000000000e+00   0.0000000000000000e+00   0.0000000000000000e+00   0.0000000000000000e+00   0.0000000000000000e+00   0.0000000000000000e+00   0.0000000000000000e+00   0.0000000000000000e+00   0.0000000000000000e+00   0.0000000000000000e+00   0.0000000000000000e+00   0.0000000000000000e+00   0.0000000000000000e+00   0.0000000000000000e+00   0.0000000000000000e+00   0.0000000000000000e+00   0.0000000000000000e+00   0.0000000000000000e+00   0.0000000000000000e+00   0.0000000000000000e+00   0.0000000000000000e+00   0.0000000000000000e+00   0.0000000000000000e+00   0.0000000000000000e+00   0.0000000000000000e+00   0.0000000000000000e+00   0.0000000000000000e+00   0.0000000000000000e+00   0.0000000000000000e+00   0.0000000000000000e+00   0.0000000000000000e+00   0.0000000000000000e+00   0.0000000000000000e+00   0.0000000000000000e+00   0.0000000000000000e+00   0.0000000000000000e+00   0.0000000000000000e+00   0.0000000000000000e+00   0.0000000000000000e+00   0.0000000000000000e+00   0.0000000000000000e+00   0.0000000000000000e+00   0.0000000000000000e+00   0.0000000000000000e+00   0.0000000000000000e+00   0.0000000000000000e+00   0.0000000000000000e+00   0.0000000000000000e+00   0.0000000000000000e+00   0.0000000000000000e+00   0.0000000000000000e+00   0.0000000000000000e+00   0.0000000000000000e+00   0.0000000000000000e+00   0.0000000000000000e+00   0.0000000000000000e+00   0.0000000000000000e+00   0.0000000000000000e+00   0.0000000000000000e+00   0.0000000000000000e+00   0.0000000000000000e+00   0.0000000000000000e+00   0.0000000000000000e+00   0.0000000000000000e+00   0.0000000000000000e+00   0.0000000000000000e+00   0.0000000000000000e+00   0.0000000000000000e+00   0.0000000000000000e+00   0.0000000000000000e+00   0.0000000000000000e+00   0.0000000000000000e+00   0.0000000000000000e+00   0.0000000000000000e+00   0.0000000000000000e+00   0.0000000000000000e+00   0.0000000000000000e+00   0.0000000000000000e+00   0.0000000000000000e+00   0.0000000000000000e+00   0.0000000000000000e+00   0.0000000000000000e+00   0.0000000000000000e+00   0.0000000000000000e+00   0.0000000000000000e+00   0.0000000000000000e+00   0.0000000000000000e+00   0.0000000000000000e+00   0.0000000000000000e+00   0.0000000000000000e+00   0.0000000000000000e+00   0.0000000000000000e+00   0.0000000000000000e+00   0.0000000000000000e+00   0.0000000000000000e+00   0.0000000000000000e+00   0.0000000000000000e+00   0.0000000000000000e+00   0.0000000000000000e+00   0.0000000000000000e+00   0.0000000000000000e+00   0.0000000000000000e+00   0.0000000000000000e+00   0.0000000000000000e+00   0.0000000000000000e+00   0.0000000000000000e+00   0.0000000000000000e+00   0.0000000000000000e+00   0.0000000000000000e+00   0.0000000000000000e+00   0.0000000000000000e+00   0.0000000000000000e+00   0.0000000000000000e+00   0.0000000000000000e+00   0.0000000000000000e+00   0.0000000000000000e+00   0.0000000000000000e+00   0.0000000000000000e+00   0.0000000000000000e+00   0.0000000000000000e+00   0.0000000000000000e+00   0.0000000000000000e+00   0.0000000000000000e+00   0.0000000000000000e+00   0.0000000000000000e+00   0.0000000000000000e+00   0.0000000000000000e+00   0.0000000000000000e+00   0.0000000000000000e+00   0.0000000000000000e+00   0.0000000000000000e+00   0.0000000000000000e+00   0.0000000000000000e+00   0.0000000000000000e+00   0.0000000000000000e+00   0.0000000000000000e+00   0.0000000000000000e+00   0.0000000000000000e+00   0.0000000000000000e+00   0.0000000000000000e+00   0.0000000000000000e+00   0.0000000000000000e+00   0.0000000000000000e+00   0.0000000000000000e+00   0.0000000000000000e+00   0.0000000000000000e+00   0.0000000000000000e+00   0.0000000000000000e+00   0.0000000000000000e+00   0.0000000000000000e+00   0.0000000000000000e+00   0.0000000000000000e+00   0.0000000000000000e+00   0.0000000000000000e+00   0.0000000000000000e+00   0.0000000000000000e+00   0.0000000000000000e+00   0.0000000000000000e+00   0.0000000000000000e+00   0.0000000000000000e+00   0.0000000000000000e+00   0.0000000000000000e+00   0.0000000000000000e+00   0.0000000000000000e+00   0.0000000000000000e+00   0.0000000000000000e+00   0.0000000000000000e+00   0.0000000000000000e+00   0.0000000000000000e+00   0.0000000000000000e+00   0.0000000000000000e+00   0.0000000000000000e+00   0.0000000000000000e+00   0.0000000000000000e+00   0.0000000000000000e+00   0.0000000000000000e+00   0.0000000000000000e+00   0.0000000000000000e+00   0.0000000000000000e+00   0.0000000000000000e+00   0.0000000000000000e+00   0.0000000000000000e+00   0.0000000000000000e+00   0.0000000000000000e+00   0.0000000000000000e+00   0.0000000000000000e+00   0.0000000000000000e+00   0.0000000000000000e+00   0.0000000000000000e+00   0.0000000000000000e+00   0.0000000000000000e+00   0.0000000000000000e+00   0.0000000000000000e+00   0.0000000000000000e+00   0.0000000000000000e+00   0.0000000000000000e+00   0.0000000000000000e+00   0.0000000000000000e+00   0.0000000000000000e+00   0.0000000000000000e+00   0.0000000000000000e+00   0.0000000000000000e+00   0.0000000000000000e+00   0.0000000000000000e+00   0.0000000000000000e+00   0.0000000000000000e+00   0.0000000000000000e+00   0.0000000000000000e+00   0.0000000000000000e+00   0.0000000000000000e+00   0.0000000000000000e+00   0.0000000000000000e+00   0.0000000000000000e+00   0.0000000000000000e+00   0.0000000000000000e+00   0.0000000000000000e+00   0.0000000000000000e+00   0.0000000000000000e+00   0.0000000000000000e+00   0.0000000000000000e+00   0.0000000000000000e+00   0.0000000000000000e+00   0.0000000000000000e+00   0.0000000000000000e+00   0.0000000000000000e+00   0.0000000000000000e+00   0.0000000000000000e+00   0.0000000000000000e+00   0.0000000000000000e+00   0.0000000000000000e+00   0.0000000000000000e+00   0.0000000000000000e+00   0.0000000000000000e+00   0.0000000000000000e+00   0.0000000000000000e+00   0.0000000000000000e+00   0.0000000000000000e+00   0.0000000000000000e+00   0.0000000000000000e+00   0.0000000000000000e+00   0.0000000000000000e+00   0.0000000000000000e+00   0.0000000000000000e+00   0.0000000000000000e+00   0.0000000000000000e+00   0.0000000000000000e+00   0.0000000000000000e+00   0.0000000000000000e+00   0.0000000000000000e+00   0.0000000000000000e+00   0.0000000000000000e+00   0.0000000000000000e+00   0.0000000000000000e+00   0.0000000000000000e+00   0.0000000000000000e+00   0.0000000000000000e+00   0.0000000000000000e+00   0.0000000000000000e+00   0.0000000000000000e+00   0.0000000000000000e+00   0.0000000000000000e+00   0.0000000000000000e+00   0.0000000000000000e+00   0.0000000000000000e+00   0.0000000000000000e+00   0.0000000000000000e+00   0.0000000000000000e+00   0.0000000000000000e+00   0.0000000000000000e+00   0.0000000000000000e+00   0.0000000000000000e+00   0.0000000000000000e+00   0.0000000000000000e+00   0.0000000000000000e+00   0.0000000000000000e+00   0.0000000000000000e+00   0.0000000000000000e+00   0.0000000000000000e+00   0.0000000000000000e+00   0.0000000000000000e+00   0.0000000000000000e+00   0.0000000000000000e+00   0.0000000000000000e+00   0.0000000000000000e+00   0.0000000000000000e+00   0.0000000000000000e+00   0.0000000000000000e+00   0.0000000000000000e+00   0.0000000000000000e+00   0.0000000000000000e+00   0.0000000000000000e+00   0.0000000000000000e+00   0.0000000000000000e+00   0.0000000000000000e+00   0.0000000000000000e+00   0.0000000000000000e+00   0.0000000000000000e+00   0.0000000000000000e+00   0.0000000000000000e+00   0.0000000000000000e+00   0.0000000000000000e+00   0.0000000000000000e+00   0.0000000000000000e+00   0.0000000000000000e+00   0.0000000000000000e+00   0.0000000000000000e+00   0.0000000000000000e+00   0.0000000000000000e+00   0.0000000000000000e+00   0.0000000000000000e+00   0.0000000000000000e+00   0.0000000000000000e+00   0.0000000000000000e+00   0.0000000000000000e+00   0.0000000000000000e+00   0.0000000000000000e+00   0.0000000000000000e+00   0.0000000000000000e+00   0.0000000000000000e+00   0.0000000000000000e+00   0.0000000000000000e+00   0.0000000000000000e+00   0.0000000000000000e+00   0.0000000000000000e+00   0.0000000000000000e+00   0.0000000000000000e+00   0.0000000000000000e+00   0.0000000000000000e+00   0.0000000000000000e+00   0.0000000000000000e+00   0.0000000000000000e+00   0.0000000000000000e+00   0.0000000000000000e+00   0.0000000000000000e+00   0.0000000000000000e+00   0.0000000000000000e+00   0.0000000000000000e+00   0.0000000000000000e+00   0.0000000000000000e+00   0.0000000000000000e+00   0.0000000000000000e+00   0.0000000000000000e+00   0.0000000000000000e+00   0.0000000000000000e+00   0.0000000000000000e+00   0.0000000000000000e+00   0.0000000000000000e+00   0.0000000000000000e+00   0.0000000000000000e+00   0.0000000000000000e+00   0.0000000000000000e+00   0.0000000000000000e+00   0.0000000000000000e+00   0.0000000000000000e+00   0.0000000000000000e+00   0.0000000000000000e+00   0.0000000000000000e+00   0.0000000000000000e+00   0.0000000000000000e+00   0.0000000000000000e+00   0.0000000000000000e+00   0.0000000000000000e+00   0.0000000000000000e+00   0.0000000000000000e+00   0.0000000000000000e+00   0.0000000000000000e+00   0.0000000000000000e+00   0.0000000000000000e+00   0.0000000000000000e+00   0.0000000000000000e+00   0.0000000000000000e+00   0.0000000000000000e+00   0.0000000000000000e+00   0.0000000000000000e+00   0.0000000000000000e+00   0.0000000000000000e+00   0.0000000000000000e+00   0.0000000000000000e+00   0.0000000000000000e+00   0.0000000000000000e+00   0.0000000000000000e+00   0.0000000000000000e+00   0.0000000000000000e+00   0.0000000000000000e+00   0.0000000000000000e+00   0.0000000000000000e+00   0.0000000000000000e+00   0.0000000000000000e+00   0.0000000000000000e+00   0.00000000