<?xml version="1.0"?>
<VTKFile type="UnstructuredGrid"  version="0.1"  >
<UnstructuredGrid>
<Piece  NumberOfPoints="2394" NumberOfCells="4583">
<Points>
<DataArray  type="Float64"  NumberOfComponents="3"  format="ascii">1.734782608695652 0 0  1.743043478260869 0 0  1.743043478260869 0.008333333333333333 0  1.751304347826087 0 0  1.751304347826087 0.008333333333333333 0  1.759565217391304 0 0  1.759565217391304 0.008333333333333333 0  1.767826086956522 0 0  1.767826086956522 0.008333333333333333 0  1.776086956521739 0 0  1.776086956521739 0.008333333333333333 0  1.784347826086957 0 0  1.784347826086957 0.008333333333333333 0  1.792608695652174 0 0  1.792608695652174 0.008333333333333333 0  1.800869565217391 0 0  1.800869565217391 0.008333333333333333 0  1.809130434782608 0 0  1.809130434782608 0.008333333333333333 0  1.817391304347826 0 0  1.817391304347826 0.008333333333333333 0  1.825652173913043 0 0  1.825652173913043 0.008333333333333333 0  1.833913043478261 0 0  1.833913043478261 0.008333333333333333 0  1.842173913043478 0 0  1.842173913043478 0.008333333333333333 0  1.850434782608696 0 0  1.850434782608696 0.008333333333333333 0  1.858695652173913 0 0  1.858695652173913 0.008333333333333333 0  1.86695652173913 0 0  1.86695652173913 0.008333333333333333 0  1.875217391304348 0 0  1.875217391304348 0.008333333333333333 0  1.883478260869565 0 0  1.883478260869565 0.008333333333333333 0  1.891739130434782 0 0  1.891739130434782 0.008333333333333333 0  1.9 0 0  1.9 0.008333333333333333 0  1.908260869565217 0 0  1.908260869565217 0.008333333333333333 0  1.916521739130435 0 0  1.916521739130435 0.008333333333333333 0  1.924782608695652 0 0  1.924782608695652 0.008333333333333333 0  1.933043478260869 0 0  1.933043478260869 0.008333333333333333 0  1.941304347826087 0 0  1.941304347826087 0.008333333333333333 0  1.949565217391304 0 0  1.949565217391304 0.008333333333333333 0  1.957826086956522 0 0  1.957826086956522 0.008333333333333333 0  1.966086956521739 0 0  1.966086956521739 0.008333333333333333 0  1.974347826086956 0 0  1.974347826086956 0.008333333333333333 0  1.982608695652174 0 0  1.982608695652174 0.008333333333333333 0  1.990869565217391 0 0  1.990869565217391 0.008333333333333333 0  1.999130434782608 0 0  1.999130434782608 0.008333333333333333 0  2.007391304347826 0 0  2.007391304347826 0.008333333333333333 0  2.015652173913043 0 0  2.015652173913043 0.008333333333333333 0  2.023913043478261 0 0  2.023913043478261 0.008333333333333333 0  2.032173913043478 0 0  2.032173913043478 0.008333333333333333 0  2.040434782608695 0 0  2.040434782608695 0.008333333333333333 0  2.048695652173913 0 0  2.048695652173913 0.008333333333333333 0  2.05695652173913 0 0  2.05695652173913 0.008333333333333333 0  2.065217391304348 0 0  2.065217391304348 0.008333333333333333 0  2.073478260869565 0 0  2.073478260869565 0.008333333333333333 0  2.081739130434782 0 0  2.081739130434782 0.008333333333333333 0  2.09 0 0  2.09 0.008333333333333333 0  2.098260869565217 0 0  2.098260869565217 0.008333333333333333 0  2.106521739130435 0 0  2.106521739130435 0.008333333333333333 0  2.114782608695652 0 0  2.114782608695652 0.008333333333333333 0  2.12304347826087 0 0  2.12304347826087 0.008333333333333333 0  2.131304347826087 0 0  2.131304347826087 0.008333333333333333 0  2.139565217391304 0 0  2.139565217391304 0.008333333333333333 0  2.147826086956522 0 0  2.147826086956522 0.008333333333333333 0  1.751304347826087 0.01666666666666667 0  1.743043478260869 0.01666666666666667 0  1.759565217391304 0.01666666666666667 0  1.767826086956522 0.01666666666666667 0  1.776086956521739 0.01666666666666667 0  1.784347826086957 0.01666666666666667 0  1.792608695652174 0.01666666666666667 0  1.800869565217391 0.01666666666666667 0  1.809130434782608 0.01666666666666667 0  1.817391304347826 0.01666666666666667 0  1.825652173913043 0.01666666666666667 0  1.833913043478261 0.01666666666666667 0  1.842173913043478 0.01666666666666667 0  1.850434782608696 0.01666666666666667 0  1.858695652173913 0.01666666666666667 0  1.86695652173913 0.01666666666666667 0  1.875217391304348 0.01666666666666667 0  1.883478260869565 0.01666666666666667 0  1.891739130434782 0.01666666666666667 0  1.9 0.01666666666666667 0  1.908260869565217 0.01666666666666667 0  1.916521739130435 0.01666666666666667 0  1.924782608695652 0.01666666666666667 0  1.933043478260869 0.01666666666666667 0  1.941304347826087 0.01666666666666667 0  1.949565217391304 0.01666666666666667 0  1.957826086956522 0.01666666666666667 0  1.966086956521739 0.01666666666666667 0  1.974347826086956 0.01666666666666667 0  1.982608695652174 0.01666666666666667 0  1.990869565217391 0.01666666666666667 0  1.999130434782608 0.01666666666666667 0  2.007391304347826 0.01666666666666667 0  2.015652173913043 0.01666666666666667 0  2.023913043478261 0.01666666666666667 0  2.032173913043478 0.01666666666666667 0  2.040434782608695 0.01666666666666667 0  2.048695652173913 0.01666666666666667 0  2.05695652173913 0.01666666666666667 0  2.065217391304348 0.01666666666666667 0  2.073478260869565 0.01666666666666667 0  2.081739130434782 0.01666666666666667 0  2.09 0.01666666666666667 0  2.098260869565217 0.01666666666666667 0  2.106521739130435 0.01666666666666667 0  2.114782608695652 0.01666666666666667 0  2.12304347826087 0.01666666666666667 0  2.131304347826087 0.01666666666666667 0  2.139565217391304 0.01666666666666667 0  2.147826086956522 0.01666666666666667 0  2.156086956521739 0.01666666666666667 0  1.751304347826087 0.025 0  1.759565217391304 0.025 0  1.767826086956522 0.025 0  1.776086956521739 0.025 0  1.784347826086957 0.025 0  1.792608695652174 0.025 0  1.800869565217391 0.025 0  1.809130434782608 0.025 0  1.817391304347826 0.025 0  1.825652173913043 0.025 0  1.833913043478261 0.025 0  1.842173913043478 0.025 0  1.850434782608696 0.025 0  1.858695652173913 0.025 0  1.86695652173913 0.025 0  1.875217391304348 0.025 0  1.883478260869565 0.025 0  1.891739130434782 0.025 0  1.9 0.025 0  1.908260869565217 0.025 0  1.916521739130435 0.025 0  1.924782608695652 0.025 0  1.933043478260869 0.025 0  1.941304347826087 0.025 0  1.949565217391304 0.025 0  1.957826086956522 0.025 0  1.966086956521739 0.025 0  1.974347826086956 0.025 0  1.982608695652174 0.025 0  1.990869565217391 0.025 0  1.999130434782608 0.025 0  2.007391304347826 0.025 0  2.015652173913043 0.025 0  2.023913043478261 0.025 0  2.032173913043478 0.025 0  2.040434782608695 0.025 0  2.048695652173913 0.025 0  2.05695652173913 0.025 0  2.065217391304348 0.025 0  2.073478260869565 0.025 0  2.081739130434782 0.025 0  2.09 0.025 0  2.098260869565217 0.025 0  2.106521739130435 0.025 0  2.114782608695652 0.025 0  2.12304347826087 0.025 0  2.131304347826087 0.025 0  2.139565217391304 0.025 0  2.147826086956522 0.025 0  2.156086956521739 0.025 0  2.164347826086956 0.025 0  1.759565217391304 0.03333333333333333 0  1.767826086956522 0.03333333333333333 0  1.776086956521739 0.03333333333333333 0  1.784347826086957 0.03333333333333333 0  1.792608695652174 0.03333333333333333 0  1.800869565217391 0.03333333333333333 0  1.809130434782608 0.03333333333333333 0  1.817391304347826 0.03333333333333333 0  1.825652173913043 0.03333333333333333 0  1.833913043478261 0.03333333333333333 0  1.842173913043478 0.03333333333333333 0  1.850434782608696 0.03333333333333333 0  1.858695652173913 0.03333333333333333 0  1.86695652173913 0.03333333333333333 0  1.875217391304348 0.03333333333333333 0  1.883478260869565 0.03333333333333333 0  1.891739130434782 0.03333333333333333 0  1.9 0.03333333333333333 0  1.908260869565217 0.03333333333333333 0  1.916521739130435 0.03333333333333333 0  1.924782608695652 0.03333333333333333 0  1.933043478260869 0.03333333333333333 0  1.941304347826087 0.03333333333333333 0  1.949565217391304 0.03333333333333333 0  1.957826086956522 0.03333333333333333 0  1.966086956521739 0.03333333333333333 0  1.974347826086956 0.03333333333333333 0  1.982608695652174 0.03333333333333333 0  1.990869565217391 0.03333333333333333 0  1.999130434782608 0.03333333333333333 0  2.007391304347826 0.03333333333333333 0  2.015652173913043 0.03333333333333333 0  2.023913043478261 0.03333333333333333 0  2.032173913043478 0.03333333333333333 0  2.040434782608695 0.03333333333333333 0  2.048695652173913 0.03333333333333333 0  2.05695652173913 0.03333333333333333 0  2.065217391304348 0.03333333333333333 0  2.073478260869565 0.03333333333333333 0  2.081739130434782 0.03333333333333333 0  2.09 0.03333333333333333 0  2.098260869565217 0.03333333333333333 0  2.106521739130435 0.03333333333333333 0  2.114782608695652 0.03333333333333333 0  2.12304347826087 0.03333333333333333 0  2.131304347826087 0.03333333333333333 0  2.139565217391304 0.03333333333333333 0  2.147826086956522 0.03333333333333333 0  2.156086956521739 0.03333333333333333 0  2.164347826086956 0.03333333333333333 0  2.172608695652174 0.03333333333333333 0  1.767826086956522 0.04166666666666666 0  1.776086956521739 0.04166666666666666 0  1.784347826086957 0.04166666666666666 0  1.792608695652174 0.04166666666666666 0  1.800869565217391 0.04166666666666666 0  1.809130434782608 0.04166666666666666 0  1.817391304347826 0.04166666666666666 0  1.825652173913043 0.04166666666666666 0  1.833913043478261 0.04166666666666666 0  1.842173913043478 0.04166666666666666 0  1.850434782608696 0.04166666666666666 0  1.858695652173913 0.04166666666666666 0  1.86695652173913 0.04166666666666666 0  1.875217391304348 0.04166666666666666 0  1.883478260869565 0.04166666666666666 0  1.891739130434782 0.04166666666666666 0  1.9 0.04166666666666666 0  1.908260869565217 0.04166666666666666 0  1.916521739130435 0.04166666666666666 0  1.924782608695652 0.04166666666666666 0  1.933043478260869 0.04166666666666666 0  1.941304347826087 0.04166666666666666 0  1.949565217391304 0.04166666666666666 0  1.957826086956522 0.04166666666666666 0  1.966086956521739 0.04166666666666666 0  1.974347826086956 0.04166666666666666 0  1.982608695652174 0.04166666666666666 0  1.9908
[...]
<PointData  Vectors="Displacement"> 
<DataArray  type="Float64"  Name="Displacement"  NumberOfComponents="3" format="ascii">2.4940803446366701e-04 1.4941770461136602e-03 0.0000000000000000e+00  2.4990839902445055e-04 1.5050509962366654e-03 0.0000000000000000e+00  2.3883384582508896e-04 1.5048833698628303e-03 0.0000000000000000e+00  2.5047766637143235e-04 1.5159666818161241e-03 0.0000000000000000e+00  2.3935086498447149e-04 1.5157785955576264e-03 0.0000000000000000e+00  2.5110904640995694e-04 1.5269624968560515e-03 0.0000000000000000e+00  2.3990646904856894e-04 1.5267550436345865e-03 0.0000000000000000e+00  2.5178545145286232e-04 1.5380710031001864e-03 0.0000000000000000e+00  2.4049512488329473e-04 1.5378486507081424e-03 0.0000000000000000e+00  2.5247784539201190e-04 1.5493107804817093e-03 0.0000000000000000e+00  2.4110447000734510e-04 1.5490823171316699e-03 0.0000000000000000e+00  2.5314901514060826e-04 1.5606725706745759e-03 0.0000000000000000e+00  2.4171811279241086e-04 1.5604497982478287e-03 0.0000000000000000e+00  2.5376902960438236e-04 1.5721017135349655e-03 0.0000000000000000e+00  2.4232732830040365e-04 1.5718920968747891e-03 0.0000000000000000e+00  2.5431970577121933e-04 1.5835256513018648e-03 0.0000000000000000e+00  2.4292464944033448e-04 1.5833362512498218e-03 0.0000000000000000e+00  2.5480965482627794e-04 1.5948471957582617e-03 0.0000000000000000e+00  2.4351490303457224e-04 1.5946725662529420e-03 0.0000000000000000e+00  2.5526717823678232e-04 1.6060058512701952e-03 0.0000000000000000e+00  2.4410566332237985e-04 1.6058365188851666e-03 0.0000000000000000e+00  2.5571971650969365e-04 1.6169923615936502e-03 0.0000000000000000e+00  2.4469891438758015e-04 1.6168224056720909e-03 0.0000000000000000e+00  2.5618586584710699e-04 1.6278232887827976e-03 0.0000000000000000e+00  2.4529493849582127e-04 1.6276490580398773e-03 0.0000000000000000e+00  2.5667536130802217e-04 1.6385266075760255e-03 0.0000000000000000e+00  2.4589449772325045e-04 1.6383462813705809e-03 0.0000000000000000e+00  2.5719059791742772e-04 1.6491324403576594e-03 0.0000000000000000e+00  2.4649830426603635e-04 1.6489458519378815e-03 0.0000000000000000e+00  2.5772890865741541e-04 1.6596665334776641e-03 0.0000000000000000e+00  2.4710654703433117e-04 1.6594745176918241e-03 0.0000000000000000e+00  2.5828485718580455e-04 1.6701475139918637e-03 0.0000000000000000e+00  2.4771893978468558e-04 1.6699513678476250e-03 0.0000000000000000e+00  2.5885188032815824e-04 1.6805864579732604e-03 0.0000000000000000e+00  2.4833484438078351e-04 1.6803876956477711e-03 0.0000000000000000e+00  2.5942350403024793e-04 1.6909870560030732e-03 0.0000000000000000e+00  2.4895349520058453e-04 1.6907871710151899e-03 0.0000000000000000e+00  2.5999443845391770e-04 1.7013463780053942e-03 0.0000000000000000e+00  2.4957435187448936e-04 1.7011465363978926e-03 0.0000000000000000e+00  2.6056141598053330e-04 1.7116566303909634e-03 0.0000000000000000e+00  2.5019738847269527e-04 1.7114574412111986e-03 0.0000000000000000e+00  2.6112342297595167e-04 1.7219077352196449e-03 0.0000000000000000e+00  2.5082306095679252e-04 1.7217092620855116e-03 0.0000000000000000e+00  2.6168125905237638e-04 1.7320898803965851e-03 0.0000000000000000e+00  2.5145195038028882e-04 1.7318918591453815e-03 0.0000000000000000e+00  2.6223682674446748e-04 1.7421951789852903e-03 0.0000000000000000e+00  2.5208442760489682e-04 1.7419972097482523e-03 0.0000000000000000e+00  2.6279255129391289e-04 1.7522184679183569e-03 0.0000000000000000e+00  2.5272057819801465e-04 1.7520200830575868e-03 0.0000000000000000e+00  2.6335096537760108e-04 1.7621576711688788e-03 0.0000000000000000e+00  2.5336029994885888e-04 1.7619583746915995e-03 0.0000000000000000e+00  2.6391436032436818e-04 1.7720137575153051e-03 0.0000000000000000e+00  2.5400342175086230e-04 1.7718130968002470e-03 0.0000000000000000e+00  2.6448451306083904e-04 1.7817902056490439e-03 0.0000000000000000e+00  2.5464977564357890e-04 1.7815878467909525e-03 0.0000000000000000e+00  2.6506257525465824e-04 1.7914921263109933e-03 0.0000000000000000e+00  2.5529922612900057e-04 1.7912878782033804e-03 0.0000000000000000e+00  2.6564914780438062e-04 1.8011253992132386e-03 0.0000000000000000e+00  2.5595168339514893e-04 1.8009191765808808e-03 0.0000000000000000e+00  2.6624444795997961e-04 1.8106961050083864e-03 0.0000000000000000e+00  2.5660711081654724e-04 1.8104878761441936e-03 0.0000000000000000e+00  2.6684844846977887e-04 1.8202102532559768e-03 0.0000000000000000e+00  2.5726551751505973e-04 1.8200000170902175e-03 0.0000000000000000e+00  2.6746095316978498e-04 1.8296736231977178e-03 0.0000000000000000e+00  2.5792693842642116e-04 1.8294614101429783e-03 0.0000000000000000e+00  2.6808164976056820e-04 1.8390916145622574e-03 0.0000000000000000e+00  2.5859141576064967e-04 1.8388774828489354e-03 0.0000000000000000e+00  2.6871017498931684e-04 1.8484691449165223e-03 0.0000000000000000e+00  2.5925899291936359e-04 1.8482531617225928e-03 0.0000000000000000e+00  2.6934617734568442e-04 1.8578106535660590e-03 0.0000000000000000e+00  2.5992971584663484e-04 1.8575928775834915e-03 0.0000000000000000e+00  2.6998934839593997e-04 1.8671201814568113e-03 0.0000000000000000e+00  2.6060363105522829e-04 1.8669006600045936e-03 0.0000000000000000e+00  2.7063942623986728e-04 1.8764014492458950e-03 0.0000000000000000e+00  2.6128078135639470e-04 1.8761802205464213e-03 0.0000000000000000e+00  2.7129619207573382e-04 1.8856579125198808e-03 0.0000000000000000e+00  2.6196120724037038e-04 1.8854350014570640e-03 0.0000000000000000e+00  2.7195946141091902e-04 1.8948928202031819e-03 0.0000000000000000e+00  2.6264495517873101e-04 1.8946682303254106e-03 0.0000000000000000e+00  2.7262905190579421e-04 1.9041092662164104e-03 0.0000000000000000e+00  2.6333209305943659e-04 1.9038829800311255e-03 0.0000000000000000e+00  2.7330470821998340e-04 1.9133101741469259e-03 0.0000000000000000e+00  2.6402272144809738e-04 1.9130821810999568e-03 0.0000000000000000e+00  2.7398600678128901e-04 1.9224981128177292e-03 0.0000000000000000e+00  2.6471696542591425e-04 1.9222684628130864e-03 0.0000000000000000e+00  2.7467232780860692e-04 1.9316749299869800e-03 0.0000000000000000e+00  2.6541494061344499e-04 1.9314437698139337e-03 0.0000000000000000e+00  2.7536299078955828e-04 1.9408414047708308e-03 0.0000000000000000e+00  2.6611671718484298e-04 1.9406089396846037e-03 0.0000000000000000e+00  2.7605752413780034e-04 1.9499972857308541e-03 0.0000000000000000e+00  2.6682230703641149e-04 1.9497636781318983e-03 0.0000000000000000e+00  2.7675588922262875e-04 1.9591418700485282e-03 0.0000000000000000e+00  2.6753166993418121e-04 1.9589071632972362e-03 0.0000000000000000e+00  2.7745850222475913e-04 1.9682748240331485e-03 0.0000000000000000e+00  2.6824471784725316e-04 1.9680389523323467e-03 0.0000000000000000e+00  2.7816608484691529e-04 1.9773967753793399e-03 0.0000000000000000e+00  2.6896131542466015e-04 1.9771596235656675e-03 0.0000000000000000e+00  2.7887949480261419e-04 1.9865095142023682e-03 0.0000000000000000e+00  2.6968128923664616e-04 1.9862709609881693e-03 0.0000000000000000e+00  2.7959962969560599e-04 1.9956159798638563e-03 0.0000000000000000e+00  2.7040444340811190e-04 1.9953759089856621e-03 0.0000000000000000e+00  2.2814996737400661e-04 1.5156010437542423e-03 0.0000000000000000e+00  2.2768171824322748e-04 1.5047255441906966e-03 0.0000000000000000e+00  2.2864386164378673e-04 1.5265548931310882e-03 0.0000000000000000e+00  2.2916744604557557e-04 1.5376275468547383e-03 0.0000000000000000e+00  2.2971846777047962e-04 1.5488506490705912e-03 0.0000000000000000e+00  2.3028871033174865e-04 1.5602238136353348e-03 0.0000000000000000e+00  2.3088898822914595e-04 1.5716723552329885e-03 0.0000000000000000e+00  2.3152540850352412e-04 1.5831360831138699e-03 0.0000000000000000e+00  2.3221072399500772e-04 1.5944778031472156e-03 0.0000000000000000e+00  2.3293638703184445e-04 1.6056348635118116e-03 0.0000000000000000e+00  2.3367374630457494e-04 1.6166156481422387e-03 0.0000000000000000e+00  2.3440061566691345e-04 1.6274388714471136e-03 0.0000000000000000e+00  2.3510904375484296e-04 1.6381330356587979e-03 0.0000000000000000e+00  2.3580018168170089e-04 1.6487304004375615e-03 0.0000000000000000e+00  2.3647797051764882e-04 1.6592576910309006e-03 0.0000000000000000e+00  2.3714706467986148e-04 1.6697335850931808e-03 0.0000000000000000e+00  2.3781221688486467e-04 1.6801693389638559e-03 0.0000000000000000e+00  2.3847785943014889e-04 1.6905686833454693e-03 0.0000000000000000e+00  2.3914791644898012e-04 1.7009280989993918e-03 0.0000000000000000e+00  2.3982572488800725e-04 1.7112386877181170e-03 0.0000000000000000e+00  2.4051371704418665e-04 1.7214894857401010e-03 0.0000000000000000e+00  2.4121280974489519e-04 1.7316705776159716e-03 0.0000000000000000e+00  2.4192209098838725e-04 1.7417744110538676e-03 0.0000000000000000e+00  2.4263918410866744e-04 1.7517960128465738e-03 0.0000000000000000e+00  2.4336102240837731e-04 1.7617332948573108e-03 0.0000000000000000e+00  2.4408464262447242e-04 1.7715872145788814e-03 0.0000000000000000e+00  2.4480774441129670e-04 1.7813613537786702e-03 0.0000000000000000e+00  2.4552888722454639e-04 1.7910609733342306e-03 0.0000000000000000e+00  2.4624736158728713e-04 1.8006920197834197e-03 0.0000000000000000e+00  2.4696293943299048e-04 1.8102605315959794e-03 0.0000000000000000e+00  2.4767569345345410e-04 1.8197724656937753e-03 0.0000000000000000e+00  2.4838590918447684e-04 1.8292336057701300e-03 0.0000000000000000e+00  2.4909401537748254e-04 1.8386493882669975e-03 0.0000000000000000e+00  2.4980049476225265e-04 1.8480247387209659e-03 0.0000000000000000e+00  2.5050580463328398e-04 1.8573640691123959e-03 0.0000000000000000e+00  2.5121034692712692e-04 1.8666713997181029e-03 0.0000000000000000e+00  2.5191447159937191e-04 1.8759504481681267e-03 0.0000000000000000e+00  2.5261848180729927e-04 1.8852046538855383e-03 0.0000000000000000e+00  2.5332264521737275e-04 1.8944372173166912e-03 0.0000000000000000e+00  2.5402723562248174e-04 1.9036511551245440e-03 0.0000000000000000e+00  2.5473263254419663e-04 1.9128493514256001e-03 0.0000000000000000e+00  2.5543945487969559e-04 1.9220344627297751e-03 0.0000000000000000e+00  2.5614860805150996e-04 1.9312085652392380e-03 0.0000000000000000e+00  2.5686109124609921e-04 1.9403726465122575e-03 0.0000000000000000e+00  2.5757758248162559e-04 1.9495264614761841e-03 0.0000000000000000e+00  2.5829808614514106e-04 1.9586691377502367e-03 0.0000000000000000e+00  2.5902191823158139e-04 1.9678001988354373e-03 0.0000000000000000e+00  2.5974797224043308e-04 1.9769202697288366e-03 0.0000000000000000e+00  2.6047498261614379e-04 1.9860312072156289e-03 0.0000000000000000e+00  2.6120164617049289e-04 1.9951359987104163e-03 0.0000000000000000e+00  2.6192665029820884e-04 2.0042387086659525e-03 0.0000000000000000e+00  2.1692151843138251e-04 1.5154370202525749e-03 0.0000000000000000e+00  2.1734421854855611e-04 1.5263603080664875e-03 0.0000000000000000e+00  2.1779217254017309e-04 1.5374024732660743e-03 0.0000000000000000e+00  2.1826719160334616e-04 1.5486108222662676e-03 0.0000000000000000e+00  2.1876756489633476e-04 1.5600014297774837e-03 0.0000000000000000e+00  2.1932389789735751e-04 1.5714447927124629e-03 0.0000000000000000e+00  2.1997713800642202e-04 1.5829192180567787e-03 0.0000000000000000e+00  2.2079713755257757e-04 1.5942418657655115e-03 0.0000000000000000e+00  2.2173817456080076e-04 1.6053803820335563e-03 0.0000000000000000e+00  2.2267728419622976e-04 1.6163614738620327e-03 0.0000000000000000e+00  2.2356155060673338e-04 1.6271929543160172e-03 0.0000000000000000e+00  2.2437682935130183e-04 1.6378913074430017e-03 0.0000000000000000e+00  2.2514239795246371e-04 1.6484910145356008e-03 0.0000000000000000e+00  2.2587543299354629e-04 1.6590207219845134e-03 0.0000000000000000e+00  2.2658727012822531e-04 1.6694983633354931e-03 0.0000000000000000e+00  2.2728850973250783e-04 1.6799349672587448e-03 0.0000000000000000e+00  2.2798965634331038e-04 1.6903344762408676e-03 0.0000000000000000e+00  2.2870016886186931e-04 1.7006931815111573e-03 0.0000000000000000e+00  2.2942753572522938e-04 1.7110014886066707e-03 0.0000000000000000e+00  2.3017651786423244e-04 1.7212481989635298e-03 0.0000000000000000e+00  2.3094826768116957e-04 1.7314244564049612e-03 0.0000000000000000e+00  2.3173992397525930e-04 1.7415242538700399e-03 0.0000000000000000e+00  2.3254535544763380e-04 1.7515434781261142e-03 0.0000000000000000e+00  2.3335681333499275e-04 1.7614800543676859e-03 0.0000000000000000e+00  2.3416700006270827e-04 1.7713345029532071e-03 0.0000000000000000e+00  2.3497067719512266e-04 1.7811098822412192e-03 0.0000000000000000e+00  2.3576528079605571e-04 1.7908110980606046e-03 0.0000000000000000e+00  2.3655024076468554e-04 1.8004439280596945e-03 0.0000000000000000e+00  2.3732577370118684e-04 1.8100142874981540e-03 0.0000000000000000e+00  2.3809222692303475e-04 1.8195279795960948e-03 0.0000000000000000e+00  2.3885020872883517e-04 1.8289906777988543e-03 0.0000000000000000e+00  2.3960070857317292e-04 1.8384077912285222e-03 0.0000000000000000e+00  2.4034490824973597e-04 1.8477842789672086e-03 0.0000000000000000e+00  2.4108381109736005e-04 1.8571245779342152e-03 0.0000000000000000e+00  2.4181813871020986e-04 1.8664327074623709e-03 0.0000000000000000e+00  2.4254850121381777e-04 1.8757124001710142e-03 0.0000000000000000e+00  2.4327545878214632e-04 1.8849671262992610e-03 0.0000000000000000e+00  2.4399944040736176e-04 1.8942000973415831e-03 0.0000000000000000e+00  2.4472075272375087e-04 1.9034142988588138e-03 0.0000000000000000e+00  2.4543969643343975e-04 1.9126124836046947e-03 0.0000000000000000e+00  2.4615708845571600e-04 1.9217971187783327e-03 0.0000000000000000e+00  2.4687482142921865e-04 1.9309701700118188e-03 0.0000000000000000e+00  2.4759582429636188e-04 1.9401327976132983e-03 0.0000000000000000e+00  2.4832264406650020e-04 1.9492851702051753e-03 0.0000000000000000e+00  2.4905571515240315e-04 1.9584267978194443e-03 0.0000000000000000e+00  2.4979307441142748e-04 1.9675573459703552e-03 0.0000000000000000e+00  2.5053173592578225e-04 1.9766774404076262e-03 0.0000000000000000e+00  2.5126893436665547e-04 1.9857889662374304e-03 0.0000000000000000e+00  2.5200222315309461e-04 1.9948949518275171e-03 0.0000000000000000e+00  2.5272922213056626e-04 2.0039994827808993e-03 0.0000000000000000e+00  2.5344751416865672e-04 2.0131077238418216e-03 0.0000000000000000e+00  2.0603636959459599e-04 1.5261863413029804e-03 0.0000000000000000e+00  2.0637322520231216e-04 1.5371906459872840e-03 0.0000000000000000e+00  2.0671548055563758e-04 1.5483909903555638e-03 0.0000000000000000e+00  2.0704700466453994e-04 1.5598197391090065e-03 0.0000000000000000e+00  2.0749816655600916e-04 1.5712751547835397e-03 0.0000000000000000e+00  2.0798173873270447e-04 1.5827166979953450e-03 0.0000000000000000e+00  2.0904645477231318e-04 1.5939855021239655e-03 0.0000000000000000e+00  2.1040950130625597e-04 1.6050716418630740e-03 0.0000000000000000e+00  2.1161135810044221e-04 1.6160476591572535e-03 0.0000000000000000e+00  2.1269946356902760e-04 1.6268966705215440e-03 0.0000000000000000e+00  2.1368382452411933e-04 1.6376197729241564e-03 0.0000000000000000e+00  2.1454831043396118e-04 1.6482370964432146e-03 0.0000000000000000e+00  2.1532387580570754e-04 1.6587767006445778e-03 0.0000000000000000e+00  2.1605050011905058e-04 1.6692599252663264e-03 0.0000000000000000e+00  2.1675486575393324e-04 1.6796986439603717e-03 0.0000000000000000e+00  2.1746094655548034e-04 1.6900973729732545e-03 0.0000000000000000e+00  2.1819210577026673e-04 1.7004531107045289e-03 0.0000000000000000e+00  2.1896584709859491e-04 1.7107565624090455e-03 0.0000000000000000e+00  2.1978688277292071e-04 1.7209967245568629e-03 0.0000000000000000e+00  2.2064614244714993e-04 1.7311656210720345e-03 0.0000000000000000e+00  2.2153014330897265e-04 1.7412587691276091e-03 0.0000000000000000e+00  2.2242792708363250e-04 1.7512733935570151e-03 0.0000000000000000e+00  2.2333003216339499e-04 1.7612080411010557e-03 0.0000000000000000e+00  2.2422756925847030e-04 1.7710630557553008e-03 0.0000000000000000e+00  2.2511346682355397e-04 1.7808407577048374e-03 0.0000000000000000e+00  2.2598380880184751e-04 1.7905451346567837e-03 0.0000000000000000e+00  2.2683770174925248e-04 1.8001813073845318e-03 0.0000000000000000e+00  2.2767574760301375e-04 1.8097549431339579e-03 0.0000000000000000e+00  2.2849862860939839e-04 1.8192717931363594e-03 0.0000000000000000e+00  2.2930707259903200e-04 1.8287374277213997e-03 0.0000000000000000e+00  2.3010237418699998e-04 1.8381571266752777e-03 0.0000000000000000e+00  2.3088636458024384e-04 1.8475357987383996e-03 0.0000000000000000e+00  2.3166075841089448e-04 1.8568779497169759e-03 0.0000000000000000e+00  2.3242672771033436e-04 1.8661876884026281e-03 0.0000000000000000e+00  2.3318511043167491e-04 1.8754687787482557e-03 0.0000000000000000e+00  2.3393671739943404e-04 1.8847247112632290e-03 0.0000000000000000e+00  2.3468223132957881e-04 1.8939587429832173e-03 0.0000000000000000e+00  2.3542213659477265e-04 1.9031738960085471e-03 0.0000000000000000e+00  2.3615684465722503e-04 1.9123729049121069e-03 0.0000000000000000e+00  2.3688733183205253e-04 1.9215580377568754e-03 0.0000000000000000e+00  2.3761603901963822e-04 1.9307308972577257e-03 0.0000000000000000e+00  2.3834700757759933e-04 1.9398923478547193e-03 0.0000000000000000e+00  2.3908409842827825e-04 1.9490427557369433e-03 0.0000000000000000e+00  2.3982839731206780e-04 1.9581823634105080e-03 0.0000000000000000e+00  2.4057749209249019e-04 1.9673116104205212e-03 0.0000000000000000e+00  2.4132716351034158e-04 1.9764314310183246e-03 0.0000000000000000e+00  2.4207328829773081e-04 1.9855436320853508e-03 0.0000000000000000e+00  2.4281231908461704e-04 1.9946511463317064e-03 0.0000000000000000e+00  2.4354086477960886e-04 2.0037580403785191e-03 0.0000000000000000e+00  2.4425543358663570e-04 2.0128694880536817e-03 0.0000000000000000e+00  2.4495236094798319e-04 2.0219917766984459e-03 0.0000000000000000e+00  1.9498696176215873e-04 1.5370049250691251e-03 0.0000000000000000e+00  1.9516323652542255e-04 1.5481941045425334e-03 0.0000000000000000e+00  1.9532076781608910e-04 1.5596724132585209e-03 0.0000000000000000e+00  1.9561168987873446e-04 1.5711477234841191e-03 0.0000000000000000e+00  1.9639153879613184e-04 1.5825549489672866e-03 0.0000000000000000e+00  1.9767461260825769e-04 1.5931670182592857e-03 0.0000000000000000e+00  1.9897384335529225e-04 1.6040562186331873e-03 0.0000000000000000e+00  2.0018595364938678e-04 1.6149932495374646e-03 0.0000000000000000e+00  2.0129606566239539e-04 1.6258478411417343e-03 0.0000000000000000e+00  2.0231273307997507e-04 1.6366008042909849e-03 0.0000000000000000e+00  2.0324386878636596e-04 1.6472601005532443e-03 0.0000000000000000e+00  2.0410389903542046e-04 1.6578345788243474e-03 0.0000000000000000e+00  2.0491403913457619e-04 1.6683374141234350e-03 0.0000000000000000e+00  2.0569560725107290e-04 1.6787802442844045e-03 0.0000000000000000e+00  2.0646754758967429e-04 1.6891681406224369e-03 0.0000000000000000e+00  2.0724597645583947e-04 1.6995006813231470e-03 0.0000000000000000e+00  2.0804237364177006e-04 1.7097741280999105e-03 0.0000000000000000e+00  2.0886169921451110e-04 1.7199842343391880e-03 0.0000000000000000e+00  2.0970255566116021e-04 1.7301278617199716e-03 0.0000000000000000e+00  2.1055974339714135e-04 1.7402021414195724e-03 0.0000000000000000e+00  2.1142694565997266e-04 1.7502043289376443e-03 0.0000000000000000e+00  2.1229787810531962e-04 1.7601328774909462e-03 0.0000000000000000e+00  2.1316668333851708e-04 1.7699877574116115e-03 0.0000000000000000e+00  2.1402844141602250e-04 1.7797702710134053e-03 0.0000000000000000e+00  2.1487966673336525e-04 1.7894829039105779e-03 0.0000000000000000e+00  2.1571841408878865e-04 1.7991292576799199e-03 0.0000000000000000e+00  2.1654394931109542e-04 1.8087138627639438e-03 0.0000000000000000e+00  2.1735628225011546e-04 1.8182417532374194e-03 0.0000000000000000e+00  2.1815588396099559e-04 1.8277179668084969e-03 0.0000000000000000e+00  2.1894359552726927e-04 1.8371473068658139e-03 0.0000000000000000e+