<?xml version="1.0"?>
<VTKFile type="UnstructuredGrid"  version="0.1"  >
<UnstructuredGrid>
<Piece  NumberOfPoints="2445" NumberOfCells="4647">
<Points>
<DataArray  type="Float64"  NumberOfComponents="3"  format="ascii">0 0 0  0.008260869565217391 0 0  0.008260869565217391 0.008333333333333333 0  0 0.008333333333333333 0  0.01652173913043478 0 0  0.01652173913043478 0.008333333333333333 0  0.02478260869565217 0 0  0.02478260869565217 0.008333333333333333 0  0.03304347826086956 0 0  0.03304347826086956 0.008333333333333333 0  0.04130434782608695 0 0  0.04130434782608695 0.008333333333333333 0  0.04956521739130434 0 0  0.04956521739130434 0.008333333333333333 0  0.05782608695652174 0 0  0.05782608695652174 0.008333333333333333 0  0.06608695652173913 0 0  0.06608695652173913 0.008333333333333333 0  0.07434782608695652 0 0  0.07434782608695652 0.008333333333333333 0  0.08260869565217391 0 0  0.08260869565217391 0.008333333333333333 0  0.0908695652173913 0 0  0.0908695652173913 0.008333333333333333 0  0.09913043478260869 0 0  0.09913043478260869 0.008333333333333333 0  0.1073913043478261 0 0  0.1073913043478261 0.008333333333333333 0  0.1156521739130435 0 0  0.1156521739130435 0.008333333333333333 0  0.1239130434782609 0 0  0.1239130434782609 0.008333333333333333 0  0.1321739130434783 0 0  0.1321739130434783 0.008333333333333333 0  0.1404347826086956 0 0  0.1404347826086956 0.008333333333333333 0  0.148695652173913 0 0  0.148695652173913 0.008333333333333333 0  0.1569565217391304 0 0  0.1569565217391304 0.008333333333333333 0  0.1652173913043478 0 0  0.1652173913043478 0.008333333333333333 0  0.1734782608695652 0 0  0.1734782608695652 0.008333333333333333 0  0.1817391304347826 0 0  0.1817391304347826 0.008333333333333333 0  0.19 0 0  0.19 0.008333333333333333 0  0.1982608695652174 0 0  0.1982608695652174 0.008333333333333333 0  0.2065217391304348 0 0  0.2065217391304348 0.008333333333333333 0  0.2147826086956522 0 0  0.2147826086956522 0.008333333333333333 0  0.2230434782608696 0 0  0.2230434782608696 0.008333333333333333 0  0.2313043478260869 0 0  0.2313043478260869 0.008333333333333333 0  0.2395652173913043 0 0  0.2395652173913043 0.008333333333333333 0  0.2478260869565218 0 0  0.2478260869565218 0.008333333333333333 0  0.2560869565217391 0 0  0.2560869565217391 0.008333333333333333 0  0.2643478260869565 0 0  0.2643478260869565 0.008333333333333333 0  0.2726086956521739 0 0  0.2726086956521739 0.008333333333333333 0  0.2808695652173913 0 0  0.2808695652173913 0.008333333333333333 0  0.2891304347826087 0 0  0.2891304347826087 0.008333333333333333 0  0.2973913043478261 0 0  0.2973913043478261 0.008333333333333333 0  0.3056521739130434 0 0  0.3056521739130434 0.008333333333333333 0  0.3139130434782609 0 0  0.3139130434782609 0.008333333333333333 0  0.3221739130434783 0 0  0.3221739130434783 0.008333333333333333 0  0.3304347826086956 0 0  0.3304347826086956 0.008333333333333333 0  0.338695652173913 0 0  0.338695652173913 0.008333333333333333 0  0.3469565217391304 0 0  0.3469565217391304 0.008333333333333333 0  0.3552173913043478 0 0  0.3552173913043478 0.008333333333333333 0  0.3634782608695652 0 0  0.3634782608695652 0.008333333333333333 0  0.3717391304347826 0 0  0.3717391304347826 0.008333333333333333 0  0.3799999999999999 0 0  0.3799999999999999 0.008333333333333333 0  0.3882608695652174 0 0  0.3882608695652174 0.008333333333333333 0  0.3965217391304348 0 0  0.3965217391304348 0.008333333333333333 0  0.4047826086956521 0 0  0.4047826086956521 0.008333333333333333 0  0.4130434782608696 0 0  0.4130434782608696 0.008333333333333333 0  0.4213043478260869 0 0  0.4213043478260869 0.008333333333333333 0  0.4295652173913043 0 0  0.4295652173913043 0.008333333333333333 0  0.4378260869565217 0 0  0.4378260869565217 0.008333333333333333 0  0.4460869565217391 0 0  0.4460869565217391 0.008333333333333333 0  0.4543478260869565 0 0  0.4543478260869565 0.008333333333333333 0  0.4626086956521739 0 0  0.4626086956521739 0.008333333333333333 0  0.4708695652173913 0 0  0.4708695652173913 0.008333333333333333 0  0.4791304347826086 0 0  0.4791304347826086 0.008333333333333333 0  0.4873913043478261 0 0  0.4873913043478261 0.008333333333333333 0  0.4956521739130435 0 0  0.4956521739130435 0.008333333333333333 0  0.5039130434782608 0 0  0.5039130434782608 0.008333333333333333 0  0.5121739130434783 0 0  0.5121739130434783 0.008333333333333333 0  0.5204347826086956 0 0  0.5204347826086956 0.008333333333333333 0  0.528695652173913 0 0  0.528695652173913 0.008333333333333333 0  0.5369565217391304 0 0  0.5369565217391304 0.008333333333333333 0  0.5452173913043478 0 0  0.5452173913043478 0.008333333333333333 0  0.5534782608695652 0 0  0.5534782608695652 0.008333333333333333 0  0.5617391304347825 0 0  0.5617391304347825 0.008333333333333333 0  0.57 0 0  0.57 0.008333333333333333 0  0.5782608695652174 0 0  0.5782608695652174 0.008333333333333333 0  0.5865217391304348 0 0  0.5865217391304348 0.008333333333333333 0  0.5947826086956521 0 0  0.5947826086956521 0.008333333333333333 0  0.6030434782608696 0 0  0.6030434782608696 0.008333333333333333 0  0.6113043478260869 0 0  0.6113043478260869 0.008333333333333333 0  0.6195652173913043 0 0  0.6195652173913043 0.008333333333333333 0  0.6278260869565218 0 0  0.6278260869565218 0.008333333333333333 0  0.6360869565217391 0 0  0.6360869565217391 0.008333333333333333 0  0.6443478260869565 0 0  0.6443478260869565 0.008333333333333333 0  0.6526086956521739 0 0  0.6526086956521739 0.008333333333333333 0  0.6608695652173913 0 0  0.6608695652173913 0.008333333333333333 0  0.6691304347826087 0 0  0.6691304347826087 0.008333333333333333 0  0.677391304347826 0 0  0.677391304347826 0.008333333333333333 0  0.6856521739130435 0 0  0.6856521739130435 0.008333333333333333 0  0.6939130434782609 0 0  0.6939130434782609 0.008333333333333333 0  0.7021739130434783 0 0  0.7021739130434783 0.008333333333333333 0  0.7104347826086956 0 0  0.7104347826086956 0.008333333333333333 0  0.718695652173913 0 0  0.718695652173913 0.008333333333333333 0  0.7269565217391304 0 0  0.7269565217391304 0.008333333333333333 0  0.7352173913043478 0 0  0.7352173913043478 0.008333333333333333 0  0.7434782608695653 0 0  0.7434782608695653 0.008333333333333333 0  0.7517391304347827 0 0  0.7517391304347827 0.008333333333333333 0  0.7599999999999999 0 0  0.7599999999999999 0.008333333333333333 0  0.008260869565217391 0.01666666666666667 0  0 0.01666666666666667 0  0.01652173913043478 0.01666666666666667 0  0.02478260869565217 0.01666666666666667 0  0.03304347826086956 0.01666666666666667 0  0.04130434782608695 0.01666666666666667 0  0.04956521739130434 0.01666666666666667 0  0.05782608695652174 0.01666666666666667 0  0.06608695652173913 0.01666666666666667 0  0.07434782608695652 0.01666666666666667 0  0.08260869565217391 0.01666666666666667 0  0.0908695652173913 0.01666666666666667 0  0.09913043478260869 0.01666666666666667 0  0.1073913043478261 0.01666666666666667 0  0.1156521739130435 0.01666666666666667 0  0.1239130434782609 0.01666666666666667 0  0.1321739130434783 0.01666666666666667 0  0.1404347826086956 0.01666666666666667 0  0.148695652173913 0.01666666666666667 0  0.1569565217391304 0.01666666666666667 0  0.1652173913043478 0.01666666666666667 0  0.1734782608695652 0.01666666666666667 0  0.1817391304347826 0.01666666666666667 0  0.19 0.01666666666666667 0  0.1982608695652174 0.01666666666666667 0  0.2065217391304348 0.01666666666666667 0  0.2147826086956522 0.01666666666666667 0  0.2230434782608696 0.01666666666666667 0  0.2313043478260869 0.01666666666666667 0  0.2395652173913043 0.01666666666666667 0  0.2478260869565218 0.01666666666666667 0  0.2560869565217391 0.01666666666666667 0  0.2643478260869565 0.01666666666666667 0  0.2726086956521739 0.01666666666666667 0  0.2808695652173913 0.01666666666666667 0  0.2891304347826087 0.01666666666666667 0  0.2973913043478261 0.01666666666666667 0  0.3056521739130434 0.01666666666666667 0  0.3139130434782609 0.01666666666666667 0  0.3221739130434783 0.01666666666666667 0  0.3304347826086956 0.01666666666666667 0  0.338695652173913 0.01666666666666667 0  0.3469565217391304 0.01666666666666667 0  0.3552173913043478 0.01666666666666667 0  0.3634782608695652 0.01666666666666667 0  0.3717391304347826 0.01666666666666667 0  0.3799999999999999 0.01666666666666667 0  0.3882608695652174 0.01666666666666667 0  0.3965217391304348 0.01666666666666667 0  0.4047826086956521 0.01666666666666667 0  0.4130434782608696 0.01666666666666667 0  0.4213043478260869 0.01666666666666667 0  0.4295652173913043 0.01666666666666667 0  0.4378260869565217 0.01666666666666667 0  0.4460869565217391 0.01666666666666667 0  0.4543478260869565 0.01666666666666667 0  0.4626086956521739 0.01666666666666667 0  0.4708695652173913 0.01666666666666667 0  0.4791304347826086 0.01666666666666667 0  0.4873913043478261 0.01666666666666667 0  0.4956521739130435 0.01666666666666667 0  0.5039130434782608 0.01666666666666667 0  0.5121739130434783 0.01666666666666667 0  0.5204347826086956 0.01666666666666667 0  0.528695652173913 0.01666666666666667 0  0.5369565217391304 0.01666666666666667 0  0.5452173913043478 0.01666666666666667 0  0.5534782608695652 0.01666666666666667 0  0.5617391304347825 0.01666666666666667 0  0.57 0.01666666666666667 0  0.5782608695652174 0.01666666666666667 0  0.5865217391304348 0.01666666666666667 0  0.5947826086956521 0.01666666666666667 0  0.6030434782608696 0.01666666666666667 0  0.6113043478260869 0.01666666666666667 0  0.6195652173913043 0.01666666666666667 0  0.6278260869565218 0.01666666666666667 0  0.6360869565217391 0.01666666666666667 0  0.6443478260869565 0.01666666666666667 0  0.6526086956521739 0.01666666666666667 0  0.6608695652173913 0.01666666666666667 0  0.6691304347826087 0.01666666666666667 0  0.677391304347826 0.01666666666666667 0  0.6856521739130435 0.01666666666666667 0  0.6939130434782609 0.01666666666666667 0  0.7021739130434783 0.01666666666666667 0  0.7104347826086956 0.01666666666666667 0  0.718695
[...]
<PointData  Vectors="Displacement"> 
<DataArray  type="Float64"  Name="Displacement"  NumberOfComponents="3" format="ascii">0.0000000000000000e+00 0.0000000000000000e+00 0.0000000000000000e+00  3.4525898688801344e-06 1.9158454183679470e-06 0.0000000000000000e+00  2.4157386966183033e-06 1.0511101552086633e-06 0.0000000000000000e+00  0.0000000000000000e+00 0.0000000000000000e+00 0.0000000000000000e+00  6.4929547328797573e-06 3.3750534978403442e-06 0.0000000000000000e+00  5.0441817136076995e-06 2.4709913057240610e-06 0.0000000000000000e+00  9.4512533887546822e-06 5.0351474230283333e-06 0.0000000000000000e+00  7.6189548374306381e-06 4.1311711871584275e-06 0.0000000000000000e+00  1.2396684508985019e-05 7.0451246105994552e-06 0.0000000000000000e+00  1.0151996876696051e-05 6.1418573742585163e-06 0.0000000000000000e+00  1.5348865885985799e-05 9.4666115896054318e-06 0.0000000000000000e+00  1.2661393760194697e-05 8.5626120268663192e-06 0.0000000000000000e+00  1.8315632024870872e-05 1.2333919474744699e-05 0.0000000000000000e+00  1.5159535271117152e-05 1.1427649085090182e-05 0.0000000000000000e+00  2.1302192737959690e-05 1.5671689050770573e-05 0.0000000000000000e+00  1.7654659187918210e-05 1.4761701323634148e-05 0.0000000000000000e+00  2.4313109396184086e-05 1.9501844022053425e-05 0.0000000000000000e+00  2.0152171363162371e-05 1.8587002631402563e-05 0.0000000000000000e+00  2.7353171482098971e-05 2.3845399118539897e-05 0.0000000000000000e+00  2.2656070731680612e-05 2.2924531462150455e-05 0.0000000000000000e+00  3.0428042693951673e-05 2.8724325278033714e-05 0.0000000000000000e+00  2.5169843731810773e-05 2.7796008141138442e-05 0.0000000000000000e+00  3.3544139550522914e-05 3.4163947611648863e-05 0.0000000000000000e+00  2.7696450794714363e-05 3.3226694477571333e-05 0.0000000000000000e+00  3.6707783783082462e-05 4.0194768632357159e-05 0.0000000000000000e+00  3.0237693222270110e-05 3.9247469394931580e-05 0.0000000000000000e+00  3.9925520012858540e-05 4.6851404710929167e-05 0.0000000000000000e+00  3.2794949889063224e-05 4.5892678028152253e-05 0.0000000000000000e+00  4.3203718084194245e-05 5.4175325787920237e-05 0.0000000000000000e+00  3.5368817408271093e-05 5.3203756707620838e-05 0.0000000000000000e+00  4.6546524891559570e-05 6.2217248894668131e-05 0.0000000000000000e+00  3.7957743161265155e-05 6.1232151031442709e-05 0.0000000000000000e+00  4.9954878304403040e-05 7.1034545820419865e-05 0.0000000000000000e+00  4.0558806313777743e-05 7.0035138909821433e-05 0.0000000000000000e+00  5.3419646193857983e-05 8.0698423077275300e-05 0.0000000000000000e+00  4.3162236808914740e-05 7.9687772872897921e-05 0.0000000000000000e+00  5.6921868111254810e-05 9.1274812838221015e-05 0.0000000000000000e+00  4.5756555045540359e-05 9.0255789259221966e-05 0.0000000000000000e+00  6.0420970066830047e-05 1.0283702210993027e-04 0.0000000000000000e+00  4.8318426427967143e-05 1.0182164713721614e-04 0.0000000000000000e+00  6.3860707191056056e-05 1.1541705535051227e-04 0.0000000000000000e+00  5.0824798665576829e-05 1.1441736173158654e-04 0.0000000000000000e+00  6.7158564651150486e-05 1.2902703610494348e-04 0.0000000000000000e+00  5.3236244143347184e-05 1.2806881603444456e-04 0.0000000000000000e+00  7.0228160305539438e-05 1.4358289750274688e-04 0.0000000000000000e+00  5.5522180157541535e-05 1.4268715723910714e-04 0.0000000000000000e+00  7.2995168196218294e-05 1.5893114334621794e-04 0.0000000000000000e+00  5.7660685760122821e-05 1.5811765044580767e-04 0.0000000000000000e+00  7.5402768530231392e-05 1.7486601797038305e-04 0.0000000000000000e+00  5.9627643804282140e-05 1.7415399589997444e-04 0.0000000000000000e+00  7.7436666841325602e-05 1.9112946437971912e-04 0.0000000000000000e+00  6.1413315810828446e-05 1.9051965115532402e-04 0.0000000000000000e+00  7.9132124369062914e-05 2.0748383038700428e-04 0.0000000000000000e+00  6.3029988877318609e-05 2.0695933168378932e-04 0.0000000000000000e+00  8.0538185878371838e-05 2.2377994279844949e-04 0.0000000000000000e+00  6.4490276771659032e-05 2.2332859093377128e-04 0.0000000000000000e+00  8.1693284406384747e-05 2.3992059585915734e-04 0.0000000000000000e+00  6.5799070087932418e-05 2.3953759070930120e-04 0.0000000000000000e+00  8.2630483395434480e-05 2.5582408025207954e-04 0.0000000000000000e+00  6.6960388786270480e-05 2.5550355241064427e-04 0.0000000000000000e+00  8.3392498820239661e-05 2.7142000316661766e-04 0.0000000000000000e+00  6.7991092065806808e-05 2.7114772625526866e-04 0.0000000000000000e+00  8.4027678584274005e-05 2.8667712770419129e-04 0.0000000000000000e+00  6.8916854097139803e-05 2.8643701612862405e-04 0.0000000000000000e+00  8.4566048436433836e-05 3.0161547608514291e-04 0.0000000000000000e+00  6.9750716718120699e-05 3.0140302033341789e-04 0.0000000000000000e+00  8.5017639827556052e-05 3.1625507783698110e-04 0.0000000000000000e+00  7.0496274164998332e-05 3.1607101790707959e-04 0.0000000000000000e+00  8.5388835960406275e-05 3.3059571312707452e-04 0.0000000000000000e+00  7.1159848104033360e-05 3.3043786872442854e-04 0.0000000000000000e+00  8.5690439657113153e-05 3.4463291878904587e-04 0.0000000000000000e+00  7.1752369581422202e-05 3.4449635065765273e-04 0.0000000000000000e+00  8.5931075165427323e-05 3.5837474591415960e-04 0.0000000000000000e+00  7.2281188601573115e-05 3.5825747034793221e-04 0.0000000000000000e+00  8.6114358499267188e-05 3.7182952769282781e-04 0.0000000000000000e+00  7.2749617861708266e-05 3.7173163536370087e-04 0.0000000000000000e+00  8.6243251258176463e-05 3.8499808086221417e-04 0.0000000000000000e+00  7.3160904254984622e-05 3.8491907960631672e-04 0.0000000000000000e+00  8.6325889062620627e-05 3.9787493228249306e-04 0.0000000000000000e+00  7.3522340210842711e-05 3.9781157578305348e-04 0.0000000000000000e+00  8.6376827442968311e-05 4.1045767277070918e-04 0.0000000000000000e+00  7.3845342412736005e-05 4.1040453783758969e-04 0.0000000000000000e+00  8.6412683453463446e-05 4.2275481866277766e-04 0.0000000000000000e+00  7.4141675217901496e-05 4.2270700430518048e-04 0.0000000000000000e+00  8.6449824904472351e-05 4.3478072762568828e-04 0.0000000000000000e+00  7.4422981219299944e-05 4.3473376058249155e-04 0.0000000000000000e+00  8.6505669249215859e-05 4.4655154224258216e-04 0.0000000000000000e+00  7.4702341625574825e-05 4.4650028418961483e-04 0.0000000000000000e+00  8.6599946669003972e-05 4.5808666834176747e-04 0.0000000000000000e+00  7.4994713370360797e-05 4.5802518765355137e-04 0.0000000000000000e+00  8.6755353425054093e-05 4.6941004285013248e-04 0.0000000000000000e+00  7.5317120734608750e-05 4.6933146434192084e-04 0.0000000000000000e+00  8.6997673512670257e-05 4.8055198636938674e-04 0.0000000000000000e+00  7.5688543241897129e-05 4.8044847326846957e-04 0.0000000000000000e+00  8.7355008822812672e-05 4.9155170040680884e-04 0.0000000000000000e+00  7.6129193626027066e-05 4.9141472850225854e-04 0.0000000000000000e+00  8.7855978041522111e-05 5.0245961293363323e-04 0.0000000000000000e+00  7.6659252270520960e-05 5.0228045283689669e-04 0.0000000000000000e+00  8.8526705525741750e-05 5.1333925559305955e-04 0.0000000000000000e+00  7.7297044315716558e-05 5.1310971174911124e-04 0.0000000000000000e+00  8.9386283549544373e-05 5.2426797211478464e-04 0.0000000000000000e+00  7.8056638657186461e-05 5.2398149681078454e-04 0.0000000000000000e+00  9.0440435406147966e-05 5.3533496005147359e-04 0.0000000000000000e+00  7.8944941371471546e-05 5.3498835387104306e-04 0.0000000000000000e+00  9.1673462930404799e-05 5.4663435814898600e-04 0.0000000000000000e+00  7.9958231855195249e-05 5.4623034321887767e-04 0.0000000000000000e+00  9.3039689126894778e-05 5.5825010587019211e-04 0.0000000000000000e+00  8.1078357356839417e-05 5.5780099309725819e-04 0.0000000000000000e+00  9.4457441049599519e-05 5.7022788775503493e-04 0.0000000000000000e+00  8.2269578140403750e-05 5.6976162370786542e-04 0.0000000000000000e+00  9.5822882217497303e-05 5.8252749125338444e-04 0.0000000000000000e+00  8.3480447112964024e-05 5.8208334166899047e-04 0.0000000000000000e+00  9.7079039478700592e-05 5.9496387549456931e-04 0.0000000000000000e+00  8.4690324455860403e-05 5.9455162074412138e-04 0.0000000000000000e+00  9.8238057863691828e-05 6.0734580681116933e-04 0.0000000000000000e+00  8.5907588908109997e-05 6.0695177250291656e-04 0.0000000000000000e+00  9.9335400811197163e-05 6.1957831573199531e-04 0.0000000000000000e+00  8.7135927646465731e-05 6.1919323598983182e-04 0.0000000000000000e+00  1.0039999882380155e-04 6.3162158491370088e-04 0.0000000000000000e+00  8.8371914140779076e-05 6.3124134477412315e-04 0.0000000000000000e+00  1.0145249567083007e-04 6.4345917125314966e-04 0.0000000000000000e+00  8.9611981325432677e-05 6.4308022552998941e-04 0.0000000000000000e+00  1.0250688279121208e-04 6.5509367685553010e-04 0.0000000000000000e+00  9.0853824379550063e-05 6.5471338239556770e-04 0.0000000000000000e+00  1.0357044748500014e-04 6.6653956653767393e-04 0.0000000000000000e+00  9.2096023064189292e-05 6.6615696667236672e-04 0.0000000000000000e+00  1.0464535748621993e-04 6.7781333006805609e-04 0.0000000000000000e+00  9.3337876284518855e-05 6.7742845157660954e-04 0.0000000000000000e+00  1.0573125307203123e-04 6.8892898359177476e-04 0.0000000000000000e+00  9.4579304312337079e-05 6.8854199588814851e-04 0.0000000000000000e+00  1.0682683219442920e-04 6.9989801363385762e-04 0.0000000000000000e+00  9.5820610150836350e-05 6.9950906498488982e-04 0.0000000000000000e+00  1.0793030229477220e-04 7.1072965229264915e-04 0.0000000000000000e+00  9.7062240523871639e-05 7.1033899138905313e-04 0.0000000000000000e+00  1.0903953334803744e-04 7.2143041523065412e-04 0.0000000000000000e+00  9.8304650947403740e-05 7.2103842664442879e-04 0.0000000000000000e+00  1.1015234739173369e-04 7.3200369815243219e-04 0.0000000000000000e+00  9.9548240202251349e-05 7.3161082094499107e-04 0.0000000000000000e+00  1.1126689271377678e-04 7.4245000780609829e-04 0.0000000000000000e+00  1.0079331536658092e-04 7.4205662140857970e-04 0.0000000000000000e+00  1.1238191348968996e-04 7.5276779258313812e-04 0.0000000000000000e+00  1.0204007749071674e-04 7.5237414391711899e-04 0.0000000000000000e+00  1.1349681021857233e-04 7.6295449615456767e-04 0.0000000000000000e+00  1.0328862217501273e-04 7.6256069594256336e-04 0.0000000000000000e+00  1.1461152806433990e-04 7.7300744368759646e-04 0.0000000000000000e+00  1.0453894940863752e-04 7.7261350743085375e-04 0.0000000000000000e+00  1.1572638787430312e-04 7.8292439680019237e-04 0.0000000000000000e+00  1.0579098002361306e-04 7.8253028618919282e-04 0.0000000000000000e+00  1.1684194930662689e-04 7.9270385033220067e-04 0.0000000000000000e+00  1.0704457834277112e-04 7.9230949116028914e-04 0.0000000000000000e+00  1.1795891932097630e-04 8.0234521452273962e-04 0.0000000000000000e+00  1.0829957882973482e-04 8.0195049946442702e-04 0.0000000000000000e+00  1.1907807192507699e-04 8.1184893995829490e-04 0.0000000000000000e+00  1.0955581187069423e-04 8.1145373649617986e-04 0.0000000000000000e+00  1.2020015632959771e-04 8.2121654349711585e-04 0.0000000000000000e+00  1.1081312402022402e-04 8.2082071446650895e-04 0.0000000000000000e+00  1.2132580742516943e-04 8.3045048870592126e-04 0.0000000000000000e+00  1.1207139116316175e-04 8.3005391557382680e-04 0.0000000000000000e+00  1.2245548748298870e-04 8.3955394589153376e-04 0.0000000000000000e+00  1.1333052535474235e-04 8.3915654231660718e-04 0.0000000000000000e+00  1.2358947150025519e-04 8.4853051144463871e-04 0.0000000000000000e+00  1.1459047661825174e-04 8.4813222436917063e-04 0.0000000000000000e+00  1.2472786482710353e-04 8.5738395740583883e-04 0.0000000000000000e+00  1.1585123048302516e-04 8.5698476175775017e-04 0.0000000000000000e+00  1.2587063385980279e-04 8.6611803665713981e-04 0.0000000000000000e+00  1.1711280222689360e-04 8.6571792962790233e-04 0.0000000000000000e+00  1.2701763793267342e-04 8.7473633738712375e-04 0.0000000000000000e+00  1.1837522973061908e-04 8.7433533384965458e-04 0.0000000000000000e+00  1.2816865887305262e-04 8.8324217674515249e-04 0.0000000000000000e+00  1.1963856628633751e-04 8.8284030560016884e-04 0.0000000000000000e+00  1.2932342839678209e-04 8.9163852803935577e-04 0.0000000000000000e+00  1.2090287357855238e-04 8.9123582928201490e-04 0.0000000000000000e+00  1.3048165498586101e-04 8.9992797920505777e-04 0.0000000000000000e+00  1.2216821448371554e-04 8.9952450094255563e-04 0.0000000000000000e+00  1.3164305261688207e-04 9.0811272467444272e-04 0.0000000000000000e+00  1.2343464612250919e-04 9.0770851795827091e-04 0.0000000000000000e+00  1.3280737079286511e-04 9.1619459799352368e-04 0.0000000000000000e+00  1.2470221543248386e-04 9.1578970857555551e-04 0.0000000000000000e+00  1.3397441728543082e-04 9.2417514851685513e-04 0.0000000000000000e+00  1.2597095790040270e-04 9.2376961024946908e-04 0.0000000000000000e+00  1.3514406411259305e-04 9.3205574074649896e-04 0.0000000000000000e+00  1.2724089745734909e-04 9.3164957536759916e-04 0.0000000000000000e+00  1.3631623906282871e-04 9.3983764040146515e-04 0.0000000000000000e+00  1.2851204662669711e-04 9.3943086155175756e-04 0.0000000000000000e+00  1.3749091396879644e-04 9.4752207268391023e-04 0.0000000000000000e+00  1.2978440697501619e-04 9.4711468923908886e-04 0.0000000000000000e+00  1.8405512966092460e-06 6.1471140731473817e-07 0.0000000000000000e+00  0.0000000000000000e+00 0.0000000000000000e+00 0.0000000000000000e+00  3.8540145009105278e-06 1.7929137914960786e-06 0.0000000000000000e+00  5.9227371120500715e-06 3.3969651626654866e-06 0.0000000000000000e+00  7.9769180437664506e-06 5.3982615720883188e-06 0.0000000000000000e+00  1.0005889125174160e-05 7.8205219472346934e-06 0.0000000000000000e+00  1.2012554235889374e-05 1.0688511233200924e-05 0.0000000000000000e+00  1.4001332726155706e-05 1.4024884984445205e-05 0.0000000000000000e+00  1.5974710056265795e-05 1.7852443606670750e-05 0.0000000000000000e+00  1.7933920243488239e-05 2.2191950739873278e-05 0.0000000000000000e+00  1.9879822147907964e-05 2.7064516688399829e-05 0.0000000000000000e+00  2.1812361457873642e-05 3.2495498325903965e-05 0.0000000000000000e+00  2.3729021831255797e-05 3.8517162362632146e-05 0.0000000000000000e+00  2.5627099641622312e-05 4.5162364393822434e-05 0.0000000000000000e+00  2.7503702251932211e-05 5.2471708657450619e-05 0.0000000000000000e+00  2.9353810043800640e-05 6.0497437142066862e-05 0.0000000000000000e+00  3.1175004534650838e-05 6.9292262705979231e-05 0.0000000000000000e+00  3.2957369770312903e-05 7.8939768465360665e-05 0.0000000000000000e+00  3.4699626990096209e-05 8.9494196755143625e-05 0.0000000000000000e+00  3.6387742814045865e-05 1.0105861816575531e-04 0.0000000000000000e+00  3.8032307966103246e-05 1.1364741650508913e-04 0.0000000000000000e+00  3.9619146072846074e-05 1.2732807235856110e-04 0.0000000000000000e+00  4.1160415278105990e-05 1.4198087996522365e-04 0.0000000000000000e+00  4.2692285804479500e-05 1.5745239489863659e-04 0.0000000000000000e+00  4.4230034284206931e-05 1.7356132350024092e-04 0.0000000000000000e+00  4.5765827258879759e-05 1.8999846549026179e-04 0.0000000000000000e+00  4.7291259316216651e-05 2.0647326757971155e-04 0.0000000000000000e+00  4.8787317183931090e-05 2.2286871487217199e-04 0.0000000000000000e+00  5.0230178657549507e-05 2.3911966628122931e-04 0.0000000000000000e+00  5.1588923102974378e-05 2.5513978583060413e-04 0.0000000000000000e+00  5.2851468436353894e-05 2.7081949859829232e-04 0.0000000000000000e+00  5.4036040984601877e-05 2.8611746092268913e-04 0.0000000000000000e+00  5.5144745462464672e-05 3.0110038781628950e-04 0.0000000000000000e+00  5.6166541154918718e-05 3.1579953829403024e-04 0.0000000000000000e+00  5.7102851667239760e-05 3.3019532849884470e-04 0.0000000000000000e+00  5.7968917399868398e-05 3.4427138324098674e-04 0.0000000000000000e+00  5.8772595405851039e-05 3.5805006775726063e-04 0.0000000000000000e+00  5.9513191142567124e-05 3.7154703888501539e-04 0.0000000000000000e+00  6.0189239026378791e-05 3.8476031114295244e-04 0.0000000000000000e+00  6.0805869062145867e-05 3.9767461323380509e-04 0.0000000000000000e+00  6.1373953227089191e-05 4.1028156518680222e-04 0.0000000000000000e+00  6.1901681170425948e-05 4.2259470119386636e-04 0.0000000000000000e+00  6.2394994878468602e-05 4.3463075106258737e-04 0.0000000000000000e+00  6.2861763107729601e-05 4.4640347133361889e-04 0.0000000000000000e+00  6.3312006599643649e-05 4.5793039532018181e-04 0.0000000000000000e+00  6.3757836644500878e-05 4.6923314679340658e-04 0.0000000000000000e+00  6.4213471410552863e-05 4.8033944749622512e-04 0.0000000000000000e+00  6.4694674191258188e-05 4.9128634225171640e-04 0.0000000000000000e+00  6.5217996031887525e-05 5.0212271459857565e-04 0.0000000000000000e+00  6.5799894116828236e-05 5.1291153598339852e-04 0.0000000000000000e+00  6.6455682424841218e-05 5.2373132544414802e-04 0.0000000000000000e+00  6.7198452152048010e-05 5.3467559986983238e-04 0.0000000000000000e+00  6.8037687754940685e-05 5.4584920302228762e-04 0.0000000000000000e+00  6.8975316007775350e-05 5.5735819280950663e-04 0.0000000000000000e+00  6.9997458131857267e-05 5.6928975879093607e-04 0.0000000000000000e+00  7.1084562947616988e-05 5.8165316980722233e-04 0.0000000000000000e+00  7.2258381405011129e-05 5.9415572558982365e-04 0.0000000000000000e+00  7.3542393477481617e-05 6.0654474508849111e-04 0.0000000000000000e+00  7.4912507245642235e-05 6.1876907318951372e-04 0.0000000000000000e+00  7.6330536215057907e-05 6.3080894237111361e-04 0.0000000000000000e+00  7.7767380052125868e-05 6.4264387984998902e-04 0.0000000000000000e+00  7.9201871932600343e-05 6.5427443633518786e-04 0.0000000000000000e+00  8.0624149970188834e-05 6.6571718580086658e-04 0.0000000000000000e+00  8.2032761083842708e-05 6.7698947604847507e-04 0.0000000000000000e+00  8.3429052961790081e-05 6.8810422590971816e-04 0.0000000000000000e+00  8.4815097993569727e-05 6.9907207962416795e-04 0.0000000000000000e+00  8.6193602584566940e-05 7.0990227336106197e-04 0.0000000000000000e+00  8.7567791452994176e-05 7.2060162972649813e-04 0.0000000000000000e+00  8.8940910318802569e-05 7.3117374988956494e-04 0.0000000000000000e+00  9.0315632820925346e-05 7.4161914956300066e-04 0.0000000000000000e+00  9.1693676136655322e-05 7.5193616329216997e-04 0.0000000000000000e+00  9.3075762014980073e-05 7.6212212915998799e-04 0.0000000000000000e+00  9.4461834935308502e-05 7.7217435042986561e-04 0.0000000000000000e+00  9.5851333548564190e-05 7.8209062752661914e-04 0.0000000000000000e+00  9.7243380536202569e-05 7.9186948395207866e-04 0.0000000000000000e+00  9.8636894769203333e-05 8.0151030886718797e-04 0.0000000000000000e+00  1.0003070134009482e-04 8.1101350175275899e-04 0.0000000000000000e+00  1.0142367561483458e-04 8.2038054115103479e-04 0.0000000000000000e+00  1.0281488658761044e-04 8.2961388356283530e-04 0.0000000000000000e+00  1.0420368170606346e-04 8.3871670958322159e-04 0.0000000000000000e+00  1.0558969679206829e-04 8.4769262234294426e-04 0.0000000000000000e+00  1.0697281732309239e-04 8.5654539094293428e-04 0.0000000000000000e+00  1.0835312743301980e-04 8.6527876262481392e-04 0.0000000000000000e+00  1.0973086148065298e-04 8.7389632280594071e-04 0.0000000000000000e+00  1.1110636040467797e-04 8.8240139070200731e-04 0.0000000000000000e+00  1.1248003136206035e-04 8.9079694754105800e-04 0.0000000000000000e+00  1.1385230899960686e-04 8.9908559549009017e-04 0.0000000000000000e+00  1.1522361420705032e-04 9.0726954475198749e-04 0.0000000000000000e+00  1.1659430945517870e-04 9.1535063440011891e-04 0.0000000000000000e+00  1.1796466377414708e-04 9.2333040673014889e-04 0.0000000000000000e+00  1.1933484699628777e-04 9.3121022006736724e-04 0.0000000000000000e+00  1.2070494774940469e-04 9.3899134374170765e-04 0.0000000000000000e+00  1.2207499331280474e-04 9.4667501313290949e-04 0.0000000000000000e+00  1.3596412090021029e-06 3.6161099468989089e-07 0.0000000000000000e+00  0.0000000000000000e+00 0.0000000000000000e+00 0.0000000000000000e+00  2.8291044853145734e-06 1.3574543987749554e-06 0.0000000000000000e+00  4.3566589160862769e-06 2.8704810833285035e-06 0.0000000000000000e+00  5.8938524715764047e-06 4.8420461466776626e-06 0.0000000000000000e+