<?xml version="1.0"?>
<VTKFile type="UnstructuredGrid"  version="0.1"  >
<UnstructuredGrid>
<Piece  NumberOfPoints="2293" NumberOfCells="4385">
<Points>
<DataArray  type="Float64"  NumberOfComponents="3"  format="ascii">2.147826086956522 0 0  2.156086956521739 0 0  2.156086956521739 0.008333333333333333 0  2.147826086956522 0.008333333333333333 0  2.164347826086956 0 0  2.164347826086956 0.008333333333333333 0  2.172608695652174 0 0  2.172608695652174 0.008333333333333333 0  2.180869565217391 0 0  2.180869565217391 0.008333333333333333 0  2.189130434782609 0 0  2.189130434782609 0.008333333333333333 0  2.197391304347826 0 0  2.197391304347826 0.008333333333333333 0  2.205652173913043 0 0  2.205652173913043 0.008333333333333333 0  2.213913043478261 0 0  2.213913043478261 0.008333333333333333 0  2.222173913043478 0 0  2.222173913043478 0.008333333333333333 0  2.230434782608695 0 0  2.230434782608695 0.008333333333333333 0  2.238695652173913 0 0  2.238695652173913 0.008333333333333333 0  2.24695652173913 0 0  2.24695652173913 0.008333333333333333 0  2.255217391304348 0 0  2.255217391304348 0.008333333333333333 0  2.263478260869565 0 0  2.263478260869565 0.008333333333333333 0  2.271739130434783 0 0  2.271739130434783 0.008333333333333333 0  2.28 0 0  2.28 0.008333333333333333 0  2.288260869565217 0 0  2.288260869565217 0.008333333333333333 0  2.296521739130434 0 0  2.296521739130434 0.008333333333333333 0  2.304782608695652 0 0  2.304782608695652 0.008333333333333333 0  2.31304347826087 0 0  2.31304347826087 0.008333333333333333 0  2.321304347826087 0 0  2.321304347826087 0.008333333333333333 0  2.329565217391304 0 0  2.329565217391304 0.008333333333333333 0  2.337826086956521 0 0  2.337826086956521 0.008333333333333333 0  2.346086956521739 0 0  2.346086956521739 0.008333333333333333 0  2.354347826086956 0 0  2.354347826086956 0.008333333333333333 0  2.362608695652174 0 0  2.362608695652174 0.008333333333333333 0  2.370869565217391 0 0  2.370869565217391 0.008333333333333333 0  2.379130434782609 0 0  2.379130434782609 0.008333333333333333 0  2.387391304347826 0 0  2.387391304347826 0.008333333333333333 0  2.395652173913044 0 0  2.395652173913044 0.008333333333333333 0  2.403913043478261 0 0  2.403913043478261 0.008333333333333333 0  2.412173913043478 0 0  2.412173913043478 0.008333333333333333 0  2.420434782608695 0 0  2.420434782608695 0.008333333333333333 0  2.428695652173913 0 0  2.428695652173913 0.008333333333333333 0  2.43695652173913 0 0  2.43695652173913 0.008333333333333333 0  2.445217391304348 0 0  2.445217391304348 0.008333333333333333 0  2.453478260869565 0 0  2.453478260869565 0.008333333333333333 0  2.461739130434782 0 0  2.461739130434782 0.008333333333333333 0  2.47 0 0  2.47 0.008333333333333333 0  2.478260869565217 0 0  2.478260869565217 0.008333333333333333 0  2.486521739130435 0 0  2.486521739130435 0.008333333333333333 0  2.494782608695652 0 0  2.494782608695652 0.008333333333333333 0  2.503043478260869 0 0  2.503043478260869 0.008333333333333333 0  2.511304347826087 0 0  2.511304347826087 0.008333333333333333 0  2.519565217391305 0 0  2.519565217391305 0.008333333333333333 0  2.527826086956522 0 0  2.527826086956522 0.008333333333333333 0  2.536086956521739 0 0  2.536086956521739 0.008333333333333333 0  2.544347826086956 0 0  2.544347826086956 0.008333333333333333 0  2.552608695652174 0 0  2.552608695652174 0.008333333333333333 0  2.560869565217391 0 0  2.560869565217391 0.008333333333333333 0  2.569130434782608 0 0  2.569130434782608 0.008333333333333333 0  2.577391304347826 0 0  2.577391304347826 0.008333333333333333 0  2.585652173913043 0 0  2.585652173913043 0.008333333333333333 0  2.593913043478261 0 0  2.593913043478261 0.008333333333333333 0  2.602173913043478 0 0  2.602173913043478 0.008333333333333333 0  2.610434782608696 0 0  2.610434782608696 0.008333333333333333 0  2.618695652173913 0 0  2.618695652173913 0.008333333333333333 0  2.156086956521739 0.01666666666666667 0  2.164347826086956 0.01666666666666667 0  2.172608695652174 0.01666666666666667 0  2.180869565217391 0.01666666666666667 0  2.189130434782609 0.01666666666666667 0  2.197391304347826 0.01666666666666667 0  2.205652173913043 0.01666666666666667 0  2.213913043478261 0.01666666666666667 0  2.222173913043478 0.01666666666666667 0  2.230434782608695 0.01666666666666667 0  2.238695652173913 0.01666666666666667 0  2.24695652173913 0.01666666666666667 0  2.255217391304348 0.01666666666666667 0  2.263478260869565 0.01666666666666667 0  2.271739130434783 0.01666666666666667 0  2.28 0.01666666666666667 0  2.288260869565217 0.01666666666666667 0  2.296521739130434 0.01666666666666667 0  2.304782608695652 0.01666666666666667 0  2.31304347826087 0.01666666666666667 0  2.321304347826087 0.01666666666666667 0  2.329565217391304 0.01666666666666667 0  2.337826086956521 0.01666666666666667 0  2.346086956521739 0.01666666666666667 0  2.354347826086956 0.01666666666666667 0  2.362608695652174 0.01666666666666667 0  2.370869565217391 0.01666666666666667 0  2.379130434782609 0.01666666666666667 0  2.387391304347826 0.01666666666666667 0  2.395652173913044 0.01666666666666667 0  2.403913043478261 0.01666666666666667 0  2.412173913043478 0.01666666666666667 0  2.420434782608695 0.01666666666666667 0  2.428695652173913 0.01666666666666667 0  2.43695652173913 0.01666666666666667 0  2.445217391304348 0.01666666666666667 0  2.453478260869565 0.01666666666666667 0  2.461739130434782 0.01666666666666667 0  2.47 0.01666666666666667 0  2.478260869565217 0.01666666666666667 0  2.486521739130435 0.01666666666666667 0  2.494782608695652 0.01666666666666667 0  2.503043478260869 0.01666666666666667 0  2.511304347826087 0.01666666666666667 0  2.519565217391305 0.01666666666666667 0  2.527826086956522 0.01666666666666667 0  2.536086956521739 0.01666666666666667 0  2.544347826086956 0.01666666666666667 0  2.552608695652174 0.01666666666666667 0  2.560869565217391 0.01666666666666667 0  2.569130434782608 0.01666666666666667 0  2.577391304347826 0.01666666666666667 0  2.585652173913043 0.01666666666666667 0  2.593913043478261 0.01666666666666667 0  2.602173913043478 0.01666666666666667 0  2.610434782608696 0.01666666666666667 0  2.618695652173913 0.01666666666666667 0  2.164347826086956 0.025 0  2.172608695652174 0.025 0  2.180869565217391 0.025 0  2.189130434782609 0.025 0  2.197391304347826 0.025 0  2.205652173913043 0.025 0  2.213913043478261 0.025 0  2.222173913043478 0.025 0  2.230434782608695 0.025 0  2.238695652173913 0.025 0  2.24695652173913 0.025 0  2.255217391304348 0.025 0  2.263478260869565 0.025 0  2.271739130434783 0.025 0  2.28 0.025 0  2.288260869565217 0.025 0  2.296521739130434 0.025 0  2.304782608695652 0.025 0  2.31304347826087 0.025 0  2.321304347826087 0.025 0  2.329565217391304 0.025 0  2.337826086956521 0.025 0  2.346086956521739 0.025 0  2.354347826086956 0.025 0  2.362608695652174 0.025 0  2.370869565217391 0.025 0  2.379130434782609 0.025 0  2.387391304347826 0.025 0  2.395652173913044 0.025 0  2.403913043478261 0.025 0  2.412173913043478 0.025 0  2.420434782608695 0.025 0  2.428695652173913 0.025 0  2.43695652173913 0.025 0  2.445217391304348 0.025 0  2.453478260869565 0.025 0  2.461739130434782 0.025 0  2.47 0.025 0  2.478260869565217 0.025 0  2.486521739130435 0.025 0  2.494782608695652 0.025 0  2.503043478260869 0.025 0  2.511304347826087 0.025 0  2.519565217391305 0.025 0  2.527826086956522 0.025 0  2.536086956521739 0.025 0  2.544347826086956 0.025 0  2.552608695652174 0.025 0  2.560869565217391 0.025 0  2.569130434782608 0.025 0  2.577391304347826 0.025 0  2.585652173913043 0.025 0  2.593913043478261 0.025 0  2.602173913043478 0.025 0  2.610434782608696 0.025 0  2.618695652173913 0.025 0  2.62695652173913 0.025 0  2.172608695652174 0.03333333333333333 0  2.180869565217391 0.03333333333333333 0  2.189130434782609 0.03333333333333333 0  2.197391304347826 0.03333333333333333 0  2.205652173913043 0.03333333333333333 0  2.213913043478261 0.03333333333333333 0  2.222173913043478 0.03333333333333333 0  2.230434782608695 0.03333333333333333 0  2.238695652173913 0.03333333333333333 0  2.24695652173913 0.03333333333333333 0  2.255217391304348 0.03333333333333333 0  2.263478260869565 0.03333333333333333 0  2.271739130434783 0.03333333333333333 0  2.28 0.03333333333333333 0  2.288260869565217 0.03333333333333333 0  2.296521739130434 0.03333333333333333 0  2.304782608695652 0.03333333333333333 0  2.31304347826087 0.03333333333333333 0  2.321304347826087 0.03333333333333333 0  2.329565217391304 0.03333333333333333 0  2.337826086956521 0.03333333333333333 0  2.346086956521739 0.03333333333333333 0  2.354347826086956 0.03333333333333333 0  2.362608695652174 0.03333333333333333 0  2.370869565217391 0.03333333333333333 0  2.379130434782609 0.03333333333333333 0  2.387391304347826 0.03333333333333333 0  2.395652173913044 0.03333333333333333 0  2.403913043478261 0.03333333333333333 0  2.412173913043478 0.03333333333333333 0  2.420434782608695 0.03333333333333333 0  2.428695652173913 0.03333333333333333 0  2.43695652173913 0.03333333333333333 0  2.445217391304348 0.03333333333333333 0  2.453478260869565 0.03333333333333333 0  2.461739130434782 0.03333333333333333 0  2.47 0.03333333333333333 0  2.478260869565217 0.03333333333333333 0  2.486521739130435 0.03333333333333333 0  2.494782608695652 0.03333333333333333 0  2.503043478260869 0.03333333333333333 0  2.511304347826087 0.03333333333333333 0  2.519565217391305 0.03333333333333333 0  2.527826086956522 0.03333333333333333 0  2.536086956521739 0.03333333333333333 0  2.544347826086956 0.03333333333333333 0  2.552608695652174 0.03333333333333333 0  2.560869565217391 0.03333333333333333 0  2.569130434782608 0.03333333333333333 0  2.577391304347826 0.03333333333333333 0  2.585652173913043 0.03333333333333333 0  2.593913043478261 0.03333333333333333 0  2.602173913043478 0.03333333333333333 0  2.610434782608696 0.03333333333333333 0  2.618695652173913 0.03333333333333333 0  2.62695652173913 0.033333
[...]
<CellData  Scalars="sigma_m"> 
<DataArray  type="Float64"  Name="sigma_m"  format="ascii">7.6933801316116489e+06   7.5387616647083163e+06   7.8220605806639940e+06   7.5621617704727259e+06   7.9743594956789752e+06   7.5790252162318267e+06   8.1431050847025840e+06   7.5924995412806431e+06   8.3188298769701803e+06   7.6063275558870845e+06   8.4912033076269850e+06   7.6242467873197030e+06   8.6499843502038624e+06   7.6497949342350587e+06   8.7850903600294404e+06   7.6865748733477322e+06   8.8857967574484386e+06   7.7388289046625914e+06   8.9400827857523169e+06   7.8121002275319127e+06   8.9364694697267711e+06   7.9148137857347708e+06   8.8688603507159147e+06   8.0635102171796402e+06   8.7489282872613817e+06   8.2803340662018750e+06   8.6360421914061103e+06   8.5364668154776879e+06   8.5832584675719924e+06   8.7531550255901236e+06   8.5937856170412153e+06   8.8923771427561641e+06   8.6496456990389042e+06   8.9581208421758972e+06   8.7447815202486701e+06   8.9299723178986236e+06   9.0530345291377865e+06   8.6508758991836924e+06   9.6023169805511236e+06   8.2893759490183741e+06   1.0180492372275017e+07   8.1271175900781816e+06   1.0505680685311660e+07   8.0747170907056015e+06   1.0529719165394390e+07   8.0309724900158299e+06   1.0278444661875313e+07   7.9130548408189937e+06   9.8481478498943653e+06   7.6986630041480651e+06   9.3618941739811562e+06   7.4292739634571820e+06   8.9139367341649421e+06   7.1593540736132106e+06   8.5480130485993288e+06   6.9219640074487440e+06   8.2618796221223986e+06   6.7224149624520121e+06   8.0208361019732226e+06   6.5446041835009092e+06   7.7740293102099607e+06   6.3608740883766925e+06   7.4716322275370602e+06   6.1422857159385877e+06   7.0878424918348882e+06   5.8726063485541688e+06   6.6209336219976796e+06   5.5492271309012845e+06   6.0856164387738798e+06   5.1774672267346103e+06   5.5150168606193988e+06   4.7729847537322175e+06   4.9574124844661616e+06   4.3638085584595818e+06   4.4672458587582959e+06   3.9862539598358902e+06   4.0980794016761607e+06   3.6798293608735641e+06   3.8952275622836053e+06   3.4804592019808604e+06   3.8838547933696508e+06   3.4088654233142203e+06   4.0555472762860297e+06   3.4597065874536010e+06   4.3650763808778785e+06   3.6032789555858504e+06   4.7378306119615175e+06   3.7976659609530335e+06   5.0760030681623230e+06   3.9973075756598841e+06   5.2827585256633172e+06   4.1759427219716855e+06   5.2858937588425763e+06   4.3223222064120797e+06   5.0793037552225925e+06   4.4829942254240932e+06   4.5993600584171638e+06   4.6815897348790038e+06   4.1898895907937228e+06   4.9118179469024893e+06   3.9545967015728652e+06   5.0992618384147808e+06   3.8475068907526000e+06   5.2159443391931783e+06   3.8235216205454003e+06   5.2560438024014570e+06   3.8523226400076048e+06   5.2422044464636510e+06   3.9137674767344939e+06   5.2006450441948818e+06   3.9908330401279833e+06   5.1427323281383710e+06   4.0732260867401590e+06   5.0755365588854551e+06   7.5303561772736460e+06   7.5489447701122938e+06   7.3193588994329311e+06   7.5603628511311039e+06   7.1902284097084990e+06   7.5680279952685069e+06   7.0341623075192329e+06   7.5757777669453109e+06   6.8700821492297184e+06   7.5874083149903687e+06   6.7167361022542305e+06   7.6066374302179022e+06   6.5912296275769761e+06   7.6374821922884025e+06   6.5090805288584828e+06   7.6848380489372937e+06   6.4859641565570468e+06   7.7551810999971619e+06   6.5402992998377550e+06   7.8588873343612235e+06   6.6964764827145105e+06   8.0179645899499031e+06   6.9978879381449213e+06   8.2621363914905312e+06   7.5621591195637379e+06   8.5458933074917104e+06   8.4747707120454069e+06   8.7745514794585444e+06   9.1614192809589282e+06   8.9154333916120995e+06   9.3920814386187643e+06   8.9742402314468734e+06   9.4429128134269044e+06   8.9258171764981579e+06   9.3807807563926149e+06   8.5715316293092035e+06   9.0888953943887707e+06   8.2187852924554255e+06   6.7925124747820869e+06   8.0968306360786371e+06   5.7324281105185812e+06   7.9776162094679726e+06   5.4954280691128522e+06   7.8470650099662971e+06   5.4827590556918886e+06   7.6520762654580893e+06   5.5295225605361359e+06   7.4102328598212665e+06   5.4908867077456536e+06   7.1572516001171526e+06   5.3812639393859422e+06   6.9228626619657865e+06   5.2565627628613096e+06   6.7223213883345360e+06   5.1521300812660204e+06   6.5522125604723198e+06   5.0763046968314778e+06   6.3925571996691693e+06   5.0175528239532569e+06   6.2155766682459312e+06   4.9534071520332126e+06   5.9958655748399366e+06   4.8594921931459000e+06   5.7274977568939477e+06   4.7240859702652367e+06   5.4128489044932481e+06   4.5482807717609098e+06   5.0558056027971525e+06   4.3266137435908066e+06   4.6688444933104413e+06   4.0509610834054737e+06   4.2739546405485319e+06   3.7287770963699352e+06   3.9026866443397012e+06   3.3842422109242077e+06   3.5980903088778914e+06   3.0577697753114328e+06   3.4091526425461229e+06   2.8057954390918729e+06   3.3692621558492719e+06   2.6793196938651269e+06   3.4696492217520564e+06   2.6851734521725499e+06   3.6599352586644231e+06   2.7788870873696706e+06   3.8752653679360142e+06   2.9012524549569841e+06   4.0563809868328804e+06   3.0048686237493064e+06   4.1875248974999404e+06   3.1001823816566700e+06   4.2731758984445063e+06   3.2594854472469124e+06   4.4194301279953038e+06   3.5401791282532155e+06   4.6174773613872379e+06   4.1571085621388135e+06   4.9749176869788533e+06   6.1686735057694511e+06   5.1932693609994985e+06   6.6125973867096230e+06   5.3130986362873306e+06   6.8910054534453489e+06   5.3439651766599547e+06   6.9241503035230059e+06   5.3192725050675999e+06   6.7822165836829832e+06   5.2685023874907689e+06   6.5832555211671079e+06   5.2018997638134575e+06   6.3681457184942430e+06   5.1262302978265621e+06   6.1285177840558169e+06   7.2652766136416616e+06   7.1313516476856982e+06   6.3231101527995709e+06   6.9699657347054714e+06   6.0362205216472512e+06   6.8000665176729634e+06   5.7295778356654625e+06   6.6414002472615577e+06   5.4323579252690235e+06   6.5124382052035108e+06   5.1705852743603382e+06   6.4299101343920659e+06   4.9648313297300013e+06   6.4104433234720472e+06   4.8317407140474133e+06   6.4728044602296334e+06   4.7919705930604059e+06   6.6381998130230689e+06   4.8856171630650703e+06   6.9328648356248038e+06   5.1926592905034088e+06   7.4193929764453517e+06   5.8295579762482913e+06   8.1046995118682217e+06   6.6394846538703619e+06   8.5266115005412269e+06   7.0091044436991401e+06   8.6145835596873816e+06   6.9168817623971319e+06   8.5973384367615804e+06   6.7720843281811206e+06   8.5267642402193826e+06   6.6907196415106347e+06   8.3500725405265614e+06   6.4771052691482408e+06   6.5909033970568012e+06   5.6497029607046777e+06   5.5540011783235352e+06   3.0406721558083361e+06   5.2575246999564497e+06   2.5309094543952812e+06   5.2026619380890504e+06   2.6983173284536130e+06   5.1261831782026486e+06   3.1969806625601035e+06   5.0404160888336543e+06   3.4143698590866849e+06   4.9698370830365485e+06   3.4525275552487527e+06   4.9171731544524683e+06   3.4477278940417459e+06   4.8809804813585430e+06   3.4593096325638583e+06   4.8547931544586504e+06   3.5033234803795773e+06   4.8228869804485366e+06   3.5735063163367342e+06   4.7636582677747067e+06   3.6479679049043995e+06   4.6557742749266969e+06   3.6980608167392830e+06   4.5086136054248111e+06   3.7019546177452812e+06   4.3306997121570110e+06   3.6709295610552193e+06   4.1139200143807735e+06   3.5940397220633915e+06   3.8531344915714599e+06   3.4310931006183885e+06   3.5531303540913798e+06   3.1711555730585991e+06   3.2321221690553664e+06   2.8290233071898320e+06   2.9313196803753669e+06   2.4406735681671724e+06   2.7156639993470483e+06   2.0843431953091384e+06   2.6434139246915733e+06   1.8661421419717481e+06   2.7142338583240677e+06   1.8327456299493057e+06   2.8650726850348399e+06   1.9122179870162399e+06   3.0192293826588090e+06   1.9929973956629965e+06   3.1141160187661601e+06   1.9684139457148076e+06   3.1653491734964359e+06   1.8695078044228682e+06   3.2841315568277398e+06   1.7364238281965605e+06   3.5839966370051419e+06   2.1059906340317740e+06   4.3778343638678025e+06   2.3280777708294014e+06   5.8188306057629539e+06   6.1811797199641885e+06   6.0412734304786418e+06   5.8526643630579803e+06   6.1298374016153654e+06   5.1197502888590675e+06   6.1380378980114581e+06   4.1620808415179141e+06   6.0798453619000735e+06   4.3383058413772453e+06   5.9790885202302886e+06   4.7468348739848975e+06   5.8478649025655268e+06   4.8926397878519967e+06   5.6950566043562181e+06   4.8918815487474380e+06   4.8267184616634408e+06   3.8366097109368962e+05   4.3316079156533215e+05   3.5049820604238844e+03   4.9586298140213575e+05   4.1485659532138434e+03   5.5837413296370627e+05   4.9188278983647906e+03   6.0096547055795637e+05   5.6378523802122227e+03   6.0543227275030164e+05   6.0322107892411123e+03   5.6226564290044422e+05   5.8800842417767490e+03   4.6804596179934713e+05   5.1435769141564479e+03   3.3173366361052002e+05   3.9132126819413133e+03   1.9004716101337707e+05   2.4599691246755683e+03   8.4811667141426558e+04   1.2160496624449070e+03   2.8725042283290604e+04   4.5060603204047453e+02   8.0128607005906088e+03   1.3031366277880372e+02   2.3465441452215318e+03   3.8707656622989006e+01   8.7118115685830048e+02   1.4613542490328932e+01   5.6296391988069445e+02   8.1737084258705224e+00   1.3334249093543126e+03   1.1885178446189601e+01   2.6356826958463691e+04   9.7429897955030313e+01   1.4309621913492116e+06   9.0194842544731164e+03   2.3363272611447703e+06   4.8372028676524933e+05   2.6074561365276021e+06   8.1107146537008311e+05   2.6819483210859643e+06   1.1944481900143831e+06   2.7547830090808235e+06   1.5978939149363828e+06   2.8787254366243877e+06   1.7409938531963278e+06   3.0053784919442190e+06   1.8318055136088650e+06   3.1224871674941354e+06   1.9331648573513806e+06   3.2327375005003558e+06   2.0662897353431466e+06   3.3302800709218960e+06   2.2461156599335736e+06   3.3938493747039237e+06   2.4621507488170411e+06   3.3899726843568836e+06   2.6780094732840117e+06   3.3498711637945366e+06   2.8021289519377458e+06   3.2955754043380232e+06   2.8899107051309263e+06   3.2078576099030226e+06   2.9585682582522687e+06   3.0663744253422874e+06   2.9131990270766625e+06   2.8613997160850777e+06   2.7341890332601531e+06   2.5939241777753895e+06   2.4313700420180047e+06   2.2900400561737996e+06   2.0128755620814878e+06   2.0190293079588334e+06   1.5473758725181022e+06   1.8742456523255312e+06   1.1832588657107570e+06   1.8917076622366419e+06   1.0587781244505227e+06   2.0011957604611593e+06   1.1086732468973689e+06   2.0943372093460280e+06   1.1481321411254697e+06   2.0291224549638329e+06   1.0201073670935439e+06   1.8561165216002297e+06   8.9107080013354460e+05   1.6420287806994389e+06   9.5643259739693743e+05   1.8162528731222544e+06   8.8052802609984635e+05   5.5783065277123160e+05   1.5849155326676706e+05   7.6958828093052425e+03   9.4810469141958185e+02   2.4609615215269380e+02   1.1631398598920594e+01   6.4304496338190859e+01   1.2914041469507571e+00   6.3724556828291554e+01   7.0760915526998902e-01   1.3296246584939146e+02   1.0381418428721874e+00   3.5085153145686508e+02   2.4137810850031820e+00   9.9754918368611811e+02   6.3353988489194206e+00   2.7053198060602867e+03   1.7639441621592695e+01   5.8842330816720778e+03   4.2377808102195800e+01   7.7100170112977381e+01   5.8709453262524450e-04   3.0316833668351958e-06   7.6771614631528616e-04   3.9267852346176156e-06   1.0194298514486924e-03   5.2593539552273063e-06   1.3158610104379198e-03   7.0363052856798010e-06   1.5634744489057648e-03   8.9983680322790611e-06   1.6175665237554754e-03   1.0419414621270612e-05   1.3987959631466943e-03   1.0344749822887651e-05   9.9529981346286765e-04   8.4912308268140231e-06   5.8502478238251637e-04   5.7705391326410965e-06   2.8214965930940496e-04   3.3233296400061867e-06   1.1119272201627946e-04   1.6258159256917735e-06   4.0168378000972041e-05   7.0903852853199229e-07   1.7518624187867365e-05   3.4676671244325526e-07   1.1962589714699536e-05   2.5311962660664574e-07   1.7583986213305181e-05   3.3190938939289535e-07   1.1247135328856920e-04   1.1856911357416219e-06   5.8973591043245443e-03   2.2742749636914389e-05   3.7275952801571135e+00   3.3632256867252670e-03   1.7165051113740206e+04   6.1510546694383823e+00   3.7849850524784187e+06   8.2939350941692042e+04   2.5936253619663860e+06   2.1526974270940744e+06   1.4434012670501866e+06   9.7765795179092651e+05   1.2468816713597269e+06   5.2966200743666454e+05   1.3908347242851942e+06   5.7743159783725697e+05   1.5743979027029737e+06   7.3456293327096384e+05   1.7587462598980856e+06   9.0672513266104751e+05   1.9478733667176764e+06   1.1679921061263585e+06   2.1117029151276411e+06   1.5574396871305967e+06   2.1688541807008330e+06   2.0463656385767560e+06   2.1889005901819151e+06   2.2066946991905272e+06   2.2301774830441526e+06   2.2726343859130968e+06   2.2731720036204094e+06   2.4216613046825738e+06   2.2836718147436273e+06   2.4498478559565404e+06   2.2398289349509338e+06   2.3760291707891789e+06   2.1158065517903357e+06   2.2110889097034154e+06   1.8897288290419541e+06   1.8878843391080368e+06   1.5879573377104443e+06   1.4411294374295103e+06   1.3000637607974887e+06   1.0075242984364966e+06   1.1398462004581366e+06   7.2126350028827053e+05   1.1279870190891975e+06   5.7890662095046602e+05   1.1786418929911884e+06   4.9329198309411242e+05   1.0861688563384451e+06   6.5592015730997536e+05   1.1022206405041011e+06   1.3136134571482120e+06   1.1000316695941673e+06   1.4400450577063286e+06   1.0094866197888927e+04   5.2961427592133386e+03   2.1235661930200518e+00   5.6183510474195975e-01   3.4466801876716878e-03   6.8890870723272541e-04   4.4932324991173271e-05   4.9676441135265918e-06   3.4455126571777286e-06   2.1496577260909913e-07   1.1423874891427302e-06   3.7822798236829978e-08   1.0848556376568138e-06   2.1020014961671733e-08   1.7556067052687638e-06   2.3807693688609905e-08   3.5162365323321028e-06   3.5618839975923550e-08   7.4680697817160157e-06   6.3039977036910847e-08   1.4030476817456215e-05   1.1065559123469162e-07   2.0652276865650874e-05   1.6252235988733161e-07   1.8830656538388529e-07   0.0000000000000000e+00   0.0000000000000000e+00   0.0000000000000000e+00   0.0000000000000000e+00   0.0000000000000000e+00   0.0000000000000000e+00   0.0000000000000000e+00   0.0000000000000000e+00   0.0000000000000000e+00   0.0000000000000000e+00   0.0000000000000000e+00   0.0000000000000000e+00   0.0000000000000000e+00   0.0000000000000000e+00   0.0000000000000000e+00   0.0000000000000000e+00   0.0000000000000000e+00   0.0000000000000000e+00   0.0000000000000000e+00   0.0000000000000000e+00   0.0000000000000000e+00   0.0000000000000000e+00   0.0000000000000000e+00   0.0000000000000000e+00   0.0000000000000000e+00   0.0000000000000000e+00   0.0000000000000000e+00   0.0000000000000000e+00   0.0000000000000000e+00   0.0000000000000000e+00   0.0000000000000000e+00   1.8981836441218187e-08   0.0000000000000000e+00   1.1308618787120497e-05   2.5748127167966548e-08   5.2514481667813584e-02   4.3576776280112705e-05   2.3644824098474260e+03   5.7390066203972256e-01   3.8383350969427535e+06   5.3859065875695094e+04   2.3035697814955357e+06   2.1987139839899130e+06   1.1700168073812183e+06   9.6667413698651164e+05   6.3768382124619698e+05   4.9812556872304872e+05   4.3833013248664542e+05   5.2826573925954150e+05   5.1532736577628081e+05   6.9108636203995033e+05   7.6474848523880786e+05   1.0201470431149128e+06   1.0381476718704646e+06   1.5828778236717966e+06   1.1323472116656557e+06   2.4871862519162921e+06   1.1003014405597914e+06   2.5181706260536732e+06   1.0793610924464634e+06   2.2799325205551991e+06   1.1868230730284369e+06   2.1817712015991770e+06   1.3728447688940906e+06   1.9119091859725099e+06   1.6113637338671833e+06   1.8587532629076433e+06   1.8165978187644538e+06   1.9936536334156641e+06   1.8551194051503744e+06   1.9413168092333113e+06   1.6523284475253667e+06   1.6696171007309733e+06   1.2514818347473969e+06   1.3250662502915082e+06   7.7584017973011197e+05   9.8982409773997928e+05   3.6733600076235831e+05   6.0526669171787833e+05   8.8031406106193911e+05   1.0575666982866632e+05   1.5282592230137317e+06   1.3809515252189767e+06   2.0487068642095004e+06   1.7915126236385491e+06   3.6101493923657786e+03   3.4116705358382801e+03   9.5941434147320301e-02   8.3531098959934130e-02   1.9521279649380653e-05   1.2380973240505017e-05   2.4268537481517315e-08   1.0928517117863812e-08   0.0000000000000000e+00   0.0000000000000000e+00   0.0000000000000000e+00   0.0000000000000000e+00   0.0000000000000000e+00   0.0000000000000000e+00   0.0000000000000000e+00   0.0000000000000000e+00   0.0000000000000000e+00   0.0000000000000000e+00   0.0000000000000000e+00   0.0000000000000000e+00   0.0000000000000000e+00   0.0000000000000000e+00   0.0000000000000000e+00   0.0000000000000000e+00   0.0000000000000000e+00   0.0000000000000000e+00   0.0000000000000000e+00   0.0000000000000000e+00   0.0000000000000000e+00   0.0000000000000000e+00   0.0000000000000000e+00   0.0000000000000000e+00   0.0000000000000000e+00   0.0000000000000000e+00   0.0000000000000000e+00   0.0000000000000000e+00   0.0000000000000000e+00   0.0000000000000000e+00   0.0000000000000000e+00   0.0000000000000000e+00   0.0000000000000000e+00   0.0000000000000000e+00   0.0000000000000000e+00   0.0000000000000000e+00   0.0000000000000000e+00   0.0000000000000000e+00   0.0000000000000000e+00   0.0000000000000000e+00   0.0000000000000000e+00   0.0000000000000000e+00   0.0000000000000000e+00   0.0000000000000000e+00   0.0000000000000000e+00   0.0000000000000000e+00   0.0000000000000000e+00   0.0000000000000000e+00   0.0000000000000000e+00   0.0000000000000000e+00   0.0000000000000000e+00   0.0000000000000000e+00   0.0000000000000000e+00   9.7516836656391307e-10   0.0000000000000000e+00   3.4187829094608710e-06   1.1446730307087671e-08   7.4781249502602440e-02   1.3727148848059694e-04   8.6651203929896037e+03   7.0786578423936044e+00   2.5988760778205181e+06   7.9607705830045580e+05   1.4376839920023137e+06   1.4773895242355061e+06   8.0294057848023472e+05   7.8894568170591956e+05   4.9194428254778741e+05   8.9068086709638766e+05   5.3934509098523820e+05   1.2119734707184092e+06   8.7633904592072626e+05   1.7799095531882504e+06   1.2497552375198840e+06   2.7593644845989486e+06   1.6113167185820229e+06   4.3592283498013895e+06   1.7244064166644011e+06   3.6484959322668402e+06   1.5831262732488513e+06   3.2333035403525694e+06   9.4714670832706476e+05   3.6065971845346373e+06   3.5430920703000785e+05   1.9672426789944379e+06   7.0409836920003186e+05   7.8081089296311396e+05   1.4544855160793059e+06   1.5736656717357249e+06   2.0630835350646663e+06   2.0768920491194883e+06   2.0795585651077747e+06   1.9934803795788635e+06   1.6448596030214315e+06   1.7140207738688956e+06   1.0904758156296241e+06   1.3306621871106580e+06   6.8996414249900496e+05   8.0257503751467145e+05   1.6661456772174328e+06   7.9773167686457178e+04   2.9207496227540900e+06   2.0518408857370068e+06   3.8205280525814953e+04   8.4354546532046603e+04   4.1076721094895891e-01   9.3945036801718829e-01   1.7055637566717227e-05   3.3882754337122590e-05   3.9211091509851465e-09   5.5243009966087402e-09   0.0000000000000000e+00   0.0000000000000000e+00   0.0000000000000000e+00   0.0000000000000000e+00   0.0000000000000000e+00   0.0000000000000000e+00   0.0000000000000000e+00   0.0000000000000000e+00   0.0000000000000000e+00   0.0000000000000000e+00   0.0000000000000000e+00   0.0000000000000000e+00   0.0000000000000000e+00   0.0000000000000000e+00   0.0000000000000000e+00   0.0000000000000000e+00   0.0000000000000000e+00   0.0000000000000000e+00   0.0000000000000000e+00   0.0000000000000000e+00   0.0000000000000000e+00   0.0000000000000000e+00   0.0000000000000000e+00   0.0000000000000000e+00   0.0000000000000000e+00   0.0000000000000000e+00   0.0000000000000000e+00   0.0000000000000000e+00   0.00000000