<?xml version="1.0"?>
<VTKFile type="UnstructuredGrid"  version="0.1"  >
<UnstructuredGrid>
<Piece  NumberOfPoints="2425" NumberOfCells="4624">
<Points>
<DataArray  type="Float64"  NumberOfComponents="3"  format="ascii">1.016086956521739 0 0  1.024347826086957 0 0  1.024347826086957 0.008333333333333333 0  1.032608695652174 0 0  1.032608695652174 0.008333333333333333 0  1.040869565217391 0 0  1.040869565217391 0.008333333333333333 0  1.049130434782609 0 0  1.049130434782609 0.008333333333333333 0  1.057391304347826 0 0  1.057391304347826 0.008333333333333333 0  1.065652173913043 0 0  1.065652173913043 0.008333333333333333 0  1.073913043478261 0 0  1.073913043478261 0.008333333333333333 0  1.082173913043478 0 0  1.082173913043478 0.008333333333333333 0  1.090434782608696 0 0  1.090434782608696 0.008333333333333333 0  1.098695652173913 0 0  1.098695652173913 0.008333333333333333 0  1.10695652173913 0 0  1.10695652173913 0.008333333333333333 0  1.115217391304348 0 0  1.115217391304348 0.008333333333333333 0  1.123478260869565 0 0  1.123478260869565 0.008333333333333333 0  1.131739130434783 0 0  1.131739130434783 0.008333333333333333 0  1.14 0 0  1.14 0.008333333333333333 0  1.148260869565217 0 0  1.148260869565217 0.008333333333333333 0  1.156521739130435 0 0  1.156521739130435 0.008333333333333333 0  1.164782608695652 0 0  1.164782608695652 0.008333333333333333 0  1.17304347826087 0 0  1.17304347826087 0.008333333333333333 0  1.181304347826087 0 0  1.181304347826087 0.008333333333333333 0  1.189565217391304 0 0  1.189565217391304 0.008333333333333333 0  1.197826086956522 0 0  1.197826086956522 0.008333333333333333 0  1.206086956521739 0 0  1.206086956521739 0.008333333333333333 0  1.214347826086956 0 0  1.214347826086956 0.008333333333333333 0  1.222608695652174 0 0  1.222608695652174 0.008333333333333333 0  1.230869565217391 0 0  1.230869565217391 0.008333333333333333 0  1.239130434782609 0 0  1.239130434782609 0.008333333333333333 0  1.247391304347826 0 0  1.247391304347826 0.008333333333333333 0  1.255652173913044 0 0  1.255652173913044 0.008333333333333333 0  1.263913043478261 0 0  1.263913043478261 0.008333333333333333 0  1.272173913043478 0 0  1.272173913043478 0.008333333333333333 0  1.280434782608696 0 0  1.280434782608696 0.008333333333333333 0  1.288695652173913 0 0  1.288695652173913 0.008333333333333333 0  1.296956521739131 0 0  1.296956521739131 0.008333333333333333 0  1.305217391304348 0 0  1.305217391304348 0.008333333333333333 0  1.313478260869565 0 0  1.313478260869565 0.008333333333333333 0  1.321739130434783 0 0  1.321739130434783 0.008333333333333333 0  1.33 0 0  1.33 0.008333333333333333 0  1.338260869565217 0 0  1.338260869565217 0.008333333333333333 0  1.346521739130435 0 0  1.346521739130435 0.008333333333333333 0  1.354782608695652 0 0  1.354782608695652 0.008333333333333333 0  1.36304347826087 0 0  1.36304347826087 0.008333333333333333 0  1.371304347826087 0 0  1.371304347826087 0.008333333333333333 0  1.379565217391304 0 0  1.379565217391304 0.008333333333333333 0  1.387826086956522 0 0  1.387826086956522 0.008333333333333333 0  1.396086956521739 0 0  1.396086956521739 0.008333333333333333 0  1.404347826086957 0 0  1.404347826086957 0.008333333333333333 0  1.412608695652174 0 0  1.412608695652174 0.008333333333333333 0  1.420869565217391 0 0  1.420869565217391 0.008333333333333333 0  1.429130434782609 0 0  1.429130434782609 0.008333333333333333 0  1.437391304347826 0 0  1.437391304347826 0.008333333333333333 0  1.445652173913043 0 0  1.445652173913043 0.008333333333333333 0  1.453913043478261 0 0  1.453913043478261 0.008333333333333333 0  1.462173913043478 0 0  1.462173913043478 0.008333333333333333 0  1.470434782608696 0 0  1.470434782608696 0.008333333333333333 0  1.478695652173913 0 0  1.478695652173913 0.008333333333333333 0  1.486956521739131 0 0  1.486956521739131 0.008333333333333333 0  1.495217391304348 0 0  1.495217391304348 0.008333333333333333 0  1.503478260869565 0 0  1.503478260869565 0.008333333333333333 0  1.511739130434782 0 0  1.511739130434782 0.008333333333333333 0  1.52 0 0  1.52 0.008333333333333333 0  1.528260869565217 0 0  1.528260869565217 0.008333333333333333 0  1.536521739130435 0 0  1.536521739130435 0.008333333333333333 0  1.544782608695652 0 0  1.544782608695652 0.008333333333333333 0  1.55304347826087 0 0  1.55304347826087 0.008333333333333333 0  1.561304347826087 0 0  1.561304347826087 0.008333333333333333 0  1.569565217391304 0 0  1.569565217391304 0.008333333333333333 0  1.577826086956522 0 0  1.577826086956522 0.008333333333333333 0  1.586086956521739 0 0  1.586086956521739 0.008333333333333333 0  1.594347826086957 0 0  1.594347826086957 0.008333333333333333 0  1.602608695652174 0 0  1.602608695652174 0.008333333333333333 0  1.610869565217391 0 0  1.610869565217391 0.008333333333333333 0  1.619130434782609 0 0  1.619130434782609 0.008333333333333333 0  1.627391304347826 0 0  1.627391304347826 0.008333333333333333 0  1.635652173913043 0 0  1.635652173913043 0.008333333333333333 0  1.643913043478261 0 0  1.643913043478261 0.008333333333333333 0  1.652173913043478 0 0  1.652173913043478 0.008333333333333333 0  1.660434782608696 0 0  1.660434782608696 0.008333333333333333 0  1.668695652173913 0 0  1.668695652173913 0.008333333333333333 0  1.67695652173913 0 0  1.67695652173913 0.008333333333333333 0  1.685217391304348 0 0  1.685217391304348 0.008333333333333333 0  1.693478260869565 0 0  1.693478260869565 0.008333333333333333 0  1.701739130434782 0 0  1.701739130434782 0.008333333333333333 0  1.71 0 0  1.71 0.008333333333333333 0  1.718260869565217 0 0  1.718260869565217 0.008333333333333333 0  1.726521739130435 0 0  1.726521739130435 0.008333333333333333 0  1.734782608695652 0 0  1.734782608695652 0.008333333333333333 0  1.743043478260869 0.008333333333333333 0  1.032608695652174 0.01666666666666667 0  1.040869565217391 0.01666666666666667 0  1.049130434782609 0.01666666666666667 0  1.057391304347826 0.01666666666666667 0  1.065652173913043 0.01666666666666667 0  1.073913043478261 0.01666666666666667 0  1.082173913043478 0.01666666666666667 0  1.090434782608696 0.01666666666666667 0  1.098695652173913 0.01666666666666667 0  1.10695652173913 0.01666666666666667 0  1.115217391304348 0.01666666666666667 0  1.123478260869565 0.01666666666666667 0  1.131739130434783 0.01666666666666667 0  1.14 0.01666666666666667 0  1.148260869565217 0.01666666666666667 0  1.156521739130435 0.01666666666666667 0  1.164782608695652 0.01666666666666667 0  1.17304347826087 0.01666666666666667 0  1.181304347826087 0.01666666666666667 0  1.189565217391304 0.01666666666666667 0  1.197826086956522 0.01666666666666667 0  1.206086956521739 0.01666666666666667 0  1.214347826086956 0.01666666666666667 0  1.222608695652174 0.01666666666666667 0  1.230869565217391 0.01666666666666667 0  1.239130434782609 0.01666666666666667 0  1.247391304347826 0.01666666666666667 0  1.255652173913044 0.01666666666666667 0  1.263913043478261 0.01666666666666667 0  1.272173913043478 0.01666666666666667 0  1.280434782608696 0.01666666666666667 0  1.288695652173913 0.01666666666666667 0  1.296956521739131 0.01666666666666667 0  1.305217391304348 0.01666666666666667 0  1.313478260869565 0.01666666666666667 0  1.321739130434783 0.01666666666666667 0  1.33 0.01666666666666667 0  1.338260869565217 0.01666666666666667 0  1.346521739130435 0.01666666666666667 0  1.354782608695652 0.01666666666666667 0  1.36304347826087 0.01666666666666667 0  1.371304347826087 0.01666666666666667 0  1.379565217391304 0.01666666666666667 0  1.387826086956522 0.01666666666666667 0  1.396086956521739 0.01666666666666667 0  1.404347826086957 0.01666666666666667 0  1.412608695652174 0.01666666666666667 0  1.420869565217391 0.01666666666666667 0  1.429130434782609 0.01666666666666667 0  1.437391304347826 0.01666666666666667 0  1.445652173913043 0.01666666666666667 0  1.453913043478261 0.01666666666666667 0  1.462173913043478 0.01666666666666667 0  1.470434782608696 0.01666666666666667 0  1.478695652173913 0.01666666666666667 0  1.486956521739131 0.01666666666666667 0  1.495217391304348 0.01666666666666667 0  1.503478260869565 0.01666666666666667 0  1.511739130434782 0.01666666666666667 0  1.52 0.01666666666666667 0  1.528260869565217 0.01666666666666667 0  1.536521739130435 0.01666666666666667 0  1.544782608695652 0.01666666666666667 0  1.55304347826087 0.01666666666666667 0  1.561304347826087 0.01666666666666667 0  1.569565217391304 0.01666666666666667 0  1.577826086956522 0.01666666666666667 0  1.586086956521739 0.01666666666666667 0  1.594347826086957 0.01666666666666667 0  1.602608695652174 0.01666666666666667 0  1.610869565217391 0.01666666666666667 0  1.619130434782609 0.01666666666666667 0  1.627391304347826 0.01666666666666667 0  1.635652173913043 0.01666666666666667 0  1.643913043478261 0.01666666666666667 0  1.652173913043478 0.01666666666666667 0  1.660434782608696 0.01666666666666667 0  1.668695652173913 0.01666666666666667 0  1.67695652173913 0.01666666666666667 0  1.685217391304348 0.01666666666666667 0  1.693478260869565 0.01666666666666667 0  1.701739130434782 0.01666666666666667 0  1.71 0.01666666666666667 0  1.718260869565217 0.01666666666666667 0  1.726521739130435 0.01666666666666667 0  1.734782608695652 0.01666666666666667 0  1.743043478260869 0.01666666666666667 0  1.040869565217391 0.025 0  1.049130434782609 0.025 0  1.057391304347826 0.025 0  1.065652173913043 0.025 0  1.073913043478261 0.025 0  1.082173913043478 0.025 0  1.090434782608696 0.025 0  1.098695652173913 0.025 0  1.10695652173913 0.025 0  1.115217391304348 0.025 0  1.123478260869565 0.025 0  1.131739130434783 0.025 0  1.14 0.025 0  1.148260869565217 0.025 0  1.156521739130435 0.025 0  1.164782608695652 0.025 0  1.17304347826087 0.025 0  1.181304347826087 0.025 0  1.189565217391304 0.025 0  1.197826086956522 0.025 0  1.206086956521739 0.025 0  1.214347826086956 0.025 0  1.222608695652174 0.025 0  1.230869565217391 0.025 0  1.239130434782609 0.025 0  1.24
[...]
<CellData  Scalars="rho_bar"> 
<DataArray  type="Float64"  Name="rho_bar"  format="ascii">1.0000000000000000e+00   9.9999999999999989e-01   9.9999999999999989e-01   9.9999999999999989e-01   9.9999999999999989e-01   1.0000000000000000e+00   1.0000000000000000e+00   9.9999999999999989e-01   9.9999999999999989e-01   9.9999999999999989e-01   9.9999999999999989e-01   1.0000000000000000e+00   1.0000000000000000e+00   9.9999999999999989e-01   9.9999999999999989e-01   9.9999999999999989e-01   9.9999999999999989e-01   1.0000000000000000e+00   1.0000000000000000e+00   9.9999999999999989e-01   9.9999999999999989e-01   9.9999999999999989e-01   9.9999999999999989e-01   9.9999999999999989e-01   9.9999999999999989e-01   1.0000000000000000e+00   1.0000000000000000e+00   9.9999999999999989e-01   9.9999999999999989e-01   9.9999999999999989e-01   9.9999999999999989e-01   1.0000000000000000e+00   1.0000000000000000e+00   9.9999999999999989e-01   9.9999999999999989e-01   1.0000000000000000e+00   1.0000000000000000e+00   9.9999999999999989e-01   9.9999999999999989e-01   9.9999999999999989e-01   9.9999999999999989e-01   1.0000000000000000e+00   1.0000000000000000e+00   9.9999999999999989e-01   9.9999999999999989e-01   9.9999999999999989e-01   9.9999999999999989e-01   9.9999999999999989e-01   9.9999999999999989e-01   9.9999999999999989e-01   9.9999999999999989e-01   1.0000000000000000e+00   1.0000000000000000e+00   9.9999999999999989e-01   9.9999999999999989e-01   1.0000000000000000e+00   1.0000000000000000e+00   9.9999999999999989e-01   9.9999999999999989e-01   9.9999999999999989e-01   9.9999999999999989e-01   1.0000000000000000e+00   1.0000000000000000e+00   9.9999999999999989e-01   9.9999999999999989e-01   1.0000000000000000e+00   1.0000000000000000e+00   9.9999999999999989e-01   9.9999999999999989e-01   9.9999999999999978e-01   9.9999999999999978e-01   1.0000000000000000e+00   1.0000000000000000e+00   9.9999999999999989e-01   9.9999999999999989e-01   1.0000000000000000e+00   1.0000000000000000e+00   9.9999999999999989e-01   9.9999999999999989e-01   9.9999999999999989e-01   9.9999999999999989e-01   1.0000000000000000e+00   1.0000000000000000e+00   9.9999999999999989e-01   9.9999999999999989e-01   1.0000000000000000e+00   1.0000000000000000e+00   9.9999999999999989e-01   9.9999999999999989e-01   9.9999999999999989e-01   9.9999999999999989e-01   1.0000000000000000e+00   1.0000000000000000e+00   9.9999999999999978e-01   9.9999999999999978e-01   1.0000000000000000e+00   1.0000000000000000e+00   9.9999999999999989e-01   9.9999999999999989e-01   9.9999999999999989e-01   9.9999999999999989e-01   1.0000000000000000e+00   1.0000000000000000e+00   9.9999999999999989e-01   9.9999999999999989e-01   1.0000000000000000e+00   1.0000000000000000e+00   9.9999999999999989e-01   9.9999999999999989e-01   9.9999999999999989e-01   9.9999999999999989e-01   1.0000000000000000e+00   1.0000000000000000e+00   9.9999999999999989e-01   9.9999999999999989e-01   1.0000000000000000e+00   1.0000000000000000e+00   9.9999999999999978e-01   9.9999999999999978e-01   9.9999999999999989e-01   9.9999999999999989e-01   1.0000000000000000e+00   1.0000000000000000e+00   9.9999999999999989e-01   9.9999999999999989e-01   1.0000000000000000e+00   1.0000000000000000e+00   9.9999999999999989e-01   9.9999999999999989e-01   9.9999999999999989e-01   9.9999999999999989e-01   1.0000000000000000e+00   1.0000000000000000e+00   9.9999999999999989e-01   9.9999999999999989e-01   9.9999999999999989e-01   9.9999999999999989e-01   1.0000000000000000e+00   1.0000000000000000e+00   9.9999999999999978e-01   9.9999999999999978e-01   1.0000000000000000e+00   1.0000000000000000e+00   9.9999999999999989e-01   9.9999999999999989e-01   9.9999999999999989e-01   9.9999999999999989e-01   1.0000000000000000e+00   1.0000000000000000e+00   9.9999999999999989e-01   9.9999999999999989e-01   1.0000000000000000e+00   1.0000000000000000e+00   9.9999999999999989e-01   9.9999999999999989e-01   9.9999999999999989e-01   9.9999999999999989e-01   1.0000000000000000e+00   1.0000000000000000e+00   9.9999999999999989e-01   9.9999999999999989e-01   1.0000000000000000e+00   1.0000000000000000e+00   9.9999999999999978e-01   9.9999999999999978e-01   9.9999999999999989e-01   9.9999999999999989e-01   1.0000000000000000e+00   1.0000000000000000e+00   9.9999999999999989e-01   9.9999999999999989e-01   1.0000000000000000e+00   1.0000000000000000e+00   9.9999999999999989e-01   9.9999999999999756e-01   9.9999999999999756e-01   9.9999999999998079e-01   9.9999999999999767e-01   9.9999999999998090e-01   9.9999999999999756e-01   9.9999999999998068e-01   9.9999999999999756e-01   9.9999999999998068e-01   9.9999999999999745e-01   9.9999999999998035e-01   9.9999999999999734e-01   9.9999999999998024e-01   9.9999999999999734e-01   9.9999999999998013e-01   9.9999999999999745e-01   9.9999999999997946e-01   9.9999999999999734e-01   9.9999999999997902e-01   9.9999999999999734e-01   9.9999999999997835e-01   9.9999999999999711e-01   9.9999999999997768e-01   9.9999999999999700e-01   9.9999999999997691e-01   9.9999999999999689e-01   9.9999999999997613e-01   9.9999999999999689e-01   9.9999999999997546e-01   9.9999999999999700e-01   9.9999999999997502e-01   9.9999999999999678e-01   9.9999999999997480e-01   9.9999999999999689e-01   9.9999999999997458e-01   9.9999999999999689e-01   9.9999999999997491e-01   9.9999999999999689e-01   9.9999999999997546e-01   9.9999999999999700e-01   9.9999999999997646e-01   9.9999999999999734e-01   9.9999999999997768e-01   9.9999999999999734e-01   9.9999999999997891e-01   9.9999999999999756e-01   9.9999999999998013e-01   9.9999999999999756e-01   9.9999999999998124e-01   9.9999999999999778e-01   9.9999999999998168e-01   9.9999999999999756e-01   9.9999999999998190e-01   9.9999999999999767e-01   9.9999999999998124e-01   9.9999999999999734e-01   9.9999999999998013e-01   9.9999999999999689e-01   9.9999999999997791e-01   9.9999999999999656e-01   9.9999999999997502e-01   9.9999999999999623e-01   9.9999999999997091e-01   9.9999999999999589e-01   9.9999999999996692e-01   9.9999999999999512e-01   9.9999999999996259e-01   9.9999999999999478e-01   9.9999999999995948e-01   9.9999999999999512e-01   9.9999999999995826e-01   9.9999999999999512e-01   9.9999999999995903e-01   9.9999999999999589e-01   9.9999999999996292e-01   9.9999999999999634e-01   9.9999999999996858e-01   9.9999999999999711e-01   9.9999999999997491e-01   9.9999999999999778e-01   9.9999999999998090e-01   9.9999999999999811e-01   9.9999999999998512e-01   9.9999999999999867e-01   9.9999999999998801e-01   9.9999999999999856e-01   9.9999999999998956e-01   9.9999999999999856e-01   9.9999999999998923e-01   9.9999999999999822e-01   9.9999999999998757e-01   9.9999999999999711e-01   9.9999999999998224e-01   9.9999999999999545e-01   9.9999999999997113e-01   9.9999999999999278e-01   9.9999999999994915e-01   9.9999999999998979e-01   9.9999999999991840e-01   9.9999999999999012e-01   9.9999999999990097e-01   9.9999999999999412e-01   9.9999999999992273e-01   9.9999999999999867e-01   9.9999999999997058e-01   9.9999999999999978e-01   9.9999999999999678e-01   9.9999999999999989e-01   9.9999999999999978e-01   1.0000000000000000e+00   1.0000000000000000e+00   9.9999999999999989e-01   9.9999999999999989e-01   1.0000000000000000e+00   1.0000000000000000e+00   9.9999999999999978e-01   9.9999999999999978e-01   9.9999999999999989e-01   9.9999999999999989e-01   1.0000000000000000e+00   1.0000000000000000e+00   9.9999999999999989e-01   9.9999999999999989e-01   1.0000000000000000e+00   1.0000000000000000e+00   9.9999999999999989e-01   9.9999999999999989e-01   9.9999999999999989e-01   9.9999999999999989e-01   1.0000000000000000e+00   1.0000000000000000e+00   9.9999999999999989e-01   9.9999999999999989e-01   9.9999999999999989e-01   9.9999999999999989e-01   1.0000000000000000e+00   1.0000000000000000e+00   9.9999999999999978e-01   9.9999999999999978e-01   1.0000000000000000e+00   1.0000000000000000e+00   9.9999999999999989e-01   9.9999999999999989e-01   9.9999999999999978e-01   9.9999999999999889e-01   9.9999999999999722e-01   9.9999999999998623e-01   9.9999999999999045e-01   9.9999999999992273e-01   9.9999999999999190e-01   9.9999999999988365e-01   9.9999999999999811e-01   9.9999999999995437e-01   9.9999999999999978e-01   9.9999999999999512e-01   1.0000000000000000e+00   1.0000000000000000e+00   9.9999999999999989e-01   9.9999999999999989e-01   1.0000000000000000e+00   1.0000000000000000e+00   9.9999999999999978e-01   9.9999999999999978e-01   9.9999999999999989e-01   9.9999999999999989e-01   1.0000000000000000e+00   1.0000000000000000e+00   9.9999999999999989e-01   9.9999999999999989e-01   1.0000000000000000e+00   1.0000000000000000e+00   9.9999999999999989e-01   9.9999999999999989e-01   9.9999999976905729e-01   9.9999999976827181e-01   9.9999999375789661e-01   9.9999999976751830e-01   9.9999999373950033e-01   9.9999999976642184e-01   9.9999999371659776e-01   9.9999999976460985e-01   9.9999999367843451e-01   9.9999999976164766e-01   9.9999999361289071e-01   9.9999999975728238e-01   9.9999999351039637e-01   9.9999999975127185e-01   9.9999999336384904e-01   9.9999999974351106e-01   9.9999999316842136e-01   9.9999999973398435e-01   9.9999999292184927e-01   9.9999999972310272e-01   9.9999999262992134e-01   9.9999999971159992e-01   9.9999999230941605e-01   9.9999999970049169e-01   9.9999999198658884e-01   9.9999999969064979e-01   9.9999999168844778e-01   9.9999999968306696e-01   9.9999999144150509e-01   9.9999999967883046e-01   9.9999999127519645e-01   9.9999999967921593e-01   9.9999999122477379e-01   9.9999999968505315e-01   9.9999999132131900e-01   9.9999999969657660e-01   9.9999999158058495e-01   9.9999999971300679e-01   9.9999999199320821e-01   9.9999999973269982e-01   9.9999999252226957e-01   9.9999999975316456e-01   9.9999999310502163e-01   9.9999999977182974e-01   9.9999999366720926e-01   9.9999999978622212e-01   9.9999999413659491e-01   9.9999999979423959e-01   9.9999999445004539e-01   9.9999999979394572e-01   9.9999999455233723e-01   9.9999999978352860e-01   9.9999999439195109e-01   9.9999999976107334e-01   9.9999999391482797e-01   9.9999999972481368e-01   9.9999999306420539e-01   9.9999999967366782e-01   9.9999999179096544e-01   9.9999999960907315e-01   9.9999999009099105e-01   9.9999999953676466e-01   9.9999998806374590e-01   9.9999999946737295e-01   9.9999998595432960e-01   9.9999999941526230e-01   9.9999998414282065e-01   9.9999999939785300e-01   9.9999998312126082e-01   9.9999999942890916e-01   9.9999998338339902e-01   9.9999999950739993e-01   9.9999998512307275e-01   9.9999999961317865e-01   9.9999998796323109e-01   9.9999999971851505e-01   9.9999999111024540e-01   9.9999999980325049e-01   9.9999999383158766e-01   9.9999999986082799e-01   9.9999999578305498e-01   9.9999999989389998e-01   9.9999999697564279e-01   9.9999999990726651e-01   9.9999999756318836e-01   9.9999999990215493e-01   9.9999999765217529e-01   9.9999999987101607e-01   9.9999999716417876e-01   9.9999999978275100e-01   9.9999999556309971e-01   9.9999999952022900e-01   9.9999999068235168e-01   9.9999999875703982e-01   9.9999997495146442e-01   9.9999999733791356e-01   9.9999993511073093e-01   9.9999999588920985e-01   9.9999987330396967e-01   9.9999999646478588e-01   9.9999984657076812e-01   9.9999999904649128e-01   9.9999992346195243e-01   9.9999999996447886e-01   9.9999999146014706e-01   9.9999999999991041e-01   9.9999999989797106e-01   9.9999999999999989e-01   9.9999999999992906e-01   9.9999999999999989e-01   9.9999999999999989e-01   9.9999999999999989e-01   9.9999999999999989e-01   1.0000000000000000e+00   1.0000000000000000e+00   9.9999999999999989e-01   9.9999999999999989e-01   9.9999999999999989e-01   9.9999999999999989e-01   9.9999999999999989e-01   9.9999999999999989e-01   9.9999999999999989e-01   9.9999999999999989e-01   9.9999999999999989e-01   9.9999999999999989e-01   9.9999999999999989e-01   9.9999999999999989e-01   9.9999999999999989e-01   9.9999999999999989e-01   9.9999999999999989e-01   9.9999999999999989e-01   9.9999999999999989e-01   9.9999999999999989e-01   9.9999999999999989e-01   9.9999999999999989e-01   1.0000000000000000e+00   9.9999999999999989e-01   9.9999999999999145e-01   9.9999999999996247e-01   9.9999999999759870e-01   9.9999999998229849e-01   9.9999999980266052e-01   9.9999999762862191e-01   9.9999999587343824e-01   9.9999991832159141e-01   9.9999998129668810e-01   9.9999934879945318e-01   9.9999998371740417e-01   9.9999889758276383e-01   9.9999999744139600e-01   9.9999962645964435e-01   9.9999999992741162e-01   9.9999997598953072e-01   9.9999999999959588e-01   9.9999999971254316e-01   9.9999999999999944e-01   9.9999999999929923e-01   9.9999999999999989e-01   9.9999999999999956e-01   1.0000000000000000e+00   1.0000000000000000e+00   9.9999999999999989e-01   9.9999999999999989e-01   9.9999999999999989e-01   9.9999999999999989e-01   9.9999999999999989e-01   9.9999999999999989e-01   9.9999999999999989e-01   9.9999999999999989e-01   9.9999999999999989e-01   9.9999999999999989e-01   9.9999999999999989e-01   9.9057715285354109e-01   9.9057454499724140e-01   6.8841067090919450e-01   9.9056115592849792e-01   6.8838858521058355e-01   9.9051104284442415e-01   6.8803097030150773e-01   9.9040123311607164e-01   6.8700835410889138e-01   9.9021655906850992e-01   6.8508206759190449e-01   9.8994819778246690e-01   6.8215287690056214e-01   9.8958084866012863e-01   6.7813357190055623e-01   9.8910622353762834e-01   6.7297416607779514e-01   9.8853889587594224e-01   6.6683716018883454e-01   9.8792903210719030e-01   6.6023923755003799e-01   9.8733419483458951e-01   6.5384418782374598e-01   9.8679656950923278e-01   6.4814120001693754e-01   9.8635015378555402e-01   6.4338668797659793e-01   9.8605845718835949e-01   6.3992889489168969e-01   9.8600289712189249e-01   6.3834876124601092e-01   9.8625347421623411e-01   6.3931606528883145e-01   9.8683413263020225e-01   6.4334841764740380e-01   9.8772177364272018e-01   6.5075776045322076e-01   9.8882253844784773e-01   6.6148303860251634e-01   9.8998939317430745e-01   6.7484503678807195e-01   9.9106864201651124e-01   6.8948652217154360e-01   9.9192822757294341e-01   7.0348570980334468e-01   9.9245784740856768e-01   7.1439890835613684e-01   9.9256537259535027e-01   7.1958582811833127e-01   9.9215449333654837e-01   7.1680022696413981e-01   9.9110947314780351e-01   7.0491943757864040e-01   9.8928720195753306e-01   6.8441451965027067e-01   9.8654389120302688e-01   6.5727900027870656e-01   9.8286411398786544e-01   6.2667987207753639e-01   9.7855375961914060e-01   5.9654561497853187e-01   9.7420300523401926e-01   5.7038473812000789e-01   9.7055573559893549e-01   5.5035816625932421e-01   9.6870961695887847e-01   5.3829145990412508e-01   9.6990697085820954e-01   5.3709382932517546e-01   9.7446127850104958e-01   5.5029435526944004e-01   9.8108642007275337e-01   5.8064915379669602e-01   9.8763742215584460e-01   6.2847681752586637e-01   9.9257757178816930e-01   6.9023238910217410e-01   9.9559605303600618e-01   7.5741137948434945e-01   9.9715480774631293e-01   8.1637704262094879e-01   9.9779837719602804e-01   8.5465812127297414e-01   9.9779377718470275e-01   8.6699507638052953e-01   9.9701366589671359e-01   8.5037013086425450e-01   9.9461783499339240e-01   7.9940251055535294e-01   9.8760936534948796e-01   7.1233031657018187e-01   9.6877219247866653e-01   6.0253603197033612e-01   9.3900479010049442e-01   5.0522354339468012e-01   9.2582586152159430e-01   4.6155818097262180e-01   9.4997559528277098e-01   4.8327145363119611e-01   9.9110798171686787e-01   6.4050237799202581e-01   9.9982009614037537e-01   9.4028097422745771e-01   9.9999972558894401e-01   9.9956984108473024e-01   9.9999999997766964e-01   9.9999982153747713e-01   1.0000000000000000e+00   9.9999999999654710e-01   9.9999999999999989e-01   9.9999999999999989e-01   1.0000000000000000e+00   1.0000000000000000e+00   1.0000000000000000e+00   1.0000000000000000e+00   9.9999999999999989e-01   9.9999999999999989e-01   1.0000000000000000e+00   1.0000000000000000e+00   9.9999999999999989e-01   9.9999999999999989e-01   1.0000000000000000e+00   1.0000000000000000e+00   1.0000000000000000e+00   1.0000000000000000e+00   9.9999999999999989e-01   9.9999999999999989e-01   1.0000000000000000e+00   1.0000000000000000e+00   1.0000000000000000e+00   1.0000000000000000e+00   9.9999999999997946e-01   9.9999999999991263e-01   9.9999999988012556e-01   9.9999999917818261e-01   9.9999969036497260e-01   9.9999664951282674e-01   9.9980587821211353e-01   9.9662030522955847e-01   9.7765017778419216e-01   7.8084824180825563e-01   7.8153802653222237e-01   4.1262972948339083e-01   6.9684939753163144e-01   3.3887430381987937e-01   7.0022182514502396e-01   3.3079271861888060e-01   8.1552487573871602e-01   3.4402900365376471e-01   9.9121084134221804e-01   5.0686343021315727e-01   9.9997157829815564e-01   9.4776645354888889e-01   9.9999998706549031e-01   9.9991641865357817e-01   9.9999999999889932e-01   9.9999998460973072e-01   1.0000000000000000e+00   9.9999999999938638e-01   1.0000000000000000e+00   1.0000000000000000e+00   9.9999999999999989e-01   9.9999999999999989e-01   1.0000000000000000e+00   1.0000000000000000e+00   9.9999999999999989e-01   9.9999999999999989e-01   1.0000000000000000e+00   1.0000000000000000e+00   1.0000000000000000e+00   1.0000000000000000e+00   9.9999999999999989e-01   1.2438861759335080e-03   1.2443392614384190e-03   6.0419961677623179e-06   1.2408725869005966e-03   6.0381920403325858e-06   1.2298710088272566e-03   6.0048439330199575e-06   1.2091799878188683e-03   5.9277303448660810e-06   1.1783603277054910e-03   5.8015606621923208e-06   1.1373842918102064e-03   5.6274529924386441e-06   1.0868274012375834e-03   5.4051269229119878e-06   1.0297619178907813e-03   5.1429951746969262e-06   9.7211030892418993e-04   4.8637919182562906e-06   9.1987522674517408e-04   4.6003957963984083e-06   8.7612001302736497e-04   4.3751957267875348e-06   8.4162238319295446e-04   4.1950484333623060e-06   8.1794385193440877e-04   4.0626872321961969e-06   8.0860855163378254e-04   3.9921159451043265e-06   8.1804102369674914e-04   4.0042612284666799e-06   8.5075964297859341e-04   4.1222343641622583e-06   9.1184485122920223e-04   4.3689964549139156e-06   1.0063298164840104e-03   4.7727031385521217e-06   1.1359336402274600e-03   5.3531012260225426e-06   1.2953125371993150e-03   6.1034156900915031e-06   1.4666815212622435e-03   6.9688126360841398e-06   1.6138663629104984e-03   7.8146786283243356e-06   1.6861172813662784e-03   8.4094778480536797e-06   1.6407070276448033e-03   8.4963896707646019e-06   1.4738051485997104e-03   7.9450492832533470e-06   1.2287814679340368e-03   6.8744565488443321e-06   9.6804500499435764e-04   5.5819618885455374e-06   7.4074047596225934e-04   4.3578276412899646e-06   5.6968402141291375e-04   3.3774784786907057e-06   4.5418419756002948e-04   2.6904815075371831e-06   3.8260933660820090e-04   2.2560679405203565e-06   3.4723839530019962e-04   2.0206557741209155e-06   3.5065265103960869e-04   1.9821757970458114e-06   4.0781566493262400e-04   2.2069715593745851e-06   5.5585151298209734e-04   2.8626491304454636e-06   8.7952387984758596e-04   4.3385996195133281e-06   1.5537173893975977e-03   7.4997271952426089e-06   2.8550218558587022e-03   1.4035991789396185e-05   4.9456934774819794e-03   2.6172006043610283e-05   7.2891085598258869e-03   4.3848831439310031e-05   8.4031475930092907e-03   6.0031673547363468e-05   7.1990072361865481e-03   6.2692460814769049e-05   4.5951980571990641e-03   4.9040014463689704e-05   2.3148431746407940e-03   3.0540811236777023e-05   1.0440378947076758e-03   1.6926509046869910e-05   5.4623849831757687e-04   1.0120234721957186e-05   4.7518697536922750e-04   9.0182144565538920e-06   9.2739688912851770e-04   1.6439612681033257e-05   6.9222404324873459e-03   7.9607695052238040e-05   2.1346472465652061e-01   1.9613037436374916e-03   9.0797618021100690e-01   2.1955990537139866e-01   9.9999004387706192e-01   9.6696871369619330e-01   9.99999999