<?xml version="1.0"?>
<VTKFile type="UnstructuredGrid"  version="0.1"  >
<UnstructuredGrid>
<Piece  NumberOfPoints="2433" NumberOfCells="4671">
<Points>
<DataArray  type="Float64"  NumberOfComponents="3"  format="ascii">0.7599999999999999 0 0  0.7682608695652173 0 0  0.7682608695652173 0.008333333333333333 0  0.7599999999999999 0.008333333333333333 0  0.7765217391304348 0 0  0.7765217391304348 0.008333333333333333 0  0.7847826086956522 0 0  0.7847826086956522 0.008333333333333333 0  0.7930434782608695 0 0  0.7930434782608695 0.008333333333333333 0  0.8013043478260868 0 0  0.8013043478260868 0.008333333333333333 0  0.8095652173913043 0 0  0.8095652173913043 0.008333333333333333 0  0.8178260869565217 0 0  0.8178260869565217 0.008333333333333333 0  0.8260869565217391 0 0  0.8260869565217391 0.008333333333333333 0  0.8343478260869565 0 0  0.8343478260869565 0.008333333333333333 0  0.8426086956521739 0 0  0.8426086956521739 0.008333333333333333 0  0.8508695652173912 0 0  0.8508695652173912 0.008333333333333333 0  0.8591304347826086 0 0  0.8591304347826086 0.008333333333333333 0  0.8673913043478261 0 0  0.8673913043478261 0.008333333333333333 0  0.8756521739130434 0 0  0.8756521739130434 0.008333333333333333 0  0.8839130434782608 0 0  0.8839130434782608 0.008333333333333333 0  0.8921739130434783 0 0  0.8921739130434783 0.008333333333333333 0  0.9004347826086956 0 0  0.9004347826086956 0.008333333333333333 0  0.908695652173913 0 0  0.908695652173913 0.008333333333333333 0  0.9169565217391303 0 0  0.9169565217391303 0.008333333333333333 0  0.9252173913043478 0 0  0.9252173913043478 0.008333333333333333 0  0.9334782608695652 0 0  0.9334782608695652 0.008333333333333333 0  0.9417391304347826 0 0  0.9417391304347826 0.008333333333333333 0  0.95 0 0  0.95 0.008333333333333333 0  0.9582608695652173 0 0  0.9582608695652173 0.008333333333333333 0  0.9665217391304347 0 0  0.9665217391304347 0.008333333333333333 0  0.9747826086956521 0 0  0.9747826086956521 0.008333333333333333 0  0.9830434782608696 0 0  0.9830434782608696 0.008333333333333333 0  0.991304347826087 0 0  0.991304347826087 0.008333333333333333 0  0.9995652173913042 0 0  0.9995652173913042 0.008333333333333333 0  1.007826086956522 0 0  1.007826086956522 0.008333333333333333 0  1.016086956521739 0 0  1.016086956521739 0.008333333333333333 0  1.024347826086957 0.008333333333333333 0  0.7682608695652173 0.01666666666666667 0  0.7599999999999999 0.01666666666666667 0  0.7765217391304348 0.01666666666666667 0  0.7847826086956522 0.01666666666666667 0  0.7930434782608695 0.01666666666666667 0  0.8013043478260868 0.01666666666666667 0  0.8095652173913043 0.01666666666666667 0  0.8178260869565217 0.01666666666666667 0  0.8260869565217391 0.01666666666666667 0  0.8343478260869565 0.01666666666666667 0  0.8426086956521739 0.01666666666666667 0  0.8508695652173912 0.01666666666666667 0  0.8591304347826086 0.01666666666666667 0  0.8673913043478261 0.01666666666666667 0  0.8756521739130434 0.01666666666666667 0  0.8839130434782608 0.01666666666666667 0  0.8921739130434783 0.01666666666666667 0  0.9004347826086956 0.01666666666666667 0  0.908695652173913 0.01666666666666667 0  0.9169565217391303 0.01666666666666667 0  0.9252173913043478 0.01666666666666667 0  0.9334782608695652 0.01666666666666667 0  0.9417391304347826 0.01666666666666667 0  0.95 0.01666666666666667 0  0.9582608695652173 0.01666666666666667 0  0.9665217391304347 0.01666666666666667 0  0.9747826086956521 0.01666666666666667 0  0.9830434782608696 0.01666666666666667 0  0.991304347826087 0.01666666666666667 0  0.9995652173913042 0.01666666666666667 0  1.007826086956522 0.01666666666666667 0  1.016086956521739 0.01666666666666667 0  1.024347826086957 0.01666666666666667 0  1.032608695652174 0.01666666666666667 0  0.7682608695652173 0.025 0  0.7765217391304348 0.025 0  0.7847826086956522 0.025 0  0.7930434782608695 0.025 0  0.8013043478260868 0.025 0  0.8095652173913043 0.025 0  0.8178260869565217 0.025 0  0.8260869565217391 0.025 0  0.8343478260869565 0.025 0  0.8426086956521739 0.025 0  0.8508695652173912 0.025 0  0.8591304347826086 0.025 0  0.8673913043478261 0.025 0  0.8756521739130434 0.025 0  0.8839130434782608 0.025 0  0.8921739130434783 0.025 0  0.9004347826086956 0.025 0  0.908695652173913 0.025 0  0.9169565217391303 0.025 0  0.9252173913043478 0.025 0  0.9334782608695652 0.025 0  0.9417391304347826 0.025 0  0.95 0.025 0  0.9582608695652173 0.025 0  0.9665217391304347 0.025 0  0.9747826086956521 0.025 0  0.9830434782608696 0.025 0  0.991304347826087 0.025 0  0.9995652173913042 0.025 0  1.007826086956522 0.025 0  1.016086956521739 0.025 0  1.024347826086957 0.025 0  1.032608695652174 0.025 0  1.040869565217391 0.025 0  0.7765217391304348 0.03333333333333333 0  0.7847826086956522 0.03333333333333333 0  0.7930434782608695 0.03333333333333333 0  0.8013043478260868 0.03333333333333333 0  0.8095652173913043 0.03333333333333333 0  0.8178260869565217 0.03333333333333333 0  0.8260869565217391 0.03333333333333333 0  0.8343478260869565 0.03333333333333333 0  0.8426086956521739 0.03333333333333333 0  0.8508695652173912 0.03333333333333333 0  0.8591304347826086 0.03333333333333333 0  0.8673913043478261 0.03333333333333333 0  0.8756521739130434 0.03333333333333333 0  0.8839130434782608 0.03333333333333333 0  0.8921739130434783 0.03333333333333333 0  0.9004347826086956 0.03333333333333333 0  0.908695652173913 0.03333333333333333 0  0.9169565217391303 0.03333333333333333 0  0.9252173913043478 0.03333333333333333 0  0.9334782608695652 0.03333333333333333 0  0.9417391304347826 0.03333333333333333 0  0.95 0.03333333333333333 0  0.9582608695652173 0.03333333333333333 0  0.9665217391304347 0.03333333333333333 0  0.9747826086956521 0.03333333333333333 0  0.9830434782608696 0.03333333333333333 0  0.991304347826087 0.03333333333333333 0  0.9995652173913042 0.03333333333333333 0  1.007826086956522 0.03333333333333333 0  1.016086956521739 0.03333333333333333 0  1.024347826086957 0.03333333333333333 0  1.032608695652174 0.03333333333333333 0  1.040869565217391 0.03333333333333333 0  1.049130434782609 0.03333333333333333 0  0.7847826086956522 0.04166666666666666 0  0.7930434782608695 0.04166666666666666 0  0.8013043478260868 0.04166666666666666 0  0.8095652173913043 0.04166666666666666 0  0.8178260869565217 0.04166666666666666 0  0.8260869565217391 0.04166666666666666 0  0.8343478260869565 0.04166666666666666 0  0.8426086956521739 0.04166666666666666 0  0.8508695652173912 0.04166666666666666 0  0.8591304347826086 0.04166666666666666 0  0.8673913043478261 0.04166666666666666 0  0.8756521739130434 0.04166666666666666 0  0.8839130434782608 0.04166666666666666 0  0.8921739130434783 0.04166666666666666 0  0.9004347826086956 0.04166666666666666 0  0.908695652173913 0.04166666666666666 0  0.9169565217391303 0.04166666666666666 0  0.9252173913043478 0.04166666666666666 0  0.9334782608695652 0.04166666666666666 0  0.9417391304347826 0.04166666666666666 0  0.95 0.04166666666666666 0  0.9582608695652173 0.04166666666666666 0  0.9665217391304347 0.04166666666666666 0  0.9747826086956521 0.04166666666666666 0  0.9830434782608696 0.04166666666666666 0  0.991304347826087 0.04166666666666666 0  0.9995652173913042 0.04166666666666666 0  1.007826086956522 0.04166666666666666 0  1.016086956521739 0.04166666666666666 0  1.024347826086957 0.04166666666666666 0  1.032608695652174 0.04166666666666666 0  1.040869565217391 0.04166666666666666 0  1.049130434782609 0.04166666666666666 0  1.057391304347826 0.04166666666666666 0  0.7930434782608695 0.05 0  0.8013043478260868 0.05 0  0.8095652173913043 0.05 0  0.8178260869565217 0.05 0  0.8260869565217391 0.05 0  0.8343478260869565 0.05 0  0.8426086956521739 0.05 0  0.8508695652173912 0.05 0  0.8591304347826086 0.05 0  0.8673913043478261 0.05 0  0.8756521739130434 0.05 0  0.8839130434782608 0.05 0  0.8921739130434783 0.05 0  0.9004347826086956 0.05 0  0.908695652173913 0.05 0  0.9169565217391303 0.05 0  0.9252173913043478 0.05 0  0.9334782608695652 0.05 0  0.9417391304347826 0.05 0  0.95 0.05 0  0.9582608695652173 0.05 0  0.9665217391304347 0.05 0  0.9747826086956521 0.05 0  0.9830434782608696 0.05 0  0.991304347826087 0.05 0  0.9995652173913042 0.05 0  1.007826086956522 0.05 0  1.016086956521739 0.05 0  1.024347826086957 0.05 0  1.032608695652174 0.05 0  1.040869565217391 0.05 0  1.049130434782609 0.05 0  1.057391304347826 0.05 0  1.065652173913043 0.05 0  0.8013043478260868 0.05833333333333333 0  0.8095652173913043 0.05833333333333333 0  0.8178260869565217 0.05833333333333333 0  0.8260869565217391 0.05833333333333333 0  0.8343478260869565 0.05833333333333333 0  0.8426086956521739 0.05833333333333333 0  0.8508695652173912 0.05833333333333333 0  0.8591304347826086 0.05833333333333333 0  0.8673913043478261 0.05833333333333333 0  0.8756521739130434 0.05833333333333333 0  0.8839130434782608 0.05833333333333333 0  0.8921739130434783 0.05833333333333333 0  0.9004347826086956 0.05833333333333333 0  0.908695652173913 0.05833333333333333 0  0.9169565217391303 0.05833333333333333 0  0.9252173913043478 0.05833333333333333 0  0.9334782608695652 0.05833333333333333 0  0.9417391304347826 0.05833333333333333 0  0.95 0.05833333333333333 0  0.9582608695652173 0.05833333333333333 0  0.9665217391304347 0.05833333333333333 0  0.9747826086956521 0.05833333333333333 0  0.9830434782608696 0.05833333333333333 0  0.991304347826087 0.05833333333333333 0  0.9995652173913042 0.05833333333333333 0  1.007826086956522 0.05833333333333333 0  1.016086956521739 0.05833333333333333 0  1.024347826086957 0.05833333333333333 0  1.032608695652174 0.05833333333333333 0  1.040869565217391 0.05833333333333333 0  1.049130434782609 0.05833333333333333 0  1.057391304347826 0.05833333333333333 0  1.065652173913043 0.05833333333333333 0  1.073913043478261 0.05833333333333333 0  0.8095652173913043 0.06666666666666667 0  0.8178260869565217 0.06666666666666667 0  0.8260869565217391 0.06666666666666667 0  0.8343478260869565 0.06666666666666667 0  0.8426086956521
[...]
<CellData  Scalars="rho_bar"> 
<DataArray  type="Float64"  Name="rho_bar"  format="ascii">6.8475301099383645e-01   6.8377349789767006e-01   6.8417976467274155e-01   6.8320071951968675e-01   6.8359433471513986e-01   6.8261735795180223e-01   6.8299173886002951e-01   6.8201831755586906e-01   6.8236765220927786e-01   6.8139904113808503e-01   6.8171812234316820e-01   6.8075540162250914e-01   6.8104026520794481e-01   6.8008429628147782e-01   6.8033094929632432e-01   6.7938267396992547e-01   6.7958689609045564e-01   6.7864747763080324e-01   6.7880374623677842e-01   6.7787464422432475e-01   6.7797737992097507e-01   6.7706001603576371e-01   6.7710326073859806e-01   6.7619901650648340e-01   6.7617765014411224e-01   6.7528756858259520e-01   6.7519790292134829e-01   6.7432238377173426e-01   6.7416414835332439e-01   6.7330266797724048e-01   6.7307864698257880e-01   6.7222988461361388e-01   6.7194650471800599e-01   6.7110830004551592e-01   6.7077494234322554e-01   6.6994438307409931e-01   6.6957402476561600e-01   6.6874740560290491e-01   6.6835570735006478e-01   6.6752863223708392e-01   6.6713452871266155e-01   6.6630187379997741e-01   6.6592686975779947e-01   6.6508280654366814e-01   6.6475167152246917e-01   6.6388973256546768e-01   6.6362899125400543e-01   6.6274241756324281e-01   6.6257993914974822e-01   6.6166198980519453e-01   6.6162448884186564e-01   6.6066903135124400e-01   6.6078066800536972e-01   6.5978267953825898e-01   6.6006247488429637e-01   6.5901839077697821e-01   6.5948023318590410e-01   6.5838791289189924e-01   6.5903945697781585e-01   6.5789826531219164e-01   6.5874168781170117e-01   6.5755242185273843e-01   6.5734824812598935e-01   6.7891201878432961e-01   6.7560463460852260e-01   6.7832618044402493e-01   6.7501433937656141e-01   6.7772736577293169e-01   6.7441257664150889e-01   6.7711097692678657e-01   6.7379434062398347e-01   6.7647219639555822e-01   6.7315488652100020e-01   6.7580766705657114e-01   6.7249039954269485e-01   6.7511423614376032e-01   6.7179764713529400e-01   6.7438927397954329e-01   6.7107411745477230e-01   6.7362920386448122e-01   6.7031658069803157e-01   6.7283028719119498e-01   6.6952156363053195e-01   6.7198780602099173e-01   6.6868447050219648e-01   6.7109713892031253e-01   6.6780057652158253e-01   6.7015371666021584e-01   6.6686480744962295e-01   6.6915516056114466e-01   6.6587384254251514e-01   6.6810111246724835e-01   6.6482638216179379e-01   6.6699434338326391e-01   6.6372430000529625e-01   6.6583975970645193e-01   6.6257180449670172e-01   6.6464521342853633e-01   6.6137602566795894e-01   6.6342054168017128e-01   6.6014613280962675e-01   6.6217820048550924e-01   6.5889394820865688e-01   6.6093242332216429e-01   6.5763304118174026e-01   6.5970026322339426e-01   6.5637975040862873e-01   6.5850060005703137e-01   6.5515241135941826e-01   6.5735457309400991e-01   6.5397191734769811e-01   6.5628379888411248e-01   6.5286018782473243e-01   6.5530954902504857e-01   6.5183951188008959e-01   6.5445006959352936e-01   6.5092966123061236e-01   6.5372020727107283e-01   6.5014716250634341e-01   6.5313002995526537e-01   6.4950372304689519e-01   6.5268546059836818e-01   6.4900688965661968e-01   6.5238735403807702e-01   6.4865895939729645e-01   6.5223236531945339e-01   6.4845814393307510e-01   6.4839724137370747e-01   6.6609037428700912e-01   6.6547629583419532e-01   6.5985514423876912e-01   6.6484810506956404e-01   6.5921909312896865e-01   6.6420040746626785e-01   6.5856438499777392e-01   6.6352944763294630e-01   6.5788702467347471e-01   6.6283123388169607e-01   6.5718300613116032e-01   6.6210337459362600e-01   6.5644963787904942e-01   6.6134313962907165e-01   6.5568438956921082e-01   6.6054791232203758e-01   6.5488502792228065e-01   6.5971374307897446e-01   6.5404811245087491e-01   6.5883591822189136e-01   6.5316931089618524e-01   6.5790848246139388e-01   6.5224255526955088e-01   6.5692639285011467e-01   6.5126202471439032e-01   6.5588621455664320e-01   6.5022306575706790e-01   6.5478800653638192e-01   6.4912454545878828e-01   6.5363437219610976e-01   6.4796819395036631e-01   6.5243122236859652e-01   6.4675921605285336e-01   6.5118645392367180e-01   6.4550498722110561e-01   6.4991064859488257e-01   6.4421553984046531e-01   6.4861608739164256e-01   6.4290258155363900e-01   6.4731772063834603e-01   6.4158040883070466e-01   6.4603248159289861e-01   6.4026522975839506e-01   6.4478043042355127e-01   6.3897641752656986e-01   6.4358366569194192e-01   6.3773578181145285e-01   6.4246624360655569e-01   6.3656780584510808e-01   6.4145102383336638e-01   6.3549681401310532e-01   6.4055813706578224e-01   6.3454500860622309e-01   6.3980277049366951e-01   6.3372965376786916e-01   6.3919583942053926e-01   6.3306346434265437e-01   6.3874282358118617e-01   6.3255364711696171e-01   6.3844475902181275e-01   6.3220279668036183e-01   6.3829767563591722e-01   6.3200832343249080e-01   6.3829309207606089e-01   6.3196342177465048e-01   6.3205587595752299e-01   6.4571674685817737e-01   6.4504210883463209e-01   6.3715568621283869e-01   6.4434572715317151e-01   6.3644723953846771e-01   6.4362340987930355e-01   6.3571291408990693e-01   6.4287233691784706e-01   6.3494994661434767e-01   6.4208974602307189e-01   6.3415545893063374e-01   6.4127414649546366e-01   6.3332803104813062e-01   6.4042319592179608e-01   6.3246586299270224e-01   6.3953395947542280e-01   6.3156673653445139e-01   6.3860092680360769e-01   6.3062602864046080e-01   6.3761696099878706e-01   6.2963677829758835e-01   6.3657493971704004e-01   6.2859065667555569e-01   6.3547102905468711e-01   6.2748213944666931e-01   6.3430486224905847e-01   6.2630937711568457e-01   6.3308021206984011e-01   6.2507524016403826e-01   6.3180336938182080e-01   6.2378546049892247e-01   6.3048348074540717e-01   6.2244880783108392e-01   6.2913125986212548e-01   6.2107563034591051e-01   6.2775975361610914e-01   6.1967853108405280e-01   6.2638371371532942e-01   6.1827158370448032e-01   6.2502085217257342e-01   6.1687169796927710e-01   6.2369159720978962e-01   6.1549836428248739e-01   6.2242046100743420e-01   6.1417540146486138e-01   6.2123421489693476e-01   6.1292989878718851e-01   6.2015936421573714e-01   6.1179038428506782e-01   6.1921773733701457e-01   6.1078152373178551e-01   6.1842602922600698e-01   6.0992250414288929e-01   6.1779498099985508e-01   6.0922596649169891e-01   6.1733055296989636e-01   6.0869960567588544e-01   6.1703313346519839e-01   6.0834544675772573e-01   6.1689896344760964e-01   6.0816115075061450e-01   6.1691891414771438e-01   6.0813925431487148e-01   6.1707897779053145e-01   6.0826716123249580e-01   6.0852676709894382e-01   6.1852731169561037e-01   6.1776351293547738e-01   6.0772595643909721e-01   6.1697056658422533e-01   6.0691562354753925e-01   6.1614573715315069e-01   6.0607284557357211e-01   6.1528752544195675e-01   6.0519621138517044e-01   6.1439466166063794e-01   6.0428448668726864e-01   6.1346650881680420e-01   6.0333749667778713e-01   6.1250072378846476e-01   6.0235393674321991e-01   6.1149216697050146e-01   6.0133023280584874e-01   6.1043125500620898e-01   6.0025773325679899e-01   6.0930857794042126e-01   5.9912559587089054e-01   6.0811893853413257e-01   5.9792594250709474e-01   6.0686274195279821e-01   5.9665752404342254e-01   6.0554446859917010e-01   5.9532383876292261e-01   6.0417213189618102e-01   5.9393255301045222e-01   6.0275554883644356e-01   5.9249328524047851e-01   6.0130662073743013e-01   5.9101778303009056e-01   5.9983847847026006e-01   5.8951883893742285e-01   5.9836637807668913e-01   5.8801120982454869e-01   5.9690779863058363e-01   5.8651139637778915e-01   5.9548411004271795e-01   5.8503955866089907e-01   5.9412142963134407e-01   5.8362030014207622e-01   5.9285106531433374e-01   5.8228465140896635e-01   5.9170360907560893e-01   5.8106566678233063e-01   5.9070394605820886e-01   5.7999213520611081e-01   5.8986929272943778e-01   5.7908412950498755e-01   5.8921076288156626e-01   5.7835484538495074e-01   5.8873363299899395e-01   5.7781107583817848e-01   5.8843880477272081e-01   5.7745524041658314e-01   5.8832191002693457e-01   5.7728457404521993e-01   5.8837413699281571e-01   5.7729194231255909e-01   5.8858006199256185e-01   5.7746404104980742e-01   5.8891829010279095e-01   5.7778074531300816e-01   5.7821713504846017e-01   5.8491858797312912e-01   5.8403470170411886e-01   5.7207444720870293e-01   5.8311531310255449e-01   5.7113139189014683e-01   5.8215934719855378e-01   5.7015067806689268e-01   5.8116694839098970e-01   5.6913252255581115e-01   5.8013806526094969e-01   5.6807715646784185e-01   5.7907239161541391e-01   5.6698506652126834e-01   5.7796529194463220e-01   5.6585384727291654e-01   5.7680597396250932e-01   5.6467515901071008e-01   5.7558155692814006e-01   5.6343523602534917e-01   5.7428584236950886e-01   5.6212430944009339e-01   5.7291980161418099e-01   5.6074108356867081e-01   5.7148974584307755e-01   5.5929099863446141e-01   5.7000488985033870e-01   5.5778289513284840e-01   5.6847680022980762e-01   5.5622828291321669e-01   5.6691805174977672e-01   5.5463975210319605e-01   5.6534269373491908e-01   5.5303128728484297e-01   5.6376591450115265e-01   5.5141770508894050e-01   5.6220554221848917e-01   5.4981601915237155e-01   5.6068281692413202e-01   5.4824611292892678e-01   5.5922519148191452e-01   5.4673328288246137e-01   5.5786742445114668e-01   5.4531021976094218e-01   5.5664578287807009e-01   5.4401517233781749e-01   5.5558773622341662e-01   5.4288062348894384e-01   5.5471134099046226e-01   5.4192811963410481e-01   5.5402706837035487e-01   5.4117013376038525e-01   5.5354008419946721e-01   5.4061342851786431e-01   5.5325067008018269e-01   5.4025951498406388e-01   5.5315510957082037e-01   5.4010620777164231e-01   5.5324417772784751e-01   5.4014609749953479e-01   5.5350260374846072e-01   5.4036631887090503e-01   5.5390638246086821e-01   5.4074560362222224e-01   5.5442779346778548e-01   5.4125587761381444e-01   5.4186958183170608e-01   5.4567490134677066e-01   5.4464015616633155e-01   5.3114800693069553e-01   5.4356553494512461e-01   5.3004312241634344e-01   5.4245138066766752e-01   5.2889735612891065e-01   5.4129885226722596e-01   5.2771190685283298e-01   5.4010806671492717e-01   5.2648728014508617e-01   5.3887652502417549e-01   5.2522270876506261e-01   5.3759418944577830e-01   5.2391176756224100e-01   5.3624707872999688e-01   5.2254175104005240e-01   5.3482752926181565e-01   5.2110166592705187e-01   5.3333743030037073e-01   5.1959060467933049e-01   5.3178424670319235e-01   5.1801474684071835e-01   5.3017891818547225e-01   5.1638452596786610e-01   5.2853402183283071e-01   5.1471232077648998e-01   5.2686366652647731e-01   5.1301228231513685e-01   5.2518251297446217e-01   5.1129917777701939e-01   5.2350659489712315e-01   5.0958894804157906e-01   5.2185384141117508e-01   5.0789891130028642e-01   5.2024610748375277e-01   5.0624978033050705e-01   5.1871055929105248e-01   5.0466663224056973e-01   5.1728282775743883e-01   5.0318172514236337e-01   5.1600204240197889e-01   5.0183363527150382e-01   5.1489893686082866e-01   5.0065776046810084e-01   5.1399183409143179e-01   4.9967659588814839e-01   5.1329110367934050e-01   4.9890287175699005e-01   5.1280131808600704e-01   4.9834276667261057e-01   5.1252273942867288e-01   4.9799800913335601e-01   5.1245114289766636e-01   4.9786559375346834e-01   5.1257796208142803e-01   4.9793861017233199e-01   5.1288767798493806e-01   4.9820402524616436e-01   5.1335671199863375e-01   4.9864160863686335e-01   5.1395496779845373e-01   4.9922302549464892e-01   5.1465519019264661e-01   4.9991883895583178e-01   5.0070489948592045e-01   5.0207084604279251e-01   5.0085897959595060e-01   4.8638774549062386e-01   4.9960497422052147e-01   4.8509804688424674e-01   4.9830967021851430e-01   4.8376594710014409e-01   4.9697368263875774e-01   4.8239235647580136e-01   4.9559520155320719e-01   4.8097645926165211e-01   4.9416779275884914e-01   4.7951470585373696e-01   4.9268027419439725e-01   4.7799857199262474e-01   4.9112584112278301e-01   4.7641978535152535e-01   4.8950630984728655e-01   4.7477759152423210e-01   4.8782988863190879e-01   4.7307862989468819e-01   4.8610802968360006e-01   4.7133341046934812e-01   4.8435449523407009e-01   4.6955527304385664e-01   4.8258413290248647e-01   4.6775887269727012e-01   4.8081293850216145e-01   4.6596024139324599e-01   4.7905767182070053e-01   4.6417608519292725e-01   4.7733729971213723e-01   4.6242490294988520e-01   4.7567397469394013e-01   4.6072770958300113e-01   4.7409487454217553e-01   4.5910989756952991e-01   4.7263306967854168e-01   4.5760154398639608e-01   4.7132574951794137e-01   4.5623770424268062e-01   4.7020386822844240e-01   4.5505167814471620e-01   4.6928695425982314e-01   4.5406679154992091e-01   4.6858544846051559e-01   4.5329611417921079e-01   4.6810418454464781e-01   4.5274638319090993e-01   4.6784314519535303e-01   4.5241908239238049e-01   4.6779805734810032e-01   4.5231146223262803e-01   4.6795983141806730e-01   4.5241585359606534e-01   4.6831389438633780e-01   4.5271997309173845e-01   4.6883787834086110e-01   4.5320462703711040e-01   4.6950383187167044e-01   4.5384448462553334e-01   4.7028394372567556e-01   4.5461145979443129e-01   4.7115520920409398e-01   4.5548106716450482e-01   4.5643223923906989e-01   4.5581649231613519e-01   4.5441017961143765e-01   4.3961136277088897e-01   4.5296134707435726e-01   4.3812416503603135e-01   4.5147037706865123e-01   4.3659490500812220e-01   4.4993635369200358e-01   4.3502356870071368e-01   4.4835575726093613e-01   4.3340827465068643e-01   4.4672306176998949e-01   4.3174561364597180e-01   4.4503436046104755e-01   4.3003176567708734e-01   4.4329233794527628e-01   4.2826772710112276e-01   4.4150481306219652e-01   4.2645992968775615e-01   4.3968342744077032e-01   4.2461889031557970e-01   4.3784201192636929e-01   4.2275768255335855e-01   4.3599610837278713e-01   4.2089144462796912e-01   4.3416221632186858e-01   4.1903637762860912e-01   4.3235819096311340e-01   4.1721009241007184e-01   4.3060342885605762e-01   4.1543139520095512e-01   4.2892040620458388e-01   4.1372161097512794e-01   4.2733516177516545e-01   4.1210500063541555e-01   4.2587782278569403e-01   4.1060943960854523e-01   4.2458024007269479e-01   4.0926484681572151e-01   4.2347048537563436e-01   4.0809997921912106e-01   4.2256771885937489e-01   4.0713640077831015e-01   4.2188323534197991e-01   4.0638770332555957e-01   4.2142207462531533e-01   4.0586085908003261e-01   4.2118449223881416e-01   4.0555777801328541e-01   4.2116612663308961e-01   4.0547560489180973e-01   4.2135805457517805e-01   4.0560720139824302e-01   4.2174612537635997e-01   4.0594035819973451e-01   4.2231068649333470e-01   4.0645817504690290e-01   4.2302699524346465e-01   4.0713841425448233e-01   4.2387006192659532e-01   4.0795680898705694e-01   4.2481697927338014e-01   4.0889022206920156e-01   4.2584732300301015e-01   4.0991786770688998e-01   4.1101994442151751e-01   4.0884514435627856e-01   4.0723924552652363e-01   3.9276966894347559e-01   4.0559318889400175e-01   3.9108545465172573e-01   4.0390709935740909e-01   3.8936304362612506e-01   4.0218021089996342e-01   3.8760277091465328e-01   4.0041137420612455e-01   3.8580448989425387e-01   3.9860100056947689e-01   3.8396916359828237e-01   3.9675267982658352e-01   3.8209971114588515e-01   3.9487452990842448e-01   3.8020309397998847e-01   3.9297763343855480e-01   3.7828938205400653e-01   3.9107569293589756e-01   3.7637140989607587e-01   3.8918399473803622e-01   3.7446378543946002e-01   3.8731927541399186e-01   3.7258273341278070e-01   3.8549933234975253e-01   3.7074547671724040e-01   3.8374369701097333e-01   3.6897078303580566e-01   3.8207387466629811e-01   3.6727895783314563e-01   3.8051410652610868e-01   3.6569264064371465e-01   3.7909068330442025e-01   3.6423627083576449e-01   3.7783042549754742e-01   3.6293529512155703e-01   3.7675688251116096e-01   3.6181325950973825e-01   3.7588769047784421e-01   3.6088910027781673e-01   3.7523376327228375e-01   3.6017537615945544e-01   3.7480057078258511e-01   3.5967920434515882e-01   3.7458847593635530e-01   3.5940257838925538e-01   3.7459351211620190e-01   3.5934309632784683e-01   3.7480733193244248e-01   3.5949407695662439e-01   3.7521706804692995e-01   3.5984472853009014e-01   3.7580545513391894e-01   3.6037987659730125e-01   3.7655194408389775e-01   3.6108118928335503e-01   3.7743450120114302e-01   3.6192784789037280e-01   3.7843240308077525e-01   3.6289950809738630e-01   3.7952581697367432e-01   3.6397662848231666e-01   3.8069571749259135e-01   3.6514051037810075e-01   3.6637227505012293e-01   3.6302623942930873e-01   3.6122794269974884e-01   3.4764502180110674e-01   3.5939657843823336e-01   3.4577597701671481e-01   3.5753375722552955e-01   3.4387841902333843e-01   3.5564160960989438e-01   3.4195513214654388e-01   3.5372358015341709e-01   3.4000972675666835e-01   3.5178531515517103e-01   3.3804782250062826e-01   3.4983480418943852e-01   3.3607676676224246e-01   3.4788307347987124e-01   3.3410666014860396e-01   3.4594313642225261e-01   3.3214972097409129e-01   3.4402983494060801e-01   3.3022006389656383e-01   3.4215918324046535e-01   3.2833300043166824e-01   3.4034846836523536e-01   3.2650512167568524e-01   3.3861607918506714e-01   3.2475391417402671e-01   3.3698205176376012e-01   3.2309826419013699e-01   3.3546778615929895e-01   3.2155817353368427e-01   3.3409577510875049e-01   3.2015470074799418e-01   3.3288800180123090e-01   3.1890872964964379e-01   3.3186399306147174e-01   3.1783959679215601e-01   3.3103871309420940e-01   3.1696286080561714e-01   3.3042221957126677e-01   3.1628968482919567e-01   3.3001952978649002e-01   3.1582638489000064e-01   3.2983138995212247e-01   3.1557508427231090e-01   3.2985427652642701e-01   3.1553377827739543e-01   3.3008080362622627e-01   3.1569667331672507e-01   3.3049985198143861e-01   3.1605438853033879e-01   3.3109679610209464e-01   3.1659427566827308e-01   3.3185447364968806e-01   3.1730078783229754e-01   3.3275453887739348e-01   3.1815701712374600e-01   3.3377840496586197e-01   3.1914516267542942e-01   3.3490824036290595e-01   3.2024796551109969e-01   3.3612618208160761e-01   3.2144813789342308e-01   3.3741418141084673e-01   3.2272831702663202e-01   3.2407018367708118e-01   3.1987299962261995e-01   3.1789713145864751e-01   3.0557873452401940e-01   3.1590146383461531e-01   3.0354243236848144e-01   3.1389062855542538e-01   3.0149393551582465e-01   3.1187032999076175e-01   2.9943931546604641e-01   3.0984760938384315e-01   2.9738553463538236e-01   3.0783132558957005e-01   2.9534117286293432e-01   3.0583212615504235e-01   2.9331628039729934e-01   3.0386264262405877e-01   2.9132284234257655e-01   3.0193681248948900e-01   2.8937410973187244e-01   3.0006977808699836e-01   2.8748457830718344e-01   2.9827747294151236e-01   2.8566943833330039e-01   2.9657685348641000e-01   2.8394479103118786e-01   2.9498561981034016e-01   2.8232731340323225e-01   2.9352228788492191e-01   2.8083437230125041e-01   2.9220548960465992e-01   2.7948345886018133e-01   2.9105312897950963e-01   2.7829165952304069e-01   2.9008087147909556e-01   2.7727430644155382e-01   2.8930113617647651e-01   2.7644411332490515e-01   2.8872230973251856e-01   2.7581012893113754e-01   2.8834896429643980e-01   2.7537788966275906e-01   2.8818171857727753e-01   2.7514916569985465e-01   2.8821777644482260e-01   2.7512240636521212e-01   2.8845083502831198e-01   2.7529278698032128e-01   2.8887155873682968e-01   2.7565245638672237e-01   2.8946790691414093e-01   2.7619094686490803e-01   2.9022573135433638e-01   2.7689563857136246e-01   2.9112970031674018e-01   2.7775234534309007e-01   2.9216412410105791e-01   2.7874640806146683e-01   2.9331295001807089e-01   2.7986255911682190e-01   2.9456016399024360e-01   2.8108544482658743e-01   2.9588907327336927e-01   2.8239914569229213e-01   2.9728194116577400e-01   2.8378686339205850e-01   2.8523042631886159e-01   2.8036167768830600e-01   2.6954772444073932e-01   2.7822403221983866e-01   2.6735898575879663e-01   2.7608601628862878e-01   2.6517243160649828e-01   2.7395504601966514e-01   2.6299569510861465e-01   2.71839513