<?xml version="1.0"?>
<VTKFile type="UnstructuredGrid"  version="0.1"  >
<UnstructuredGrid>
<Piece  NumberOfPoints="2293" NumberOfCells="4385">
<Points>
<DataArray  type="Float64"  NumberOfComponents="3"  format="ascii">2.147826086956522 0 0  2.156086956521739 0 0  2.156086956521739 0.008333333333333333 0  2.147826086956522 0.008333333333333333 0  2.164347826086956 0 0  2.164347826086956 0.008333333333333333 0  2.172608695652174 0 0  2.172608695652174 0.008333333333333333 0  2.180869565217391 0 0  2.180869565217391 0.008333333333333333 0  2.189130434782609 0 0  2.189130434782609 0.008333333333333333 0  2.197391304347826 0 0  2.197391304347826 0.008333333333333333 0  2.205652173913043 0 0  2.205652173913043 0.008333333333333333 0  2.213913043478261 0 0  2.213913043478261 0.008333333333333333 0  2.222173913043478 0 0  2.222173913043478 0.008333333333333333 0  2.230434782608695 0 0  2.230434782608695 0.008333333333333333 0  2.238695652173913 0 0  2.238695652173913 0.008333333333333333 0  2.24695652173913 0 0  2.24695652173913 0.008333333333333333 0  2.255217391304348 0 0  2.255217391304348 0.008333333333333333 0  2.263478260869565 0 0  2.263478260869565 0.008333333333333333 0  2.271739130434783 0 0  2.271739130434783 0.008333333333333333 0  2.28 0 0  2.28 0.008333333333333333 0  2.288260869565217 0 0  2.288260869565217 0.008333333333333333 0  2.296521739130434 0 0  2.296521739130434 0.008333333333333333 0  2.304782608695652 0 0  2.304782608695652 0.008333333333333333 0  2.31304347826087 0 0  2.31304347826087 0.008333333333333333 0  2.321304347826087 0 0  2.321304347826087 0.008333333333333333 0  2.329565217391304 0 0  2.329565217391304 0.008333333333333333 0  2.337826086956521 0 0  2.337826086956521 0.008333333333333333 0  2.346086956521739 0 0  2.346086956521739 0.008333333333333333 0  2.354347826086956 0 0  2.354347826086956 0.008333333333333333 0  2.362608695652174 0 0  2.362608695652174 0.008333333333333333 0  2.370869565217391 0 0  2.370869565217391 0.008333333333333333 0  2.379130434782609 0 0  2.379130434782609 0.008333333333333333 0  2.387391304347826 0 0  2.387391304347826 0.008333333333333333 0  2.395652173913044 0 0  2.395652173913044 0.008333333333333333 0  2.403913043478261 0 0  2.403913043478261 0.008333333333333333 0  2.412173913043478 0 0  2.412173913043478 0.008333333333333333 0  2.420434782608695 0 0  2.420434782608695 0.008333333333333333 0  2.428695652173913 0 0  2.428695652173913 0.008333333333333333 0  2.43695652173913 0 0  2.43695652173913 0.008333333333333333 0  2.445217391304348 0 0  2.445217391304348 0.008333333333333333 0  2.453478260869565 0 0  2.453478260869565 0.008333333333333333 0  2.461739130434782 0 0  2.461739130434782 0.008333333333333333 0  2.47 0 0  2.47 0.008333333333333333 0  2.478260869565217 0 0  2.478260869565217 0.008333333333333333 0  2.486521739130435 0 0  2.486521739130435 0.008333333333333333 0  2.494782608695652 0 0  2.494782608695652 0.008333333333333333 0  2.503043478260869 0 0  2.503043478260869 0.008333333333333333 0  2.511304347826087 0 0  2.511304347826087 0.008333333333333333 0  2.519565217391305 0 0  2.519565217391305 0.008333333333333333 0  2.527826086956522 0 0  2.527826086956522 0.008333333333333333 0  2.536086956521739 0 0  2.536086956521739 0.008333333333333333 0  2.544347826086956 0 0  2.544347826086956 0.008333333333333333 0  2.552608695652174 0 0  2.552608695652174 0.008333333333333333 0  2.560869565217391 0 0  2.560869565217391 0.008333333333333333 0  2.569130434782608 0 0  2.569130434782608 0.008333333333333333 0  2.577391304347826 0 0  2.577391304347826 0.008333333333333333 0  2.585652173913043 0 0  2.585652173913043 0.008333333333333333 0  2.593913043478261 0 0  2.593913043478261 0.008333333333333333 0  2.602173913043478 0 0  2.602173913043478 0.008333333333333333 0  2.610434782608696 0 0  2.610434782608696 0.008333333333333333 0  2.618695652173913 0 0  2.618695652173913 0.008333333333333333 0  2.156086956521739 0.01666666666666667 0  2.164347826086956 0.01666666666666667 0  2.172608695652174 0.01666666666666667 0  2.180869565217391 0.01666666666666667 0  2.189130434782609 0.01666666666666667 0  2.197391304347826 0.01666666666666667 0  2.205652173913043 0.01666666666666667 0  2.213913043478261 0.01666666666666667 0  2.222173913043478 0.01666666666666667 0  2.230434782608695 0.01666666666666667 0  2.238695652173913 0.01666666666666667 0  2.24695652173913 0.01666666666666667 0  2.255217391304348 0.01666666666666667 0  2.263478260869565 0.01666666666666667 0  2.271739130434783 0.01666666666666667 0  2.28 0.01666666666666667 0  2.288260869565217 0.01666666666666667 0  2.296521739130434 0.01666666666666667 0  2.304782608695652 0.01666666666666667 0  2.31304347826087 0.01666666666666667 0  2.321304347826087 0.01666666666666667 0  2.329565217391304 0.01666666666666667 0  2.337826086956521 0.01666666666666667 0  2.346086956521739 0.01666666666666667 0  2.354347826086956 0.01666666666666667 0  2.362608695652174 0.01666666666666667 0  2.370869565217391 0.01666666666666667 0  2.379130434782609 0.01666666666666667 0  2.387391304347826 0.01666666666666667 0  2.395652173913044 0.01666666666666667 0  2.403913043478261 0.01666666666666667 0  2.412173913043478 0.01666666666666667 0  2.420434782608695 0.01666666666666667 0  2.428695652173913 0.01666666666666667 0  2.43695652173913 0.01666666666666667 0  2.445217391304348 0.01666666666666667 0  2.453478260869565 0.01666666666666667 0  2.461739130434782 0.01666666666666667 0  2.47 0.01666666666666667 0  2.478260869565217 0.01666666666666667 0  2.486521739130435 0.01666666666666667 0  2.494782608695652 0.01666666666666667 0  2.503043478260869 0.01666666666666667 0  2.511304347826087 0.01666666666666667 0  2.519565217391305 0.01666666666666667 0  2.527826086956522 0.01666666666666667 0  2.536086956521739 0.01666666666666667 0  2.544347826086956 0.01666666666666667 0  2.552608695652174 0.01666666666666667 0  2.560869565217391 0.01666666666666667 0  2.569130434782608 0.01666666666666667 0  2.577391304347826 0.01666666666666667 0  2.585652173913043 0.01666666666666667 0  2.593913043478261 0.01666666666666667 0  2.602173913043478 0.01666666666666667 0  2.610434782608696 0.01666666666666667 0  2.618695652173913 0.01666666666666667 0  2.164347826086956 0.025 0  2.172608695652174 0.025 0  2.180869565217391 0.025 0  2.189130434782609 0.025 0  2.197391304347826 0.025 0  2.205652173913043 0.025 0  2.213913043478261 0.025 0  2.222173913043478 0.025 0  2.230434782608695 0.025 0  2.238695652173913 0.025 0  2.24695652173913 0.025 0  2.255217391304348 0.025 0  2.263478260869565 0.025 0  2.271739130434783 0.025 0  2.28 0.025 0  2.288260869565217 0.025 0  2.296521739130434 0.025 0  2.304782608695652 0.025 0  2.31304347826087 0.025 0  2.321304347826087 0.025 0  2.329565217391304 0.025 0  2.337826086956521 0.025 0  2.346086956521739 0.025 0  2.354347826086956 0.025 0  2.362608695652174 0.025 0  2.370869565217391 0.025 0  2.379130434782609 0.025 0  2.387391304347826 0.025 0  2.395652173913044 0.025 0  2.403913043478261 0.025 0  2.412173913043478 0.025 0  2.420434782608695 0.025 0  2.428695652173913 0.025 0  2.43695652173913 0.025 0  2.445217391304348 0.025 0  2.453478260869565 0.025 0  2.461739130434782 0.025 0  2.47 0.025 0  2.478260869565217 0.025 0  2.486521739130435 0.025 0  2.494782608695652 0.025 0  2.503043478260869 0.025 0  2.511304347826087 0.025 0  2.519565217391305 0.025 0  2.527826086956522 0.025 0  2.536086956521739 0.025 0  2.544347826086956 0.025 0  2.552608695652174 0.025 0  2.560869565217391 0.025 0  2.569130434782608 0.025 0  2.577391304347826 0.025 0  2.585652173913043 0.025 0  2.593913043478261 0.025 0  2.602173913043478 0.025 0  2.610434782608696 0.025 0  2.618695652173913 0.025 0  2.62695652173913 0.025 0  2.172608695652174 0.03333333333333333 0  2.180869565217391 0.03333333333333333 0  2.189130434782609 0.03333333333333333 0  2.197391304347826 0.03333333333333333 0  2.205652173913043 0.03333333333333333 0  2.213913043478261 0.03333333333333333 0  2.222173913043478 0.03333333333333333 0  2.230434782608695 0.03333333333333333 0  2.238695652173913 0.03333333333333333 0  2.24695652173913 0.03333333333333333 0  2.255217391304348 0.03333333333333333 0  2.263478260869565 0.03333333333333333 0  2.271739130434783 0.03333333333333333 0  2.28 0.03333333333333333 0  2.288260869565217 0.03333333333333333 0  2.296521739130434 0.03333333333333333 0  2.304782608695652 0.03333333333333333 0  2.31304347826087 0.03333333333333333 0  2.321304347826087 0.03333333333333333 0  2.329565217391304 0.03333333333333333 0  2.337826086956521 0.03333333333333333 0  2.346086956521739 0.03333333333333333 0  2.354347826086956 0.03333333333333333 0  2.362608695652174 0.03333333333333333 0  2.370869565217391 0.03333333333333333 0  2.379130434782609 0.03333333333333333 0  2.387391304347826 0.03333333333333333 0  2.395652173913044 0.03333333333333333 0  2.403913043478261 0.03333333333333333 0  2.412173913043478 0.03333333333333333 0  2.420434782608695 0.03333333333333333 0  2.428695652173913 0.03333333333333333 0  2.43695652173913 0.03333333333333333 0  2.445217391304348 0.03333333333333333 0  2.453478260869565 0.03333333333333333 0  2.461739130434782 0.03333333333333333 0  2.47 0.03333333333333333 0  2.478260869565217 0.03333333333333333 0  2.486521739130435 0.03333333333333333 0  2.494782608695652 0.03333333333333333 0  2.503043478260869 0.03333333333333333 0  2.511304347826087 0.03333333333333333 0  2.519565217391305 0.03333333333333333 0  2.527826086956522 0.03333333333333333 0  2.536086956521739 0.03333333333333333 0  2.544347826086956 0.03333333333333333 0  2.552608695652174 0.03333333333333333 0  2.560869565217391 0.03333333333333333 0  2.569130434782608 0.03333333333333333 0  2.577391304347826 0.03333333333333333 0  2.585652173913043 0.03333333333333333 0  2.593913043478261 0.03333333333333333 0  2.602173913043478 0.03333333333333333 0  2.610434782608696 0.03333333333333333 0  2.618695652173913 0.03333333333333333 0  2.62695652173913 0.033333
[...]
<PointData  Vectors="Displacement"> 
<DataArray  type="Float64"  Name="Displacement"  NumberOfComponents="3" format="ascii">3.3049080743907016e-04 2.4443696082963920e-03 0.0000000000000000e+00  3.3139937498334360e-04 2.4552532235341644e-03 0.0000000000000000e+00  3.2038951995759849e-04 2.4549554532933529e-03 0.0000000000000000e+00  3.1949979492306010e-04 2.4440740008696967e-03 0.0000000000000000e+00  3.3232338094992697e-04 2.4661567735444726e-03 0.0000000000000000e+00  3.2128176033185843e-04 2.4658562729116050e-03 0.0000000000000000e+00  3.3326560406671469e-04 2.4770961310466117e-03 0.0000000000000000e+00  3.2217559072191215e-04 2.4767923302719840e-03 0.0000000000000000e+00  3.3422796873441922e-04 2.4880907923996833e-03 0.0000000000000000e+00  3.2307045882250495e-04 2.4877832066794001e-03 0.0000000000000000e+00  3.3521128643597170e-04 2.4991622185155066e-03 0.0000000000000000e+00  3.2396626549494831e-04 2.4988504987853745e-03 0.0000000000000000e+00  3.3621515554961822e-04 2.5103320062770506e-03 0.0000000000000000e+00  3.2486337731841121e-04 2.5100159425229052e-03 0.0000000000000000e+00  3.3723796442818255e-04 2.5216201562579866e-03 0.0000000000000000e+00  3.2576261905050005e-04 2.5212996412570282e-03 0.0000000000000000e+00  3.3827689731249946e-04 2.5330435110104813e-03 0.0000000000000000e+00  3.2666529649942323e-04 2.5327184930215383e-03 0.0000000000000000e+00  3.3932784034028401e-04 2.5446141940629087e-03 0.0000000000000000e+00  3.2757328692747641e-04 2.5442846710945176e-03 0.0000000000000000e+00  3.4038519055693738e-04 2.5563376214968571e-03 0.0000000000000000e+00  3.2848922377556357e-04 2.5560037035381980e-03 0.0000000000000000e+00  3.4144184236421701e-04 2.5682094864659648e-03 0.0000000000000000e+00  3.2941692100867364e-04 2.5678714668354689e-03 0.0000000000000000e+00  3.4248981571891073e-04 2.5802107340556456e-03 0.0000000000000000e+00  3.3036250485046564e-04 2.5798695579509661e-03 0.0000000000000000e+00  3.4352267491595344e-04 2.5922998364094809e-03 0.0000000000000000e+00  3.3133529555720033e-04 2.5919580934246123e-03 0.0000000000000000e+00  3.4454129115044291e-04 2.6044157635916327e-03 0.0000000000000000e+00  3.3234111566560274e-04 2.6040743551205645e-03 0.0000000000000000e+00  3.4555315486547799e-04 2.6165093566806442e-03 0.0000000000000000e+00  3.3337458625649983e-04 2.6161674380804378e-03 0.0000000000000000e+00  3.4656635869357975e-04 2.6285575399678011e-03 0.0000000000000000e+00  3.3442533027407443e-04 2.6282153817063490e-03 0.0000000000000000e+00  3.4758717169644374e-04 2.6405521521551921e-03 0.0000000000000000e+00  3.3548410437947760e-04 2.6402126133623677e-03 0.0000000000000000e+00  3.4862170719924260e-04 2.6524903561424241e-03 0.0000000000000000e+00  3.3653964749876848e-04 2.6521616523409327e-03 0.0000000000000000e+00  3.4969224949885368e-04 2.6643968766190307e-03 0.0000000000000000e+00  3.3756165208731958e-04 2.6640685991500541e-03 0.0000000000000000e+00  3.5082448117961006e-04 2.6763836392880271e-03 0.0000000000000000e+00  3.3853871597471044e-04 2.6760408444912297e-03 0.0000000000000000e+00  3.5202414787552703e-04 2.6885877877027807e-03 0.0000000000000000e+00  3.3949272619972199e-04 2.6882268019093741e-03 0.0000000000000000e+00  3.5326544156843141e-04 2.7011180628313297e-03 0.0000000000000000e+00  3.4043321664565298e-04 2.7007495873196149e-03 0.0000000000000000e+00  3.5451265880411263e-04 2.7140078038564281e-03 0.0000000000000000e+00  3.4136142147029837e-04 2.7136410548482693e-03 0.0000000000000000e+00  3.5573243065111534e-04 2.7272523282947871e-03 0.0000000000000000e+00  3.4227009311681747e-04 2.7268967311194193e-03 0.0000000000000000e+00  3.5690228935666177e-04 2.7408163710508616e-03 0.0000000000000000e+00  3.4315191332288611e-04 2.7404770360781434e-03 0.0000000000000000e+00  3.5801465296099092e-04 2.7546541597494333e-03 0.0000000000000000e+00  3.4400431570283938e-04 2.7543314066760774e-03 0.0000000000000000e+00  3.5907357424045793e-04 2.7687262900059836e-03 0.0000000000000000e+00  3.4482891514911424e-04 2.7684176554093574e-03 0.0000000000000000e+00  3.6008858726353809e-04 2.7830063762014036e-03 0.0000000000000000e+00  3.4562923189715498e-04 2.7827086166029554e-03 0.0000000000000000e+00  3.6106916920891624e-04 2.7974808380812491e-03 0.0000000000000000e+00  3.4640847156210987e-04 2.7971913283072560e-03 0.0000000000000000e+00  3.6202087138899672e-04 2.8121455556067306e-03 0.0000000000000000e+00  3.4716774683712855e-04 2.8118632051106528e-03 0.0000000000000000e+00  3.6294332127807853e-04 2.8270009377529427e-03 0.0000000000000000e+00  3.4790506504439416e-04 2.8267266073389121e-03 0.0000000000000000e+00  3.6383018311999718e-04 2.8420464466039634e-03 0.0000000000000000e+00  3.4861533416651432e-04 2.8417828217944725e-03 0.0000000000000000e+00  3.6467179610569775e-04 2.8572747007234436e-03 0.0000000000000000e+00  3.4929230274174103e-04 2.8570249720743903e-03 0.0000000000000000e+00  3.6545811441292752e-04 2.8726709257007785e-03 0.0000000000000000e+00  3.4992994891144401e-04 2.8724380955633673e-03 0.0000000000000000e+00  3.6618079895670344e-04 2.8882141437953754e-03 0.0000000000000000e+00  3.5052325821682774e-04 2.8880006835358160e-03 0.0000000000000000e+00  3.6683551056607453e-04 2.9038777719698834e-03 0.0000000000000000e+00  3.5106966339436735e-04 2.9036847715447692e-03 0.0000000000000000e+00  3.6742383486524342e-04 2.9196326094732658e-03 0.0000000000000000e+00  3.5157019719533482e-04 2.9194592301931333e-03 0.0000000000000000e+00  3.6795399795264453e-04 2.9354511291329439e-03 0.0000000000000000e+00  3.5202986670731910e-04 2.9352945458158307e-03 0.0000000000000000e+00  3.6844051456131146e-04 2.9513112884925964e-03 0.0000000000000000e+00  3.5245753742821660e-04 2.9511668321410950e-03 0.0000000000000000e+00  3.6890283684540672e-04 2.9671999666220322e-03 0.0000000000000000e+00  3.5286519202957795e-04 2.9670615590843899e-03 0.0000000000000000e+00  3.6936287083008852e-04 2.9831157759917740e-03 0.0000000000000000e+00  3.5326637146644932e-04 2.9829767524741629e-03 0.0000000000000000e+00  3.6984152533922642e-04 2.9990703993954038e-03 0.0000000000000000e+00  3.5367396623396229e-04 2.9989246031367103e-03 0.0000000000000000e+00  3.7035505505940186e-04 3.0150874854541561e-03 0.0000000000000000e+00  3.5409806376256214e-04 3.0149302112878920e-03 0.0000000000000000e+00  3.7091178146859792e-04 3.0311994693712173e-03 0.0000000000000000e+00  3.5454435251446015e-04 3.0310281432871992e-03 0.0000000000000000e+00  3.7150902698800911e-04 3.0474429084359758e-03 0.0000000000000000e+00  3.5501293349163423e-04 3.0472578652016029e-03 0.0000000000000000e+00  3.7213224621643570e-04 3.0638477190591475e-03 0.0000000000000000e+00  3.5550018472124261e-04 3.0636520138298770e-03 0.0000000000000000e+00  3.7275682840948605e-04 3.0804256667429628e-03 0.0000000000000000e+00  3.5600104168868993e-04 3.0802239200278989e-03 0.0000000000000000e+00  3.7335486716235039e-04 3.0971518988373676e-03 0.0000000000000000e+00  3.5651849225186541e-04 3.0969480957074918e-03 0.0000000000000000e+00  3.7389057788130307e-04 3.1139570362790497e-03 0.0000000000000000e+00  3.5705910427830464e-04 3.1137714992878949e-03 0.0000000000000000e+00  3.7437514045930730e-04 3.1306650376687136e-03 0.0000000000000000e+00  3.5763988202207867e-04 3.1304850961461610e-03 0.0000000000000000e+00  3.7483094209163147e-04 3.1472167536982392e-03 0.0000000000000000e+00  3.5824492921109790e-04 3.1470400151730462e-03 0.0000000000000000e+00  3.7527446957502522e-04 3.1635828297410773e-03 0.0000000000000000e+00  3.5886343361964904e-04 3.1634074725479418e-03 0.0000000000000000e+00  3.7571622443548724e-04 3.1797573914380049e-03 0.0000000000000000e+00  3.5948600296094340e-04 3.1795827207573030e-03 0.0000000000000000e+00  3.7616270930793713e-04 3.1957469232826137e-03 0.0000000000000000e+00  3.6010649271022989e-04 3.1955721726912400e-03 0.0000000000000000e+00  3.7661777707819285e-04 3.2115658090049490e-03 0.0000000000000000e+00  3.6072188768330478e-04 3.2113905202151723e-03 0.0000000000000000e+00  3.7708315227880134e-04 3.2272325137233573e-03 0.0000000000000000e+00  3.6133043692507689e-04 3.2270565698638044e-03 0.0000000000000000e+00  3.7755923581545101e-04 3.2427669517308849e-03 0.0000000000000000e+00  3.6193109861382366e-04 3.2425900416897411e-03 0.0000000000000000e+00  3.0937215777225753e-04 2.4546670398126573e-03 0.0000000000000000e+00  3.1023566074498879e-04 2.4655698887077748e-03 0.0000000000000000e+00  3.1108335634097927e-04 2.4765083258237682e-03 0.0000000000000000e+00  3.1191188131455687e-04 2.4875015722539803e-03 0.0000000000000000e+00  3.1272014856408026e-04 2.4985708679766540e-03 0.0000000000000000e+00  3.1350934543722576e-04 2.5097375806193128e-03 0.0000000000000000e+00  3.1428275207927769e-04 2.5210214123000747e-03 0.0000000000000000e+00  3.1504556268945207e-04 2.5324388077157759e-03 0.0000000000000000e+00  3.1580491900432266e-04 2.5440014927387532e-03 0.0000000000000000e+00  3.1657028344780631e-04 2.5557147190948229e-03 0.0000000000000000e+00  3.1735426693597593e-04 2.5675741430012233e-03 0.0000000000000000e+00  3.1817501636397368e-04 2.5795597563499522e-03 0.0000000000000000e+00  3.1906473353164534e-04 2.5916290101180139e-03 0.0000000000000000e+00  3.2006469941471636e-04 2.6037287139593214e-03 0.0000000000000000e+00  3.2114714539158769e-04 2.6158137271849215e-03 0.0000000000000000e+00  3.2225732260893821e-04 2.6278585975512462e-03 0.0000000000000000e+00  3.2337371154634155e-04 2.6398586558899146e-03 0.0000000000000000e+00  3.2448327184044889e-04 2.6518221725643984e-03 0.0000000000000000e+00  3.2555918264603106e-04 2.6637943511807600e-03 0.0000000000000000e+00  3.2635733630045075e-04 2.6757745383711559e-03 0.0000000000000000e+00  3.2702126586088841e-04 2.6879406994813906e-03 0.0000000000000000e+00  3.2764182064357446e-04 2.7004628067013206e-03 0.0000000000000000e+00  3.2825255376574920e-04 2.7133582590998023e-03 0.0000000000000000e+00  3.2885977640190086e-04 2.7266291535908913e-03 0.0000000000000000e+00  3.2946033945006691e-04 2.7402278151192816e-03 0.0000000000000000e+00  3.3005356898755788e-04 2.7540964451583335e-03 0.0000000000000000e+00  3.3064071996679088e-04 2.7681909468104233e-03 0.0000000000000000e+00  3.3122304624957254e-04 2.7824850670510773e-03 0.0000000000000000e+00  3.3180084793308419e-04 2.7969677458615136e-03 0.0000000000000000e+00  3.3237265275099659e-04 2.8116389347265566e-03 0.0000000000000000e+00  3.3293458162031545e-04 2.8265038348584308e-03 0.0000000000000000e+00  3.3348030333501426e-04 2.8415664048462145e-03 0.0000000000000000e+00  3.3400414357856792e-04 2.8568191610997854e-03 0.0000000000000000e+00  3.3450172971383738e-04 2.8722464679535585e-03 0.0000000000000000e+00  3.3496896209653259e-04 2.8878268489040252e-03 0.0000000000000000e+00  3.3540311662102633e-04 2.9035307531285644e-03 0.0000000000000000e+00  3.3580388839678905e-04 2.9193247440928399e-03 0.0000000000000000e+00  3.3617354119264007e-04 2.9351771963707120e-03 0.0000000000000000e+00  3.3651715951834644e-04 2.9510620463826147e-03 0.0000000000000000e+00  3.3684257975994861e-04 2.9669628269712485e-03 0.0000000000000000e+00  3.3715933869006304e-04 2.9828766026799834e-03 0.0000000000000000e+00  3.3747669975281447e-04 2.9988161261751594e-03 0.0000000000000000e+00  3.3780189231278506e-04 3.0148081098039479e-03 0.0000000000000000e+00  3.3813891664103069e-04 3.0308893252283982e-03 0.0000000000000000e+00  3.3848707137873501e-04 3.0471034263719627e-03 0.0000000000000000e+00  3.3884462801559887e-04 3.0634843800985082e-03 0.0000000000000000e+00  3.3921709646590124e-04 3.0800491358598950e-03 0.0000000000000000e+00  3.3962312691625767e-04 3.0967571332288727e-03 0.0000000000000000e+00  3.4010519349579317e-04 3.1135712408711901e-03 0.0000000000000000e+00  3.4083656450329476e-04 3.1302670011758367e-03 0.0000000000000000e+00  3.4162044802244916e-04 3.1468106901254779e-03 0.0000000000000000e+00  3.4243712169990321e-04 3.1631725372057054e-03 0.0000000000000000e+00  3.4325783439974729e-04 3.1793492463061783e-03 0.0000000000000000e+00  3.4406176702373614e-04 3.1953421333741684e-03 0.0000000000000000e+00  3.4484195104510028e-04 3.2111644259769745e-03 0.0000000000000000e+00  3.4559645499973525e-04 3.2268357818539071e-03 0.0000000000000000e+00  3.4632239550385789e-04 3.2423750953631029e-03 0.0000000000000000e+00  2.9922956915566208e-04 2.4652887659165974e-03 0.0000000000000000e+00  3.0004518609151994e-04 2.4762354411186744e-03 0.0000000000000000e+00  3.0081574905714819e-04 2.4872381825554193e-03 0.0000000000000000e+00  3.0153823351653728e-04 2.4983170162698664e-03 0.0000000000000000e+00  3.0221502957890594e-04 2.5094920653413832e-03 0.0000000000000000e+00  3.0285294672880022e-04 2.5207819112407614e-03 0.0000000000000000e+00  3.0346197160461300e-04 2.5322020152767615e-03 0.0000000000000000e+00  3.0405458872967542e-04 2.5437631385063419e-03 0.0000000000000000e+00  3.0464671720223369e-04 2.5554695835442258e-03 0.0000000000000000e+00  3.0526167094860340e-04 2.5673165474778144e-03 0.0000000000000000e+00  3.0593918706485387e-04 2.5792846040518010e-03 0.0000000000000000e+00  3.0674881782007904e-04 2.5913300427418181e-03 0.0000000000000000e+00  3.0775111819158211e-04 2.6033947771203023e-03 0.0000000000000000e+00  3.0888143238841647e-04 2.6154533059181916e-03 0.0000000000000000e+00  3.1004133072794871e-04 2.6274885042167156e-03 0.0000000000000000e+00  3.1122368018244694e-04 2.6394863656613241e-03 0.0000000000000000e+00  3.1243528260093225e-04 2.6514553203299228e-03 0.0000000000000000e+00  3.1357482706113459e-04 2.6634589609003845e-03 0.0000000000000000e+00  3.1443016303590122e-04 2.6756268633552740e-03 0.0000000000000000e+00  3.1472078213890740e-04 2.6877789097638416e-03 0.0000000000000000e+00  3.1489900951063799e-04 2.7002811737795829e-03 0.0000000000000000e+00  3.1513674261737388e-04 2.7131585777225766e-03 0.0000000000000000e+00  3.1543205947805414e-04 2.7264430726277088e-03 0.0000000000000000e+00  3.1575797219185605e-04 2.7400640990575134e-03 0.0000000000000000e+00  3.1610315315540240e-04 2.7539474016463616e-03 0.0000000000000000e+00  3.1646375779341212e-04 2.7680457551264295e-03 0.0000000000000000e+00  3.1683761706095988e-04 2.7823350410425491e-03 0.0000000000000000e+00  3.1722256582140907e-04 2.7968075573155528e-03 0.0000000000000000e+00  3.1761521472073689e-04 2.8114676678999855e-03 0.0000000000000000e+00  3.1800971127824692e-04 2.8263256093378304e-03 0.0000000000000000e+00  3.1839710844011078e-04 2.8413902958973674e-03 0.0000000000000000e+00  3.1877202609168669e-04 2.8566513112817269e-03 0.0000000000000000e+00  3.1913215877101220e-04 2.8720916924558663e-03 0.0000000000000000e+00  3.1947400365623405e-04 2.8876914049080818e-03 0.0000000000000000e+00  3.1979423484445506e-04 2.9034186071178959e-03 0.0000000000000000e+00  3.2009086002799845e-04 2.9192364684427798e-03 0.0000000000000000e+00  3.2036308701597656e-04 2.9351105860518385e-03 0.0000000000000000e+00  3.2061252247519810e-04 2.9510114710466330e-03 0.0000000000000000e+00  3.2084418282849310e-04 2.9669192026577028e-03 0.0000000000000000e+00  3.2106567189584722e-04 2.9828290170216985e-03 0.0000000000000000e+00  3.2128457157884705e-04 2.9987547820089114e-03 0.0000000000000000e+00  3.2150615950122391e-04 3.0147262008972313e-03 0.0000000000000000e+00  3.2173156866473755e-04 3.0307847063425846e-03 0.0000000000000000e+00  3.2195196827035198e-04 3.0469836652333103e-03 0.0000000000000000e+00  3.2215698250439716e-04 3.0633609448197353e-03 0.0000000000000000e+00  3.2234056533555951e-04 3.0799257034714272e-03 0.0000000000000000e+00  3.2257627920731941e-04 3.0966315377426584e-03 0.0000000000000000e+00  3.2283824880056700e-04 3.1134183213829538e-03 0.0000000000000000e+00  3.2374796821290377e-04 3.1300369131943358e-03 0.0000000000000000e+00  3.2475107535124057e-04 3.1465572857182073e-03 0.0000000000000000e+00  3.2589005774020298e-04 3.1629018567545116e-03 0.0000000000000000e+00  3.2696081872277447e-04 3.1790745424061634e-03 0.0000000000000000e+00  3.2799268171148911e-04 3.1950718172187569e-03 0.0000000000000000e+00  3.2896400278276816e-04 3.2109019153434911e-03 0.0000000000000000e+00  3.2985760770639321e-04 3.2265817650978783e-03 0.0000000000000000e+00  3.3069476858843148e-04 3.2421306606764504e-03 0.0000000000000000e+00  3.3149082736708954e-04 3.2575658925561341e-03 0.0000000000000000e+00  2.8586091833432572e-04 2.4752190377481508e-03 0.0000000000000000e+00  2.8668268940035724e-04 2.4862626771102541e-03 0.0000000000000000e+00  2.8749481246114888e-04 2.4973940128956212e-03 0.0000000000000000e+00  2.8829398811960232e-04 2.5086322729655770e-03 0.0000000000000000e+00  2.8906534518002646e-04 2.5199872865190151e-03 0.0000000000000000e+00  2.8978031149001386e-04 2.5314510763965003e-03 0.0000000000000000e+00  2.9041952598515413e-04 2.5430041381503269e-03 0.0000000000000000e+00  2.9101140042112430e-04 2.5546379772975352e-03 0.0000000000000000e+00  2.9163308731746887e-04 2.5663728308676068e-03 0.0000000000000000e+00  2.9235268021037062e-04 2.5782266323143587e-03 0.0000000000000000e+00  2.9319326354734093e-04 2.5901685738589004e-03 0.0000000000000000e+00  2.9414949469284046e-04 2.6021546117446443e-03 0.0000000000000000e+00  2.9519460998213000e-04 2.6141769993991699e-03 0.0000000000000000e+00  2.9629233690735279e-04 2.6262259094137173e-03 0.0000000000000000e+00  2.9741382245946854e-04 2.6382831397123081e-03 0.0000000000000000e+00  2.9853683589572949e-04 2.6503637063541954e-03 0.0000000000000000e+00  2.9964167995275991e-04 2.6625369615446031e-03 0.0000000000000000e+00  3.0074846503331376e-04 2.6749169353902174e-03 0.0000000000000000e+00  3.0205299838582467e-04 2.6877463340573252e-03 0.0000000000000000e+00  3.0194348449630109e-04 2.7002435265113802e-03 0.0000000000000000e+00  3.0186329467096111e-04 2.7130416628364370e-03 0.0000000000000000e+00  3.0187110496292133e-04 2.7263269419369445e-03 0.0000000000000000e+00  3.0195833999263361e-04 2.7399746152561174e-03 0.0000000000000000e+00  3.0209029159268747e-04 2.7538742391052307e-03 0.0000000000000000e+00  3.0225414741316702e-04 2.7679734942994303e-03 0.0000000000000000e+00  3.0244306395398534e-04 2.7822513228099306e-03 0.0000000000000000e+00  3.0265256455315335e-04 2.7967041415732589e-03 0.0000000000000000e+00  3.0287814311110296e-04 2.8113427826829585e-03 0.0000000000000000e+00  3.0311244830255168e-04 2.8261858556695306e-03 0.0000000000000000e+00  3.0334245230040612e-04 2.8412514667118787e-03 0.0000000000000000e+00  3.0356500975589515e-04 2.8565197238141684e-03 0.0000000000000000e+00  3.0378365405284619e-04 2.8719716320232892e-03 0.0000000000000000e+00  3.0399751665423439e-04 2.8875927134481261e-03 0.0000000000000000e+00  3.0420398749491235e-04 2.9033477094707995e-03 0.0000000000000000e+00  3.0439941752974142e-04 2.9191952798020946e-03 0.0000000000000000e+00  3.0457823102921741e-04 2.9350979896934780e-03 0.0000000000000000e+00  3.0473685167476175e-04 2.9510207901975952e-03 0.0000000000000000e+00  3.0487716887583893e-04 2.9669374844694574e-03 0.0000000000000000e+00  3.0500573616602393e-04 2.9828398624871981e-03 0.0000000000000000e+00  3.0512948959665284e-04 2.9987437555912978e-03 0.0000000000000000e+00  3.0525312260326322e-04 3.0146837769650199e-03 0.0000000000000000e+00  3.0537590622165651e-04 3.0307086110100932e-03 0.0000000000000000e+00  3.0548013102921792e-04 3.0468938570527527e-03 0.0000000000000000e+00  3.0554236221032901e-04 3.0632697693201722e-03 0.0000000000000000e+00  3.0559016706867590e-04 3.0798326603260731e-03 0.0000000000000000e+00  3.0566752241202041e-04 3.0965393189804542e-03 0.0000000000000000e+00  3.0593195506579827e-04 3.1133215909293628e-03 0.0000000000000000e+00  3.0717607947136177e-04 3.1293005784186786e-03 0.0000000000000000e+00  3.0836710256008199e-04 3.1455668874995203e-03 0.0000000000000000e+00  3.0949988863125010e-04 3.1617803293775494e-03 0.0000000000000000e+00  3.1057555340042818e-04 3.1778994812674422e-03 0.0000000000000000e+00  3.1159426020792752e-04 3.1938731762253814e-03 0.0000000000000000e+00  3.1255790428734621e-04 3.2097023094568261e-03 0.0000000000000000e+00  3.1346670014527800e-04 3.2253933675867996e-03 0.0000000000000000e+