<?xml version="1.0"?>
<VTKFile type="UnstructuredGrid"  version="0.1"  >
<UnstructuredGrid>
<Piece  NumberOfPoints="2429" NumberOfCells="4646">
<Points>
<DataArray  type="Float64"  NumberOfComponents="3"  format="ascii">0.2973913043478261 0.225 0  0.3056521739130434 0.225 0  0.3056521739130434 0.2333333333333333 0  0.3139130434782609 0.225 0  0.3139130434782609 0.2333333333333333 0  0.3221739130434783 0.225 0  0.3221739130434783 0.2333333333333333 0  0.3304347826086956 0.225 0  0.3304347826086956 0.2333333333333333 0  0.338695652173913 0.225 0  0.338695652173913 0.2333333333333333 0  0.3469565217391304 0.225 0  0.3469565217391304 0.2333333333333333 0  0.3552173913043478 0.225 0  0.3552173913043478 0.2333333333333333 0  0.3634782608695652 0.225 0  0.3634782608695652 0.2333333333333333 0  0.3717391304347826 0.225 0  0.3717391304347826 0.2333333333333333 0  0.3799999999999999 0.225 0  0.3799999999999999 0.2333333333333333 0  0.3882608695652174 0.225 0  0.3882608695652174 0.2333333333333333 0  0.3965217391304348 0.225 0  0.3965217391304348 0.2333333333333333 0  0.4047826086956521 0.225 0  0.4047826086956521 0.2333333333333333 0  0.4130434782608696 0.225 0  0.4130434782608696 0.2333333333333333 0  0.4213043478260869 0.225 0  0.4213043478260869 0.2333333333333333 0  0.4295652173913043 0.225 0  0.4295652173913043 0.2333333333333333 0  0.4378260869565217 0.225 0  0.4378260869565217 0.2333333333333333 0  0.4460869565217391 0.225 0  0.4460869565217391 0.2333333333333333 0  0.4543478260869565 0.225 0  0.4543478260869565 0.2333333333333333 0  0.4626086956521739 0.225 0  0.4626086956521739 0.2333333333333333 0  0.4708695652173913 0.225 0  0.4708695652173913 0.2333333333333333 0  0.4791304347826086 0.225 0  0.4791304347826086 0.2333333333333333 0  0.4873913043478261 0.225 0  0.4873913043478261 0.2333333333333333 0  0.4956521739130435 0.225 0  0.4956521739130435 0.2333333333333333 0  0.5039130434782608 0.225 0  0.5039130434782608 0.2333333333333333 0  0.5121739130434783 0.225 0  0.5121739130434783 0.2333333333333333 0  0.5204347826086956 0.225 0  0.5204347826086956 0.2333333333333333 0  0.528695652173913 0.225 0  0.528695652173913 0.2333333333333333 0  0.5369565217391304 0.225 0  0.5369565217391304 0.2333333333333333 0  0.5452173913043478 0.225 0  0.5452173913043478 0.2333333333333333 0  0.5534782608695652 0.225 0  0.5534782608695652 0.2333333333333333 0  0.5617391304347825 0.225 0  0.5617391304347825 0.2333333333333333 0  0.57 0.225 0  0.57 0.2333333333333333 0  0.5782608695652174 0.225 0  0.5782608695652174 0.2333333333333333 0  0.5865217391304348 0.225 0  0.5865217391304348 0.2333333333333333 0  0.5947826086956521 0.225 0  0.5947826086956521 0.2333333333333333 0  0.6030434782608696 0.225 0  0.6030434782608696 0.2333333333333333 0  0.6113043478260869 0.225 0  0.6113043478260869 0.2333333333333333 0  0.6195652173913043 0.225 0  0.6195652173913043 0.2333333333333333 0  0.6278260869565218 0.225 0  0.6278260869565218 0.2333333333333333 0  0.6360869565217391 0.225 0  0.6360869565217391 0.2333333333333333 0  0.6443478260869565 0.225 0  0.6443478260869565 0.2333333333333333 0  0.6526086956521739 0.225 0  0.6526086956521739 0.2333333333333333 0  0.6608695652173913 0.225 0  0.6608695652173913 0.2333333333333333 0  0.6691304347826087 0.225 0  0.6691304347826087 0.2333333333333333 0  0.677391304347826 0.225 0  0.677391304347826 0.2333333333333333 0  0.6856521739130435 0.225 0  0.6856521739130435 0.2333333333333333 0  0.6939130434782609 0.225 0  0.6939130434782609 0.2333333333333333 0  0.7021739130434783 0.225 0  0.7021739130434783 0.2333333333333333 0  0.7104347826086956 0.225 0  0.7104347826086956 0.2333333333333333 0  0.718695652173913 0.225 0  0.718695652173913 0.2333333333333333 0  0.7269565217391304 0.225 0  0.7269565217391304 0.2333333333333333 0  0.7352173913043478 0.225 0  0.7352173913043478 0.2333333333333333 0  0.7434782608695653 0.225 0  0.7434782608695653 0.2333333333333333 0  0.7517391304347827 0.225 0  0.7517391304347827 0.2333333333333333 0  0.7599999999999999 0.225 0  0.7599999999999999 0.2333333333333333 0  0.7682608695652173 0.225 0  0.7682608695652173 0.2333333333333333 0  0.7765217391304348 0.2333333333333333 0  0.3139130434782609 0.2416666666666667 0  0.3221739130434783 0.2416666666666667 0  0.3304347826086956 0.2416666666666667 0  0.338695652173913 0.2416666666666667 0  0.3469565217391304 0.2416666666666667 0  0.3552173913043478 0.2416666666666667 0  0.3634782608695652 0.2416666666666667 0  0.3717391304347826 0.2416666666666667 0  0.3799999999999999 0.2416666666666667 0  0.3882608695652174 0.2416666666666667 0  0.3965217391304348 0.2416666666666667 0  0.4047826086956521 0.2416666666666667 0  0.4130434782608696 0.2416666666666667 0  0.4213043478260869 0.2416666666666667 0  0.4295652173913043 0.2416666666666667 0  0.4378260869565217 0.2416666666666667 0  0.4460869565217391 0.2416666666666667 0  0.4543478260869565 0.2416666666666667 0  0.4626086956521739 0.2416666666666667 0  0.4708695652173913 0.2416666666666667 0  0.4791304347826086 0.2416666666666667 0  0.4873913043478261 0.2416666666666667 0  0.4956521739130435 0.2416666666666667 0  0.5039130434782608 0.2416666666666667 0  0.5121739130434783 0.2416666666666667 0  0.5204347826086956 0.2416666666666667 0  0.528695652173913 0.2416666666666667 0  0.5369565217391304 0.2416666666666667 0  0.5452173913043478 0.2416666666666667 0  0.5534782608695652 0.2416666666666667 0  0.5617391304347825 0.2416666666666667 0  0.57 0.2416666666666667 0  0.5782608695652174 0.2416666666666667 0  0.5865217391304348 0.2416666666666667 0  0.5947826086956521 0.2416666666666667 0  0.6030434782608696 0.2416666666666667 0  0.6113043478260869 0.2416666666666667 0  0.6195652173913043 0.2416666666666667 0  0.6278260869565218 0.2416666666666667 0  0.6360869565217391 0.2416666666666667 0  0.6443478260869565 0.2416666666666667 0  0.6526086956521739 0.2416666666666667 0  0.6608695652173913 0.2416666666666667 0  0.6691304347826087 0.2416666666666667 0  0.677391304347826 0.2416666666666667 0  0.6856521739130435 0.2416666666666667 0  0.6939130434782609 0.2416666666666667 0  0.7021739130434783 0.2416666666666667 0  0.7104347826086956 0.2416666666666667 0  0.718695652173913 0.2416666666666667 0  0.7269565217391304 0.2416666666666667 0  0.7352173913043478 0.2416666666666667 0  0.7434782608695653 0.2416666666666667 0  0.7517391304347827 0.2416666666666667 0  0.7599999999999999 0.2416666666666667 0  0.7682608695652173 0.2416666666666667 0  0.7765217391304348 0.2416666666666667 0  0.7847826086956522 0.2333333333333333 0  0.7847826086956522 0.2416666666666667 0  0.7930434782608695 0.2416666666666667 0  0.3221739130434783 0.25 0  0.3304347826086956 0.25 0  0.338695652173913 0.25 0  0.3469565217391304 0.25 0  0.3552173913043478 0.25 0  0.3634782608695652 0.25 0  0.3717391304347826 0.25 0  0.3799999999999999 0.25 0  0.3882608695652174 0.25 0  0.3965217391304348 0.25 0  0.4047826086956521 0.25 0  0.4130434782608696 0.25 0  0.4213043478260869 0.25 0  0.4295652173913043 0.25 0  0.4378260869565217 0.25 0  0.4460869565217391 0.25 0  0.4543478260869565 0.25 0  0.4626086956521739 0.25 0  0.4708695652173913 0.25 0  0.4791304347826086 0.25 0  0.4873913043478261 0.25 0  0.4956521739130435 0.25 0  0.5039130434782608 0.25 0  0.5121739130434783 0.25 0  0.5204347826086956 0.25 0  0.528695652173913 0.25 0  0.5369565217391304 0.25 0  0.5452173913043478 0.25 0  0.5534782608695652 0.25 0  0.5617391304347825 0.25 0  0.57 0.25 0  0.5782608695652174 0.25 0  0.5865217391304348 0.25 0  0.5947826086956521 0.25 0  0.6030434782608696 0.25 0  0.6113043478260869 0.25 0  0.6195652173913043 0.25 0  0.6278260869565218 0.25 0  0.6360869565217391 0.25 0  0.6443478260869565 0.25 0  0.6526086956521739 0.25 0  0.6608695652173913 0.25 0  0.6691304347826087 0.25 0  0.677391304347826 0.25 0  0.6856521739130435 0.25 0  0.6939130434782609 0.25 0  0.7021739130434783 0.25 0  0.7104347826086956 0.25 0  0.718695652173913 0.25 0  0.7269565217391304 0.25 0  0.7352173913043478 0.25 0  0.7434782608695653 0.25 0  0.7517391304347827 0.25 0  0.7599999999999999 0.25 0  0.7682608695652173 0.25 0  0.7765217391304348 0.25 0  0.7847826086956522 0.25 0  0.7930434782608695 0.25 0  0.8013043478260868 0.2416666666666667 0  0.8013043478260868 0.25 0  0.8095652173913043 0.2416666666666667 0  0.8095652173913043 0.25 0  0.8178260869565217 0.2416666666666667 0  0.8178260869565217 0.25 0  0.8260869565217391 0.2416666666666667 0  0.8260869565217391 0.25 0  0.8343478260869565 0.2416666666666667 0  0.8343478260869565 0.25 0  0.8426086956521739 0.2416666666666667 0  0.8426086956521739 0.25 0  0.8508695652173912 0.2416666666666667 0  0.8508695652173912 0.25 0  0.8591304347826086 0.2416666666666667 0  0.8591304347826086 0.25 0  0.8673913043478261 0.2416666666666667 0  0.8673913043478261 0.25 0  0.8756521739130434 0.2416666666666667 0  0.8756521739130434 0.25 0  0.8839130434782608 0.2416666666666667 0  0.8839130434782608 0.25 0  0.8921739130434783 0.2416666666666667 0  0.8921739130434783 0.25 0  0.9004347826086956 0.2416666666666667 0  0.9004347826086956 0.25 0  0.908695652173913 0.2416666666666667 0  0.908695652173913 0.25 0  0.9169565217391303 0.25 0  0.3304347826086956 0.2583333333333334 0  0.338695652173913 0.2583333333333334 0  0.3469565217391304 0.2583333333333334 0  0.3552173913043478 0.2583333333333334 0  0.3634782608695652 0.2583333333333334 0  0.3717391304347826 0.2583333333333334 0  0.3799999999999999 0.2583333333333334 0  0.3882608695652174 0.2583333333333334 0  0.3965217391304348 0.2583333333333334 0  0.4047826086956521 0.2583333333333334 0  0.4130434782608696 0.2583333333333334 0  0.4213043478260869 0.2583333333333334 0  0.4295652173913043 0.2583333333333334 0  0.4378260869565217 0.2583333333333334 0  0.4460869565217391 0.2583333333333334 0  0.4543478260869565 0.2583333333333334 0  0.4626086956521739 0.2583333333333334 0  0.4708695652173913 0.2583333333333334 0  0.4791304347826086 0.2583333333333334 0  0.4873913043478261 0.2583333333333334 0  0.4956521739130435 0.2583333
[...]
<CellData  Scalars="rho_bar"> 
<DataArray  type="Float64"  Name="rho_bar"  format="ascii">0.0000000000000000e+00   0.0000000000000000e+00   0.0000000000000000e+00   0.0000000000000000e+00   0.0000000000000000e+00   0.0000000000000000e+00   0.0000000000000000e+00   0.0000000000000000e+00   0.0000000000000000e+00   0.0000000000000000e+00   0.0000000000000000e+00   0.0000000000000000e+00   0.0000000000000000e+00   0.0000000000000000e+00   0.0000000000000000e+00   0.0000000000000000e+00   0.0000000000000000e+00   0.0000000000000000e+00   0.0000000000000000e+00   0.0000000000000000e+00   0.0000000000000000e+00   0.0000000000000000e+00   0.0000000000000000e+00   0.0000000000000000e+00   0.0000000000000000e+00   0.0000000000000000e+00   0.0000000000000000e+00   0.0000000000000000e+00   0.0000000000000000e+00   0.0000000000000000e+00   0.0000000000000000e+00   0.0000000000000000e+00   0.0000000000000000e+00   0.0000000000000000e+00   0.0000000000000000e+00   0.0000000000000000e+00   0.0000000000000000e+00   0.0000000000000000e+00   0.0000000000000000e+00   0.0000000000000000e+00   0.0000000000000000e+00   0.0000000000000000e+00   0.0000000000000000e+00   0.0000000000000000e+00   0.0000000000000000e+00   0.0000000000000000e+00   0.0000000000000000e+00   3.7007434154171889e-17   0.0000000000000000e+00   4.3878789490747749e-12   1.0177044392397268e-16   1.9887959686511647e-07   9.8744068477429892e-12   1.9590198519693529e-03   4.1463902674306508e-07   4.1025576943376180e-01   3.6166787112460646e-03   9.8932854713866036e-01   5.3057420014036472e-01   9.9996230663315389e-01   9.9291426551948814e-01   9.9999936031122150e-01   9.9997307624301657e-01   9.9999994547597593e-01   9.9999949892081397e-01   9.9999997554580000e-01   9.9999995193550073e-01   9.9999993964243949e-01   9.9999997506500438e-01   9.9999918770262330e-01   9.9999992872698196e-01   9.9994233551769884e-01   9.9999891503543425e-01   9.7990318638483520e-01   9.9991467257643984e-01   3.8800609751253967e-01   9.6811555805141780e-01   6.5282555943720533e-04   2.7297901020434873e-01   4.2149423766050604e-08   3.0244334109858861e-04   5.7143179077456807e-13   1.6878473054389904e-08   0.0000000000000000e+00   2.2712387526269142e-13   0.0000000000000000e+00   0.0000000000000000e+00   0.0000000000000000e+00   0.0000000000000000e+00   0.0000000000000000e+00   0.0000000000000000e+00   0.0000000000000000e+00   0.0000000000000000e+00   0.0000000000000000e+00   0.0000000000000000e+00   0.0000000000000000e+00   0.0000000000000000e+00   0.0000000000000000e+00   0.0000000000000000e+00   0.0000000000000000e+00   0.0000000000000000e+00   0.0000000000000000e+00   0.0000000000000000e+00   0.0000000000000000e+00   0.0000000000000000e+00   0.0000000000000000e+00   0.0000000000000000e+00   0.0000000000000000e+00   0.0000000000000000e+00   0.0000000000000000e+00   0.0000000000000000e+00   0.0000000000000000e+00   0.0000000000000000e+00   0.0000000000000000e+00   0.0000000000000000e+00   0.0000000000000000e+00   0.0000000000000000e+00   0.0000000000000000e+00   0.0000000000000000e+00   0.0000000000000000e+00   0.0000000000000000e+00   0.0000000000000000e+00   0.0000000000000000e+00   0.0000000000000000e+00   0.0000000000000000e+00   0.0000000000000000e+00   0.0000000000000000e+00   0.0000000000000000e+00   0.0000000000000000e+00   0.0000000000000000e+00   0.0000000000000000e+00   0.0000000000000000e+00   0.0000000000000000e+00   0.0000000000000000e+00   0.0000000000000000e+00   0.0000000000000000e+00   0.0000000000000000e+00   0.0000000000000000e+00   0.0000000000000000e+00   0.0000000000000000e+00   0.0000000000000000e+00   0.0000000000000000e+00   0.0000000000000000e+00   0.0000000000000000e+00   0.0000000000000000e+00   0.0000000000000000e+00   0.0000000000000000e+00   0.0000000000000000e+00   0.0000000000000000e+00   0.0000000000000000e+00   0.0000000000000000e+00   0.0000000000000000e+00   0.0000000000000000e+00   0.0000000000000000e+00   0.0000000000000000e+00   0.0000000000000000e+00   0.0000000000000000e+00   0.0000000000000000e+00   0.0000000000000000e+00   0.0000000000000000e+00   0.0000000000000000e+00   0.0000000000000000e+00   0.0000000000000000e+00   2.0909200297107114e-15   0.0000000000000000e+00   1.5278979007919227e-10   4.4131365228849972e-15   4.2150814540675716e-06   3.2187596106976929e-10   2.4358545653659247e-02   8.5713658053062254e-06   6.6746532911157341e-01   4.2313016334780656e-02   9.9856551697916784e-01   7.4597495455740903e-01   9.9999164841597454e-01   9.9903368529289538e-01   9.9999975910113992e-01   9.9999385880603320e-01   9.9999996449557249e-01   9.9999980405511180e-01   9.9999997158693854e-01   9.9999996707630179e-01   9.9999987245856603e-01   9.9999996926853518e-01   9.9999688043155233e-01   9.9999984086949234e-01   9.9959900544560298e-01   9.9999563192548901e-01   8.4356375893559210e-01   9.9937859543315655e-01   9.0836707017676988e-02   7.7752136139419870e-01   2.2010614602265464e-05   5.1276354796749357e-02   7.7233152280993989e-10   9.6509109489273381e-06   9.6404365971617739e-15   3.3000192393532285e-10   0.0000000000000000e+00   4.2836105033453951e-15   0.0000000000000000e+00   0.0000000000000000e+00   0.0000000000000000e+00   0.0000000000000000e+00   0.0000000000000000e+00   0.0000000000000000e+00   0.0000000000000000e+00   0.0000000000000000e+00   0.0000000000000000e+00   0.0000000000000000e+00   0.0000000000000000e+00   0.0000000000000000e+00   0.0000000000000000e+00   0.0000000000000000e+00   0.0000000000000000e+00   0.0000000000000000e+00   0.0000000000000000e+00   0.0000000000000000e+00   0.0000000000000000e+00   0.0000000000000000e+00   0.0000000000000000e+00   0.0000000000000000e+00   0.0000000000000000e+00   0.0000000000000000e+00   0.0000000000000000e+00   0.0000000000000000e+00   0.0000000000000000e+00   0.0000000000000000e+00   0.0000000000000000e+00   0.0000000000000000e+00   0.0000000000000000e+00   0.0000000000000000e+00   0.0000000000000000e+00   0.0000000000000000e+00   0.0000000000000000e+00   0.0000000000000000e+00   0.0000000000000000e+00   0.0000000000000000e+00   0.0000000000000000e+00   0.0000000000000000e+00   0.0000000000000000e+00   0.0000000000000000e+00   0.0000000000000000e+00   0.0000000000000000e+00   0.0000000000000000e+00   0.0000000000000000e+00   0.0000000000000000e+00   0.0000000000000000e+00   0.0000000000000000e+00   0.0000000000000000e+00   0.0000000000000000e+00   0.0000000000000000e+00   0.0000000000000000e+00   0.0000000000000000e+00   0.0000000000000000e+00   0.0000000000000000e+00   0.0000000000000000e+00   0.0000000000000000e+00   0.0000000000000000e+00   0.0000000000000000e+00   0.0000000000000000e+00   0.0000000000000000e+00   0.0000000000000000e+00   0.0000000000000000e+00   0.0000000000000000e+00   0.0000000000000000e+00   0.0000000000000000e+00   0.0000000000000000e+00   0.0000000000000000e+00   0.0000000000000000e+00   0.0000000000000000e+00   0.0000000000000000e+00   0.0000000000000000e+00   0.0000000000000000e+00   0.0000000000000000e+00   0.0000000000000000e+00   0.0000000000000000e+00   0.0000000000000000e+00   0.0000000000000000e+00   0.0000000000000000e+00   7.0785969678392264e-14   0.0000000000000000e+00   4.6159835676018438e-09   1.5512591211574997e-13   8.5529261915027563e-05   1.0176731716586099e-08   1.6683970680270621e-01   1.7248892918929801e-04   9.1130463083078228e-01   2.3913855788490529e-01   9.9977617197896940e-01   9.3926839626839020e-01   9.9999781194467696e-01   9.9984545630190269e-01   9.9999989189212413e-01   9.9999834851186753e-01   9.9999997172648547e-01   9.9999990862517019e-01   9.9999995855176049e-01   9.9999997232868509e-01   9.9999965711867855e-01   9.9999995251605889e-01   9.9998459449762656e-01   9.9999955089058223e-01   9.9636968274862814e-01   9.9997756786173875e-01   5.9642042033331222e-01   9.9422502223072773e-01   6.5340104035542705e-03   4.6536262839440368e-01   7.5529112363488993e-07   3.3554714460963340e-03   1.8029781371590538e-11   3.4701193163400035e-07   2.1279274638648835e-16   7.9167505884214490e-12   0.0000000000000000e+00   9.2518585385429716e-17   0.0000000000000000e+00   0.0000000000000000e+00   0.0000000000000000e+00   0.0000000000000000e+00   0.0000000000000000e+00   0.0000000000000000e+00   0.0000000000000000e+00   0.0000000000000000e+00   0.0000000000000000e+00   0.0000000000000000e+00   0.0000000000000000e+00   0.0000000000000000e+00   0.0000000000000000e+00   0.0000000000000000e+00   0.0000000000000000e+00   0.0000000000000000e+00   0.0000000000000000e+00   0.0000000000000000e+00   0.0000000000000000e+00   0.0000000000000000e+00   0.0000000000000000e+00   0.0000000000000000e+00   0.0000000000000000e+00   0.0000000000000000e+00   0.0000000000000000e+00   0.0000000000000000e+00   0.0000000000000000e+00   0.0000000000000000e+00   0.0000000000000000e+00   0.0000000000000000e+00   0.0000000000000000e+00   0.0000000000000000e+00   0.0000000000000000e+00   0.0000000000000000e+00   0.0000000000000000e+00   0.0000000000000000e+00   0.0000000000000000e+00   0.0000000000000000e+00   0.0000000000000000e+00   0.0000000000000000e+00   0.0000000000000000e+00   0.0000000000000000e+00   0.0000000000000000e+00   0.0000000000000000e+00   0.0000000000000000e+00   0.0000000000000000e+00   0.0000000000000000e+00   0.0000000000000000e+00   0.0000000000000000e+00   0.0000000000000000e+00   0.0000000000000000e+00   0.0000000000000000e+00   0.0000000000000000e+00   0.0000000000000000e+00   0.0000000000000000e+00   0.0000000000000000e+00   0.0000000000000000e+00   0.0000000000000000e+00   0.0000000000000000e+00   0.0000000000000000e+00   0.0000000000000000e+00   0.0000000000000000e+00   0.0000000000000000e+00   0.0000000000000000e+00   0.0000000000000000e+00   0.0000000000000000e+00   0.0000000000000000e+00   0.0000000000000000e+00   0.0000000000000000e+00   0.0000000000000000e+00   0.0000000000000000e+00   0.0000000000000000e+00   0.0000000000000000e+00   0.0000000000000000e+00   0.0000000000000000e+00   0.0000000000000000e+00   0.0000000000000000e+00   0.0000000000000000e+00   0.0000000000000000e+00   0.0000000000000000e+00   0.0000000000000000e+00   0.0000000000000000e+00   0.0000000000000000e+00   0.0000000000000000e+00   0.0000000000000000e+00   0.0000000000000000e+00   0.0000000000000000e+00   0.0000000000000000e+00   0.0000000000000000e+00   0.0000000000000000e+00   0.0000000000000000e+00   0.0000000000000000e+00   0.0000000000000000e+00   0.0000000000000000e+00   0.0000000000000000e+00   0.0000000000000000e+00   0.0000000000000000e+00   0.0000000000000000e+00   0.0000000000000000e+00   0.0000000000000000e+00   0.0000000000000000e+00   0.0000000000000000e+00   0.0000000000000000e+00   0.0000000000000000e+00   0.0000000000000000e+00   0.0000000000000000e+00   3.7007434154171883e-17   0.0000000000000000e+00   2.9398058061976444e-12   7.4014868308343741e-17   1.4055857802675042e-07   6.5383254366224719e-12   1.5283645421017287e-03   3.0062647854434122e-07   3.9295230751679078e-01   2.9145295923747681e-03   9.8832142007890189e-01   5.1894476983000271e-01   9.9996047883873862e-01   9.9241870990645864e-01   9.9999933436969834e-01   9.9997222817888454e-01   9.9999994160711159e-01   9.9999948180748033e-01   9.9999997206820535e-01   9.9999994823732308e-01   9.9999992402039561e-01   9.9999997109391492e-01   9.9999884671265737e-01   9.9999990883853573e-01   9.9990699595610666e-01   9.9999844680880678e-01   9.6521389448621320e-01   9.9986312854089243e-01   3.1705827436065515e-01   9.4702244553516379e-01   3.6889166199965956e-04   2.2538308566152376e-01   2.4282521743357321e-08   1.8140153026693917e-04   3.6233053594495825e-13   1.0587325433020207e-08   0.0000000000000000e+00   1.5778119551631181e-13   0.0000000000000000e+00   0.0000000000000000e+00   0.0000000000000000e+00   0.0000000000000000e+00   0.0000000000000000e+00   0.0000000000000000e+00   0.0000000000000000e+00   0.0000000000000000e+00   0.0000000000000000e+00   0.0000000000000000e+00   0.0000000000000000e+00   0.0000000000000000e+00   0.0000000000000000e+00   0.0000000000000000e+00   0.0000000000000000e+00   0.0000000000000000e+00   0.0000000000000000e+00   0.0000000000000000e+00   0.0000000000000000e+00   0.0000000000000000e+00   0.0000000000000000e+00   0.0000000000000000e+00   0.0000000000000000e+00   0.0000000000000000e+00   0.0000000000000000e+00   0.0000000000000000e+00   0.0000000000000000e+00   0.0000000000000000e+00   0.0000000000000000e+00   0.0000000000000000e+00   0.0000000000000000e+00   0.0000000000000000e+00   0.0000000000000000e+00   0.0000000000000000e+00   0.0000000000000000e+00   0.0000000000000000e+00   0.0000000000000000e+00   0.0000000000000000e+00   0.0000000000000000e+00   0.0000000000000000e+00   0.0000000000000000e+00   0.0000000000000000e+00   0.0000000000000000e+00   0.0000000000000000e+00   0.0000000000000000e+00   0.0000000000000000e+00   0.0000000000000000e+00   0.0000000000000000e+00   0.0000000000000000e+00   0.0000000000000000e+00   0.0000000000000000e+00   0.0000000000000000e+00   0.0000000000000000e+00   0.0000000000000000e+00   0.0000000000000000e+00   0.0000000000000000e+00   0.0000000000000000e+00   0.0000000000000000e+00   0.0000000000000000e+00   0.0000000000000000e+00   0.0000000000000000e+00   0.0000000000000000e+00   0.0000000000000000e+00   0.0000000000000000e+00   0.0000000000000000e+00   0.0000000000000000e+00   0.0000000000000000e+00   0.0000000000000000e+00   0.0000000000000000e+00   0.0000000000000000e+00   0.0000000000000000e+00   0.0000000000000000e+00   0.0000000000000000e+00   0.0000000000000000e+00   0.0000000000000000e+00   0.0000000000000000e+00   0.0000000000000000e+00   0.0000000000000000e+00   0.0000000000000000e+00   0.0000000000000000e+00   0.0000000000000000e+00   0.0000000000000000e+00   0.0000000000000000e+00   0.0000000000000000e+00   0.0000000000000000e+00   0.0000000000000000e+00   0.0000000000000000e+00   0.0000000000000000e+00   0.0000000000000000e+00   0.0000000000000000e+00   0.0000000000000000e+00   0.0000000000000000e+00   0.0000000000000000e+00   0.0000000000000000e+00   0.0000000000000000e+00   0.0000000000000000e+00   0.0000000000000000e+00   0.0000000000000000e+00   0.0000000000000000e+00   0.0000000000000000e+00   0.0000000000000000e+00   0.0000000000000000e+00   0.0000000000000000e+00   0.0000000000000000e+00   0.0000000000000000e+00   0.0000000000000000e+00   0.0000000000000000e+00   0.0000000000000000e+00   1.5080529417825040e-15   0.0000000000000000e+00   1.1165939469333823e-10   3.2566542055671257e-15   3.4687721951198727e-06   2.4755470821406317e-10   2.2375626624677757e-02   7.4846863479804959e-06   6.6542884679134329e-01   4.0736740845644256e-02   9.9861207188303869e-01   7.4956525282871322e-01   9.9999183206299025e-01   9.9908531613386409e-01   9.9999975442070932e-01   9.9999406439759519e-01   9.9999996129509450e-01   9.9999980109076647e-01   9.9999996619854525e-01   9.9999996413347680e-01   9.9999983319343244e-01   9.9999996359537724e-01   9.9999556390880606e-01   9.9999979493004065e-01   9.9939686905166192e-01   9.9999395909697275e-01   8.0318786784444440e-01   9.9910224114016088e-01   7.0458943021380019e-02   7.3585483408743357e-01   1.6946474230320842e-05   4.1320781453333184e-02   6.6111179493807027e-10   8.0953638832518635e-06   9.4831550020065460e-15   3.1057769319294454e-10   0.0000000000000000e+00   4.6629367034256559e-15   0.0000000000000000e+00   0.0000000000000000e+00   0.0000000000000000e+00   0.0000000000000000e+00   0.0000000000000000e+00   0.0000000000000000e+00   0.0000000000000000e+00   0.0000000000000000e+00   0.0000000000000000e+00   0.0000000000000000e+00   0.0000000000000000e+00   0.0000000000000000e+00   0.0000000000000000e+00   0.0000000000000000e+00   0.0000000000000000e+00   0.0000000000000000e+00   0.0000000000000000e+00   0.0000000000000000e+00   0.0000000000000000e+00   0.0000000000000000e+00   0.0000000000000000e+00   0.0000000000000000e+00   0.0000000000000000e+00   0.0000000000000000e+00   0.0000000000000000e+00   0.0000000000000000e+00   0.0000000000000000e+00   0.0000000000000000e+00   0.0000000000000000e+00   0.0000000000000000e+00   0.0000000000000000e+00   0.0000000000000000e+00   0.0000000000000000e+00   0.0000000000000000e+00   0.0000000000000000e+00   0.0000000000000000e+00   0.0000000000000000e+00   0.0000000000000000e+00   0.0000000000000000e+00   0.0000000000000000e+00   0.0000000000000000e+00   0.0000000000000000e+00   0.0000000000000000e+00   0.0000000000000000e+00   0.0000000000000000e+00   0.0000000000000000e+00   0.0000000000000000e+00   0.0000000000000000e+00   0.0000000000000000e+00   0.0000000000000000e+00   0.0000000000000000e+00   0.0000000000000000e+00   0.0000000000000000e+00   0.0000000000000000e+00   0.0000000000000000e+00   0.0000000000000000e+00   0.0000000000000000e+00   0.0000000000000000e+00   0.0000000000000000e+00   0.0000000000000000e+00   0.0000000000000000e+00   0.0000000000000000e+00   0.0000000000000000e+00   0.0000000000000000e+00   0.0000000000000000e+00   0.0000000000000000e+00   0.0000000000000000e+00   0.0000000000000000e+00   0.0000000000000000e+00   0.0000000000000000e+00   0.0000000000000000e+00   0.0000000000000000e+00   0.0000000000000000e+00   0.0000000000000000e+00   0.0000000000000000e+00   0.0000000000000000e+00   0.0000000000000000e+00   0.0000000000000000e+00   0.0000000000000000e+00   0.0000000000000000e+00   0.0000000000000000e+00   0.0000000000000000e+00   0.0000000000000000e+00   0.0000000000000000e+00   0.0000000000000000e+00   0.0000000000000000e+00   0.0000000000000000e+00   0.0000000000000000e+00   0.0000000000000000e+00   0.0000000000000000e+00   0.0000000000000000e+00   0.0000000000000000e+00   0.0000000000000000e+00   0.0000000000000000e+00   0.0000000000000000e+00   0.0000000000000000e+00   0.0000000000000000e+00   0.0000000000000000e+00   0.0000000000000000e+00   0.0000000000000000e+00   0.0000000000000000e+00   0.0000000000000000e+00   0.0000000000000000e+00   0.0000000000000000e+00   0.0000000000000000e+00   0.0000000000000000e+00   0.0000000000000000e+00   0.0000000000000000e+00   0.0000000000000000e+00   0.0000000000000000e+00   6.2736852749859879e-14   0.0000000000000000e+00   4.4298976801619237e-09   1.4649392809928938e-13   8.9516482362411720e-05   1.0459277693941617e-08   1.7483261170092526e-01   1.9054352077978634e-04   9.2057427562800598e-01   2.5466529858919645e-01   9.9979958447532635e-01   9.4701597020787820e-01   9.9999794238992623e-01   9.9986353344973877e-01   9.9999989196715355e-01   9.9999846596590491e-01   9.9999996970484573e-01   9.9999990999990473e-01   9.9999995240482509e-01   9.9999997094301418e-01   9.9999958505272335e-01   9.9999994704217421e-01   9.9998088465211510e-01   9.9999947698169156e-01   9.9554563935896134e-01   9.9997342742162421e-01   5.8151751972207266e-01   9.9329547513394700e-01   6.4921618569203452e-03   4.6431277376334718e-01   8.6154736056442960e-07   3.6266782844851320e-03   2.5338148246234482e-11   4.4187789582927911e-07   3.6082248300317583e-16   1.2745304811545566e-11   0.0000000000000000e+00   1.8503717077085941e-16   0.0000000000000000e+00   0.0000000000000000e+00   0.0000000000000000e+00   0.0000000000000000e+00   0.0000000000000000e+00   0.0000000000000000e+00   0.0000000000000000e+00   0.0000000000000000e+00   0.0000000000000000e+00   0.0000000000000000e+00   0.0000000000000000e+00   0.0000000000000000e+00   0.0000000000000000e+00   0.0000000000000000e+00   0.0000000000000000e+00   0.0000000000000000e+00   0.0000000000000000e+00   0.0000000000000000e+00   0.0000000000000000e+00   0.0000000000000000e+00   0.0000000000000000e+00   0.0000000000000000e+00   0.0000000000000000e+00   0.0000000000000000e+00   0.0000000000000000e+00   0.0000000000000000e+00   0.0000000000000000e+00   0.0000000000000000e+00   0.0000000000000000e+00   0.0000000000000000e+00   0.0000000000000000e+00   0.0000000000000000e+00   0.0000000000000000e+00   0.0000000000000000e+00   0.0000000000000000e+00   0.0000000000000000e+00   0.0000000000000000e+00   0.0000000000000000e+00   0.0000000000000000e+00   0.00000000