<?xml version="1.0"?>
<VTKFile type="UnstructuredGrid"  version="0.1"  >
<UnstructuredGrid>
<Piece  NumberOfPoints="2484" NumberOfCells="4724">
<Points>
<DataArray  type="Float64"  NumberOfComponents="3"  format="ascii">2.949130434782608 0 0  2.957391304347826 0 0  2.957391304347826 0.008333333333333333 0  2.949130434782608 0.008333333333333333 0  2.965652173913043 0 0  2.965652173913043 0.008333333333333333 0  2.973913043478261 0 0  2.973913043478261 0.008333333333333333 0  2.982173913043478 0 0  2.982173913043478 0.008333333333333333 0  2.990434782608696 0 0  2.990434782608696 0.008333333333333333 0  2.998695652173913 0 0  2.998695652173913 0.008333333333333333 0  3.006956521739131 0 0  3.006956521739131 0.008333333333333333 0  3.015217391304348 0 0  3.015217391304348 0.008333333333333333 0  3.023478260869565 0 0  3.023478260869565 0.008333333333333333 0  3.031739130434782 0 0  3.031739130434782 0.008333333333333333 0  3.04 0 0  3.04 0.008333333333333333 0  3.048260869565218 0 0  3.048260869565218 0.008333333333333333 0  3.056521739130435 0 0  3.056521739130435 0.008333333333333333 0  3.064782608695652 0 0  3.064782608695652 0.008333333333333333 0  3.073043478260869 0 0  3.073043478260869 0.008333333333333333 0  3.081304347826087 0 0  3.081304347826087 0.008333333333333333 0  3.089565217391304 0 0  3.089565217391304 0.008333333333333333 0  3.097826086956522 0 0  3.097826086956522 0.008333333333333333 0  3.106086956521739 0 0  3.106086956521739 0.008333333333333333 0  3.114347826086956 0 0  3.114347826086956 0.008333333333333333 0  3.122608695652174 0 0  3.122608695652174 0.008333333333333333 0  3.130869565217391 0 0  3.130869565217391 0.008333333333333333 0  3.139130434782609 0 0  3.139130434782609 0.008333333333333333 0  3.147391304347826 0 0  3.147391304347826 0.008333333333333333 0  3.155652173913043 0 0  3.155652173913043 0.008333333333333333 0  3.163913043478261 0 0  3.163913043478261 0.008333333333333333 0  3.172173913043478 0.008333333333333333 0  2.957391304347826 0.01666666666666667 0  2.965652173913043 0.01666666666666667 0  2.973913043478261 0.01666666666666667 0  2.982173913043478 0.01666666666666667 0  2.990434782608696 0.01666666666666667 0  2.998695652173913 0.01666666666666667 0  3.006956521739131 0.01666666666666667 0  3.015217391304348 0.01666666666666667 0  3.023478260869565 0.01666666666666667 0  3.031739130434782 0.01666666666666667 0  3.04 0.01666666666666667 0  3.048260869565218 0.01666666666666667 0  3.056521739130435 0.01666666666666667 0  3.064782608695652 0.01666666666666667 0  3.073043478260869 0.01666666666666667 0  3.081304347826087 0.01666666666666667 0  3.089565217391304 0.01666666666666667 0  3.097826086956522 0.01666666666666667 0  3.106086956521739 0.01666666666666667 0  3.114347826086956 0.01666666666666667 0  3.122608695652174 0.01666666666666667 0  3.130869565217391 0.01666666666666667 0  3.139130434782609 0.01666666666666667 0  3.147391304347826 0.01666666666666667 0  3.155652173913043 0.01666666666666667 0  3.163913043478261 0.01666666666666667 0  3.172173913043478 0.01666666666666667 0  3.180434782608696 0.01666666666666667 0  2.965652173913043 0.025 0  2.973913043478261 0.025 0  2.982173913043478 0.025 0  2.990434782608696 0.025 0  2.998695652173913 0.025 0  3.006956521739131 0.025 0  3.015217391304348 0.025 0  3.023478260869565 0.025 0  3.031739130434782 0.025 0  3.04 0.025 0  3.048260869565218 0.025 0  3.056521739130435 0.025 0  3.064782608695652 0.025 0  3.073043478260869 0.025 0  3.081304347826087 0.025 0  3.089565217391304 0.025 0  3.097826086956522 0.025 0  3.106086956521739 0.025 0  3.114347826086956 0.025 0  3.122608695652174 0.025 0  3.130869565217391 0.025 0  3.139130434782609 0.025 0  3.147391304347826 0.025 0  3.155652173913043 0.025 0  3.163913043478261 0.025 0  3.172173913043478 0.025 0  3.180434782608696 0.025 0  3.188695652173913 0.025 0  2.973913043478261 0.03333333333333333 0  2.982173913043478 0.03333333333333333 0  2.990434782608696 0.03333333333333333 0  2.998695652173913 0.03333333333333333 0  3.006956521739131 0.03333333333333333 0  3.015217391304348 0.03333333333333333 0  3.023478260869565 0.03333333333333333 0  3.031739130434782 0.03333333333333333 0  3.04 0.03333333333333333 0  3.048260869565218 0.03333333333333333 0  3.056521739130435 0.03333333333333333 0  3.064782608695652 0.03333333333333333 0  3.073043478260869 0.03333333333333333 0  3.081304347826087 0.03333333333333333 0  3.089565217391304 0.03333333333333333 0  3.097826086956522 0.03333333333333333 0  3.106086956521739 0.03333333333333333 0  3.114347826086956 0.03333333333333333 0  3.122608695652174 0.03333333333333333 0  3.130869565217391 0.03333333333333333 0  3.139130434782609 0.03333333333333333 0  3.147391304347826 0.03333333333333333 0  3.155652173913043 0.03333333333333333 0  3.163913043478261 0.03333333333333333 0  3.172173913043478 0.03333333333333333 0  3.180434782608696 0.03333333333333333 0  3.188695652173913 0.03333333333333333 0  3.19695652173913 0.03333333333333333 0  2.982173913043478 0.04166666666666666 0  2.990434782608696 0.04166666666666666 0  2.998695652173913 0.04166666666666666 0  3.006956521739131 0.04166666666666666 0  3.015217391304348 0.04166666666666666 0  3.023478260869565 0.04166666666666666 0  3.031739130434782 0.04166666666666666 0  3.04 0.04166666666666666 0  3.048260869565218 0.04166666666666666 0  3.056521739130435 0.04166666666666666 0  3.064782608695652 0.04166666666666666 0  3.073043478260869 0.04166666666666666 0  3.081304347826087 0.04166666666666666 0  3.089565217391304 0.04166666666666666 0  3.097826086956522 0.04166666666666666 0  3.106086956521739 0.04166666666666666 0  3.114347826086956 0.04166666666666666 0  3.122608695652174 0.04166666666666666 0  3.130869565217391 0.04166666666666666 0  3.139130434782609 0.04166666666666666 0  3.147391304347826 0.04166666666666666 0  3.155652173913043 0.04166666666666666 0  3.163913043478261 0.04166666666666666 0  3.172173913043478 0.04166666666666666 0  3.180434782608696 0.04166666666666666 0  3.188695652173913 0.04166666666666666 0  3.19695652173913 0.04166666666666666 0  3.205217391304347 0.04166666666666666 0  2.990434782608696 0.05 0  2.998695652173913 0.05 0  3.006956521739131 0.05 0  3.015217391304348 0.05 0  3.023478260869565 0.05 0  3.031739130434782 0.05 0  3.04 0.05 0  3.048260869565218 0.05 0  3.056521739130435 0.05 0  3.064782608695652 0.05 0  3.073043478260869 0.05 0  3.081304347826087 0.05 0  3.089565217391304 0.05 0  3.097826086956522 0.05 0  3.106086956521739 0.05 0  3.114347826086956 0.05 0  3.122608695652174 0.05 0  3.130869565217391 0.05 0  3.139130434782609 0.05 0  3.147391304347826 0.05 0  3.155652173913043 0.05 0  3.163913043478261 0.05 0  3.172173913043478 0.05 0  3.180434782608696 0.05 0  3.188695652173913 0.05 0  3.19695652173913 0.05 0  3.205217391304347 0.05 0  3.213478260869565 0.05 0  2.998695652173913 0.05833333333333333 0  3.006956521739131 0.05833333333333333 0  3.015217391304348 0.05833333333333333 0  3.023478260869565 0.05833333333333333 0  3.031739130434782 0.05833333333333333 0  3.04 0.05833333333333333 0  3.048260869565218 0.05833333333333333 0  3.056521739130435 0.05833333333333333 0  3.064782608695652 0.05833333333333333 0  3.073043478260869 0.05833333333333333 0  3.081304347826087 0.05833333333333333 0  3.089565217391304 0.05833333333333333 0  3.097826086956522 0.05833333333333333 0  3.106086956521739 0.05833333333333333 0  3.114347826086956 0.05833333333333333 0  3.122608695652174 0.05833333333333333 0  3.130869565217391 0.05833333333333333 0  3.139130434782609 0.05833333333333333 0  3.147391304347826 0.05833333333333333 0  3.155652173913043 0.05833333333333333 0  3.163913043478261 0.05833333333333333 0  3.172173913043478 0.05833333333333333 0  3.180434782608696 0.05833333333333333 0  3.188695652173913 0.05833333333333333 0  3.19695652173913 0.05833333333333333 0  3.205217391304347 0.05833333333333333 0  3.213478260869565 0.05833333333333333 0  3.221739130434782 0.05833333333333333 0  3.006956521739131 0.06666666666666667 0  3.015217391304348 0.06666666666666667 0  3.023478260869565 0.06666666666666667 0  3.031739130434782 0.06666666666666667 0  3.04 0.06666666666666667 0  3.048260869565218 0.06666666666666667 0  3.056521739130435 0.06666666666666667 0  3.064782608695652 0.06666666666666667 0  3.073043478260869 0.06666666666666667 0  3.081304347826087 0.06666666666666667 0  3.089565217391304 0.06666666666666667 0  3.097826086956522 0.06666666666666667 0  3.106086956521739 0.06666666666666667 0  3.114347826086956 0.06666666666666667 0  3.122608695652174 0.06666666666666667 0  3.130869565217391 0.06666666666666667 0  3.139130434782609 0.06666666666666667 0  3.147391304347826 0.06666666666666667 0  3.155652173913043 0.06666666666666667 0  3.163913043478261 0.06666666666666667 0  3.172173913043478 0.06666666666666667 0  3.180434782608696 0.06666666666666667 0  3.188695652173913 0.06666666666666667 0  3.19695652173913 0.06666666666666667 0  3.205217391304347 0.06666666666666667 0  3.213478260869565 0.06666666666666667 0  3.221739130434782 0.06666666666666667 0  3.23 0.06666666666666667 0  3.015217391304348 0.075 0  3.023478260869565 0.075 0  3.031739130434782 0.075 0  3.04 0.075 0  3.048260869565218 0.075 0  3.056521739130435 0.075 0  3.064782608695652 0.075 0  3.073043478260869 0.075 0  3.081304347826087 0.075 0  3.089565217391304 0.075 0  3.097826086956522 0.075 0  3.106086956521739 0.075 0  3.114347826086956 0.075 0  3.122608695652174 0.075 0  3.130869565217391 0.075 0  3.139130434782609 0.075 0  3.147391304347826 0.075 0  3.155652173913043 0.075 0  3.163913043478261 0.075 0  3.172173913043478 0.075 0  3.180434782608696 0.075 0  3.188695652173913 0.075 0  3.19695652173913 0.075 0  3.205217391304347 0.075 0  3.213478260869565 0.075 0  3.221739130434782 0.075 0  3.23 0.075 0  3.238260869565217 0.075 0  3.023478260869565 0.08333333333333333 0  3.031739130434782 0.08333333333333333 0  3.04 0.08333333333333333 0  3.048260869565218 0.08333333333333333 0  3.056521739130
[...]
<CellData  Scalars="rho_bar"> 
<DataArray  type="Float64"  Name="rho_bar"  format="ascii">9.9999999409213836e-01   9.9999998703797199e-01   9.9999999236123016e-01   9.9999998390433276e-01   9.9999998907031540e-01   9.9999997752362202e-01   9.9999998364142273e-01   9.9999996633012489e-01   9.9999997619226300e-01   9.9999994958048977e-01   9.9999996868380059e-01   9.9999992998481446e-01   9.9999996547958259e-01   9.9999991614365746e-01   9.9999997103885396e-01   9.9999992037602736e-01   9.9999998379523081e-01   9.9999994653071500e-01   9.9999999490918745e-01   9.9999997825061004e-01   9.9999999923997096e-01   9.9999999551892504e-01   9.9999999995068045e-01   9.9999999959777508e-01   9.9999999999854117e-01   9.9999999998505906e-01   9.9999999999997524e-01   9.9999999999973821e-01   9.9999999999999944e-01   9.9999999999999678e-01   1.0000000000000000e+00   1.0000000000000000e+00   1.0000000000000000e+00   1.0000000000000000e+00   1.0000000000000000e+00   1.0000000000000000e+00   9.9999999999999978e-01   9.9999999999999978e-01   9.9999999999986988e-01   9.9999999999999090e-01   9.9999998823433933e-01   9.9999999972664932e-01   9.9702484518990486e-01   9.9994689143835302e-01   1.1232762411248899e-01   5.9330791387483939e-01   4.0925781759071356e-06   1.2591968413684188e-04   4.1446501786168710e-10   9.7811653591387913e-09   1.2324400759193091e-13   2.3916794470816663e-12   1.3045120539345589e-15   9.9999800203951517e-01   9.9999725291167973e-01   9.9997927466419501e-01   9.9999565409737690e-01   9.9996826686632656e-01   9.9999268931724128e-01   9.9994614368428114e-01   9.9998815871114499e-01   9.9990834613611657e-01   9.9998276792314722e-01   9.9985649245566866e-01   9.9997869527434458e-01   9.9980467496165193e-01   9.9997942948978757e-01   9.9978333830218269e-01   9.9998652873643279e-01   9.9982451042058063e-01   9.9999537540563055e-01   9.9991489868120353e-01   9.9999938565712654e-01   9.9998129292349369e-01   9.9999997423744291e-01   9.9999856757103811e-01   9.9999999965381581e-01   9.9999996706616900e-01   9.9999999999788558e-01   9.9999999975407838e-01   9.9999999999998856e-01   9.9999999999908273e-01   9.9999999999999989e-01   9.9999999999999634e-01   1.0000000000000000e+00   1.0000000000000000e+00   1.0000000000000000e+00   1.0000000000000000e+00   9.9999999999999978e-01   9.9999999999999978e-01   9.9999999999997036e-01   9.9999999999999811e-01   9.9999999915122162e-01   9.9999999999256661e-01   9.9987313822562651e-01   9.9999964280490272e-01   4.6358861530785184e-01   9.7647684606702700e-01   9.2278186906750534e-05   2.4631594671126387e-02   1.0219879794289472e-08   2.1686367297028366e-06   3.2260398056630874e-12   5.2642224838509810e-10   2.0354088784794535e-15   2.6709190414919698e-13   2.1279274638648830e-16   8.1928960220192459e-01   7.6746292577515185e-01   3.7476149314886220e-01   7.2076438783393448e-01   3.4666158518891099e-01   6.9226674752067430e-01   3.2536453783927266e-01   6.7570672051311131e-01   3.0656076305556829e-01   6.6555137544548848e-01   2.8860177380995822e-01   6.6238260822982686e-01   2.7618339855682927e-01   6.7071798466769872e-01   2.7952080439398036e-01   7.0808670386166739e-01   3.0596658082696171e-01   8.7020127344770892e-01   3.6911275252313397e-01   9.9477481825702807e-01   6.7125184008571592e-01   9.9997183889748198e-01   9.8718959609714196e-01   9.9999996243741962e-01   9.9996823356495235e-01   9.9999999997422273e-01   9.9999997913936001e-01   9.9999999999996880e-01   9.9999999999118017e-01   9.9999999999999967e-01   9.9999999999999023e-01   9.9999999999999989e-01   9.9999999999999989e-01   1.0000000000000000e+00   1.0000000000000000e+00   9.9999999999999634e-01   9.9999999999999944e-01   9.9999999999002831e-01   9.9999999999989120e-01   9.9999975165686306e-01   9.9999999963716291e-01   9.9154978443283026e-01   9.9999516921763776e-01   1.9837950146756425e-01   9.3403394585679611e-01   5.3370795521432785e-05   4.8540968422427104e-02   1.8664728318462664e-08   1.6074569509074345e-05   1.0081759501308815e-11   7.2151344991204054e-09   7.4107386893729183e-15   4.2800392859495178e-12   3.1641356201816965e-15   2.1000373946742732e-04   9.5839748831177962e-05   1.4101948247469134e-06   4.4638208397451695e-05   6.6960856905569810e-07   2.4215652308183042e-05   3.7183047307820521e-07   1.5517137366388711e-05   2.5144386620046255e-07   1.2855888760358406e-05   2.1245123849045200e-07   1.7502802915791985e-05   2.7288036879199084e-07   5.3983119409156670e-05   7.0434555169788615e-07   5.4361341401650465e-04   4.9125675535000024e-06   2.3560781073136739e-02   1.2554544481552241e-04   4.9464852252900204e-01   1.4724102973479388e-02   9.9603048095484115e-01   5.9727644276507463e-01   9.9999943117836165e-01   9.9889835671829663e-01   9.9999999992911393e-01   9.9999992556018436e-01   9.9999999999996037e-01   9.9999999999310774e-01   9.9999999999999922e-01   9.9999999999999301e-01   9.9999999999999978e-01   9.9999999999999978e-01   9.9999999999999922e-01   9.9999999999999978e-01   9.9999999999989242e-01   9.9999999999999456e-01   9.9999999985641519e-01   9.9999999999895683e-01   9.9999944302433441e-01   9.9999999908663739e-01   9.9757647327843146e-01   9.9999805006441977e-01   5.6939656921977921e-01   9.9510450207758028e-01   1.0524270395899260e-02   5.0407629199048054e-01   8.1204879229523891e-06   1.0327721722314406e-02   5.1458152553844140e-09   8.7566413567904001e-06   2.6294429596636819e-12   5.2776952160401196e-09   2.2462494827143096e-12   5.6430785969988985e-13   3.8259210614436745e-13   6.9481457624457708e-15   3.3219723268492391e-13   6.7075974404436538e-15   3.9081700838513212e-13   8.8817841970012507e-15   6.9190024080493596e-13   1.6764367671839864e-14   2.4047708269137051e-12   5.4336165196862878e-14   2.2408149410087685e-11   4.0069799330429606e-13   7.1704663503110057e-10   8.7244840981289453e-12   9.5207525872368707e-08   7.0712680155793350e-10   6.1116913622964259e-05   2.7562980646026841e-07   1.3541889234696888e-01   6.5697096749426731e-04   9.9460294389351478e-01   6.2080853205443132e-01   9.9999979969480390e-01   9.9992459432723357e-01   9.9999999998634370e-01   9.9999999823655805e-01   9.9999999999998579e-01   9.9999999999964206e-01   9.9999999999999944e-01   9.9999999999999722e-01   9.9999999999999922e-01   9.9999999999999922e-01   9.9999999999999167e-01   9.9999999999999700e-01   9.9999999999938316e-01   9.9999999999994593e-01   9.9999999985991328e-01   9.9999999999651878e-01   9.9999994621754829e-01   9.9999999951671104e-01   9.9997430378500329e-01   9.9999988891443037e-01   9.8621152974138271e-01   9.9996543574382635e-01   5.0571586251358880e-01   9.8666636115811313e-01   2.2961135579692760e-02   5.6467985120311737e-01   2.5445762461393885e-05   3.1538361188396494e-02   1.1193995896885411e-08   3.3641205336202663e-05   1.1895722601407142e-08   0.0000000000000000e+00   0.0000000000000000e+00   0.0000000000000000e+00   0.0000000000000000e+00   0.0000000000000000e+00   0.0000000000000000e+00   0.0000000000000000e+00   9.2518585385429707e-18   0.0000000000000000e+00   5.4585965377403523e-16   9.2518585385429707e-18   5.8406982953821769e-14   1.0824674490095274e-15   2.4044100044307015e-11   4.1884088789837881e-13   4.2672526937940575e-08   8.0836679017259862e-10   3.6186906379349437e-04   7.8337193551529048e-06   6.6061492319964132e-01   1.6841871566428715e-01   9.9995471508241707e-01   9.9800658994089175e-01   9.9999999873209799e-01   9.9999996459497942e-01   9.9999999999953815e-01   9.9999999999334666e-01   9.9999999999999101e-01   9.9999999999994771e-01   9.9999999999999523e-01   9.9999999999998812e-01   9.9999999999998346e-01   9.9999999999997746e-01   9.9999999999982769e-01   9.9999999999987033e-01   9.9999999999641931e-01   9.9999999999867817e-01   9.9999999987923516e-01   9.9999999998092581e-01   9.9999999418017227e-01   9.9999999961869901e-01   9.9999961546100691e-01   9.9999998880248986e-01   9.9996235387140264e-01   9.9999949038767444e-01   9.9355692246778704e-01   9.9996072658805646e-01   6.1772235798575781e-01   9.9401756629093341e-01   4.7973280129557289e-02   6.3673997584400066e-01   4.0883777184539762e-05   5.0138589034541915e-02   3.6258758734956473e-05   0.0000000000000000e+00   0.0000000000000000e+00   0.0000000000000000e+00   0.0000000000000000e+00   0.0000000000000000e+00   0.0000000000000000e+00   0.0000000000000000e+00   0.0000000000000000e+00   0.0000000000000000e+00   2.4980018054066022e-16   9.2518585385429707e-18   4.2123711925986136e-13   2.9402406435489560e-14   2.9838828075057222e-09   2.6725441304442659e-10   9.5065854271741967e-05   9.9066550388789577e-06   5.8265188836270265e-01   2.4052557494310964e-01   9.9976608522291921e-01   9.9797931707172072e-01   9.9999999110918036e-01   9.9999993440693513e-01   9.9999999999302991e-01   9.9999999995355415e-01   9.9999999999953482e-01   9.9999999999786537e-01   9.9999999999939049e-01   9.9999999999785194e-01   9.9999999999783684e-01   9.9999999999254341e-01   9.9999999999132161e-01   9.9999999997048772e-01   9.9999999996882716e-01   9.9999999990936783e-01   9.9999999988981436e-01   9.9999999978046217e-01   9.9999999953061303e-01   9.9999999949942364e-01   9.9999999701167741e-01   9.9999999863985001e-01   9.9999996723833962e-01   9.9999999431869324e-01   9.9999929918126829e-01   9.9999995488819948e-01   9.9996527527142232e-01   9.9999920033002809e-01   9.9527811853695858e-01   9.9996301238648810e-01   6.3834243209070018e-01   9.9484945639283540e-01   2.7576575342857991e-02   5.9525894528344692e-01   1.8805422149315257e-02   0.0000000000000000e+00   0.0000000000000000e+00   0.0000000000000000e+00   0.0000000000000000e+00   0.0000000000000000e+00   0.0000000000000000e+00   0.0000000000000000e+00   6.4763009769800790e-17   1.8503717077085941e-17   6.0131529385406180e-13   1.1268763699945340e-13   2.5092757436710283e-08   5.3392150238066697e-09   2.5907021518185112e-03   5.9210253268353775e-04   7.0002677341698005e-01   4.7924786447192080e-01   9.9995415359979922e-01   9.9983554832197485e-01   9.9999999156540775e-01   9.9999997064092994e-01   9.9999999989032695e-01   9.9999999961855179e-01   9.9999999978556742e-01   9.9999999938142314e-01   9.9999999680131257e-01   9.9999998807866031e-01   9.9999996290155901e-01   9.9999975801251295e-01   9.9999987916581867e-01   9.9999856400630649e-01   9.9999988920780369e-01   9.9999801987541592e-01   9.9999994667054404e-01   9.9999908133699433e-01   9.9999997880132940e-01   9.9999974386629231e-01   9.9999998965381831e-01   9.9999993337004822e-01   9.9999999148609597e-01   9.9999997691252906e-01   9.9999998459103701e-01   9.9999998571542281e-01   9.9999992684467409e-01   9.9999997927133166e-01   9.9999895840610920e-01   9.9999991296101232e-01   9.9994818549197173e-01   9.9999877954258354e-01   9.8931739647717321e-01   9.9993442259737686e-01   4.9727246572315587e-01   9.8448121921299780e-01   3.6155173723239598e-01   0.0000000000000000e+00   0.0000000000000000e+00   0.0000000000000000e+00   0.0000000000000000e+00   0.0000000000000000e+00   8.6967470262303936e-16   2.4054832200211723e-16   5.3392910463282796e-11   1.6246938979354767e-11   8.8101085949643404e-06   2.8854559248059357e-06   2.5595183871903449e-01   1.5932288402338748e-01   9.8112658851046974e-01   9.5854281162088706e-01   9.9999807054946488e-01   9.9999575303965316e-01   9.9999999233675796e-01   9.9999998259384915e-01   9.9999998956602132e-01   9.9999998041859561e-01   9.9999882119043271e-01   9.9999770721653880e-01   9.9956650635689481e-01   9.9853178861414693e-01   9.6489767561928774e-01   8.3307730660960411e-01   8.4687629924413033e-01   4.6093206426285527e-01   8.9732923300003109e-01   4.1234498065428377e-01   9.8914942152974494e-01   6.1416251924466636e-01   9.9963844649731515e-01   9.4927860663515884e-01   9.9998639195688199e-01   9.9887117477995901e-01   9.9999921179496820e-01   9.9997088871179862e-01   9.9999990527168625e-01   9.9999871151239950e-01   9.9999996992190865e-01   9.9999987232621201e-01   9.9999996844996419e-01   9.9999996418981096e-01   9.9999987039599980e-01   9.9999996378299350e-01   9.9999761450735780e-01   9.9999984225194716e-01   9.9977605014729221e-01   9.9999668396522323e-01   9.0661977282898931e-01   9.9962395114425229e-01   8.3195361087462216e-01   0.0000000000000000e+00   0.0000000000000000e+00   0.0000000000000000e+00   3.8284190632490816e-13   1.4499512701604544e-13   1.0134080518272209e-07   4.0696814510946894e-08   1.7321883440945179e-02   7.9492547692609130e-03   7.1849852473315379e-01   6.4758542794769491e-01   9.9991279171637593e-01   9.9985046992458360e-01   9.9999984605277381e-01   9.9999974915896239e-01   9.9999994150635096e-01   9.9999991856433967e-01   9.9999320401295366e-01   9.9999209053508231e-01   9.7137605363151824e-01   9.6582659934866177e-01   5.1252148490740601e-01   3.6932054886186383e-01   2.8326102185490348e-02   4.8116453596314746e-03   6.3606779759066868e-04   3.1768971512080573e-05   4.0374294568912273e-04   5.0018581502775366e-06   5.0195025751599556e-03   1.6802529098155123e-05   1.7863296540105852e-01   6.5935220888053514e-04   6.4308277094217403e-01   7.4233110005605826e-02   9.8374334866921065e-01   5.0214185872643047e-01   9.9986918000750691e-01   9.7617135174442249e-01   9.9999742949209514e-01   9.9984158219262076e-01   9.9999983869043396e-01   9.9999729523555758e-01   9.9999995976472866e-01   9.9999984061614000e-01   9.9999995141000297e-01   9.9999995887262194e-01   9.9999966886109215e-01   9.9999994295533490e-01   9.9998577099273611e-01   9.9999952102549206e-01   9.9571053033104195e-01   9.9997369945066750e-01   9.8959906272073084e-01   6.3282712403633907e-15   2.4701031220430995e-09   1.1453120489039270e-09   7.7046029911440972e-04   3.8563731642884030e-04   5.4858108852313081e-01   4.3930812718838019e-01   9.9851501412113741e-01   9.9777377093710562e-01   9.9999876023144385e-01   9.9999833307110808e-01   9.9999988191764766e-01   9.9999986496662063e-01   9.9999621066653988e-01   9.9999653242739983e-01   9.8414865327985823e-01   9.8811919721548991e-01   3.3336247042270023e-01   3.7618067284770307e-01   1.5517525702755478e-04   1.1003172662490032e-04   2.7273462617956781e-08   7.4964814633648996e-09   1.4112505608565579e-10   1.4707281688804600e-11   2.5505930700830956e-11   8.0950986654689418e-13   1.2915736073241629e-10   8.8087870331321483e-13   1.1832647630235133e-08   1.5239060013882974e-11   6.7781096471005355e-06   3.2252617336118545e-09   6.2496422796354256e-03   3.3153882970926581e-06   4.2536557262044233e-01   4.6239207493865182e-03   9.6915360127255501e-01   4.1404087466233902e-01   9.9988458632846644e-01   9.7248583040740932e-01   9.9999839047548744e-01   9.9990657871079613e-01   9.9999989339881179e-01   9.9999871805795193e-01   9.9999995944323727e-01   9.9999990793853977e-01   9.9999989397434663e-01   9.9999995695564681e-01   9.9999785577207301e-01   9.9999984933958497e-01   9.9963702424463008e-01   9.9999586025616760e-01   9.9905138267484972e-01   5.1841548150290587e-05   3.6242628436235508e-01   2.9987626102037818e-01   9.8574370342975781e-01   9.8043152190863314e-01   9.9999419242354226e-01   9.9999285846872310e-01   9.9999983626966760e-01   9.9999983025990535e-01   9.9999889316297408e-01   9.9999908962170692e-01   9.9884626537406329e-01   9.9923751989088605e-01   4.4032461319895333e-01   5.7783985833279861e-01   2.8207819462611189e-04   5.5627330031503730e-04   1.4532856584814622e-09   1.4231140895345123e-09   9.1288088199803522e-14   3.7803093988486574e-14   2.2204460492503128e-16   4.6259292692714864e-17   1.8503717077085938e-17   0.0000000000000000e+00   1.8503717077085938e-17   0.0000000000000000e+00   4.9034850254277750e-16   0.0000000000000000e+00   1.1929346399597307e-13   1.2027416100105862e-16   2.1858672279625086e-10   5.4863521133559827e-14   1.1249967035720230e-06   1.7015919229201868e-10   4.4078289115407890e-03   1.3115746387570848e-06   4.7010010148258030e-01   6.6423773783165956e-03   9.9360439666375944e-01   5.8121083936741769e-01   9.9997806753719953e-01   9.9606467983225067e-01   9.9999956685080171e-01   9.9998616800068130e-01   9.9999994204218712e-01   9.9999969063842498e-01   9.9999993801731324e-01   9.9999994648379154e-01   9.9999939790584191e-01   9.9999991789105169e-01   9.9994448514395928e-01   9.9999885048799730e-01   9.9985252905967015e-01   9.2048348927555856e-01   9.9997942488450009e-01   9.9997556488543771e-01   9.9999978963053227e-01   9.9999978649800814e-01   9.9999969210317430e-01   9.9999975274126662e-01   9.9992751718887318e-01   9.9995253357246194e-01   7.0264567493774521e-01   7.6590674822378102e-01   9.3401827348733937e-03   2.5022547223727022e-02   1.2412605943090684e-08   2.9045674707998504e-08   2.3629246707438746e-14   2.6589841439772502e-14   0.0000000000000000e+00   0.0000000000000000e+00   0.0000000000000000e+00   0.0000000000000000e+00   0.0000000000000000e+00   0.0000000000000000e+00   0.0000000000000000e+00   0.0000000000000000e+00   0.0000000000000000e+00   0.0000000000000000e+00   0.0000000000000000e+00   0.0000000000000000e+00   0.0000000000000000e+00   0.0000000000000000e+00   2.0363340643333072e-14   0.0000000000000000e+00   2.9975238032461000e-10   2.3573735556207488e-14   6.6116485765247788e-06   5.4177129449328731e-10   4.3106945557982834e-02   1.5665358274417434e-05   8.0629698773446501e-01   9.2305587628955771e-02   9.9967732209196647e-01   8.9065865390652088e-01   9.9999780925988879e-01   9.9983947614492452e-01   9.9999988309451648e-01   9.9999869820179232e-01   9.9999994487272525e-01   9.9999990703515484e-01   9.9999973820147137e-01   9.9999993436254475e-01   9.9998691454002320e-01   9.9999952649718371e-01   9.9996596502205870e-01   9.9999971451713277e-01   9.9999988879973323e-01   9.9999990703392128e-01   9.9999373403962488e-01   9.9999568105442216e-01   9.7529573138327907e-01   9.8605406271365048e-01   1.9849203792035114e-01   2.9744636250080947e-01   1.2697667873447685e-06   4.2991854421377722e-06   4.1317875047279062e-13   9.8472156354982120e-13   0.0000000000000000e+00   0.0000000000000000e+00   0.0000000000000000e+00   0.0000000000000000e+00   0.0000000000000000e+00   0.0000000000000000e+00   0.0000000000000000e+00   0.0000000000000000e+00   0.0000000000000000e+00   0.0000000000000000e+00   0.0000000000000000e+00   0.0000000000000000e+00   0.0000000000000000e+00   0.0000000000000000e+00   0.0000000000000000e+00   0.0000000000000000e+00   0.0000000000000000e+00   0.0000000000000000e+00   9.2518585385429691e-18   0.0000000000000000e+00   2.0325408023325053e-13   9.2518585385429707e-18   1.3744873628152024e-08   5.3587689841094743e-13   4.8831916887050642e-04   5.1408876785193521e-08   3.6787314191455328e-01   1.8806764545315578e-03   9.9542599459968073e-01   6.0807430531233209e-01   9.9998742623949100e-01   9.9814103299017154e-01   9.9999970270044702e-01   9.9999362835113792e-01   9.9999993420723332e-01   9.9999979564216768e-01   9.9999984414151932e-01   9.9999993122926900e-01   9.9999578256211796e-01   9.9999974240731659e-01   9.9998965347206792e-01   9.9999904791938221e-01   9.9897671594063675e-01   9.9936112138791711e-01   4.4988310900662132e-01   5.9521611684540421e-01   1.9966674254586386e-04   6.2929866615068109e-04   6.6147476385225445e-11   2.1782436040081640e-10   9.2518585385429707e-18   1.8503717077085941e-17   0.0000000000000000e+00   0.0000000000000000e+00   0.0000000000000000e+00   0.0000000000000000e+00   0.0000000000000000e+00   0.0000000000000000e+00   0.0000000000000000e+00   0.0000000000000000e+00   0.0000000000000000e+00   0.0000000000000000e+00   0.0000000000000000e+00   0.0000000000000000e+00   0.0000000000000000e+00   0.0000000000000000e+00   0.0000000000000000e+00   0.0000000000000000e+00   0.0000000000000000e+00   0.0000000000000000e+00   0.0000000000000000e+00   0.0000000000000000e+00   0.0000000000000000e+00   0.0000000000000000e+00   4.1633363423443370e-16   0.0000000000000000e+00   6.5256568667256433e-11   1.4988010832439607e-15   7.4229345017051687e-06   3.4577394651217708e-10   9.4771724974099011e-02   3.9321058913327482e-05   9.41625573