<?xml version="1.0"?>
<VTKFile type="UnstructuredGrid"  version="0.1"  >
<UnstructuredGrid>
<Piece  NumberOfPoints="319" NumberOfCells="885">
<Points>
<DataArray  type="Float64"  NumberOfComponents="3"  format="ascii">1.850434782608696 0 0  1.883478260869565 0 0  1.883478260869565 0.03333333333333333 0  1.916521739130435 0 0  1.916521739130435 0.03333333333333333 0  1.949565217391304 0 0  1.949565217391304 0.03333333333333333 0  1.982608695652174 0 0  1.982608695652174 0.03333333333333333 0  2.015652173913043 0 0  2.015652173913043 0.03333333333333333 0  2.048695652173913 0 0  2.048695652173913 0.03333333333333333 0  2.081739130434782 0 0  2.081739130434782 0.03333333333333333 0  2.114782608695652 0 0  2.114782608695652 0.03333333333333333 0  2.147826086956522 0 0  2.147826086956522 0.03333333333333333 0  2.180869565217391 0 0  2.180869565217391 0.03333333333333333 0  2.213913043478261 0 0  2.213913043478261 0.03333333333333333 0  2.24695652173913 0 0  2.24695652173913 0.03333333333333333 0  2.28 0 0  2.28 0.03333333333333333 0  2.31304347826087 0 0  2.31304347826087 0.03333333333333333 0  2.346086956521739 0 0  2.346086956521739 0.03333333333333333 0  2.379130434782609 0 0  2.379130434782609 0.03333333333333333 0  2.412173913043478 0 0  2.412173913043478 0.03333333333333333 0  2.445217391304348 0 0  2.445217391304348 0.03333333333333333 0  2.478260869565217 0 0  2.478260869565217 0.03333333333333333 0  1.916521739130435 0.06666666666666667 0  1.883478260869565 0.06666666666666667 0  1.949565217391304 0.06666666666666667 0  1.982608695652174 0.06666666666666667 0  2.015652173913043 0.06666666666666667 0  2.048695652173913 0.06666666666666667 0  2.081739130434782 0.06666666666666667 0  2.114782608695652 0.06666666666666667 0  2.147826086956522 0.06666666666666667 0  2.180869565217391 0.06666666666666667 0  2.213913043478261 0.06666666666666667 0  2.24695652173913 0.06666666666666667 0  2.28 0.06666666666666667 0  2.31304347826087 0.06666666666666667 0  2.346086956521739 0.06666666666666667 0  2.379130434782609 0.06666666666666667 0  2.412173913043478 0.06666666666666667 0  2.445217391304348 0.06666666666666667 0  2.478260869565217 0.06666666666666667 0  1.916521739130435 0.1 0  1.883478260869565 0.1 0  1.949565217391304 0.1 0  1.982608695652174 0.1 0  2.015652173913043 0.1 0  2.048695652173913 0.1 0  2.081739130434782 0.1 0  2.114782608695652 0.1 0  2.147826086956522 0.1 0  2.180869565217391 0.1 0  2.213913043478261 0.1 0  2.24695652173913 0.1 0  2.28 0.1 0  2.31304347826087 0.1 0  2.346086956521739 0.1 0  2.379130434782609 0.1 0  2.412173913043478 0.1 0  2.445217391304348 0.1 0  2.478260869565217 0.1 0  1.916521739130435 0.1333333333333333 0  1.883478260869565 0.1333333333333333 0  1.949565217391304 0.1333333333333333 0  1.982608695652174 0.1333333333333333 0  2.015652173913043 0.1333333333333333 0  2.048695652173913 0.1333333333333333 0  2.081739130434782 0.1333333333333333 0  2.114782608695652 0.1333333333333333 0  2.147826086956522 0.1333333333333333 0  2.180869565217391 0.1333333333333333 0  2.213913043478261 0.1333333333333333 0  2.24695652173913 0.1333333333333333 0  2.28 0.1333333333333333 0  2.31304347826087 0.1333333333333333 0  2.346086956521739 0.1333333333333333 0  2.379130434782609 0.1333333333333333 0  2.412173913043478 0.1333333333333333 0  2.445217391304348 0.1333333333333333 0  2.478260869565217 0.1333333333333333 0  2.511304347826087 0.1333333333333333 0  1.916521739130435 0.1666666666666667 0  1.883478260869565 0.1666666666666667 0  1.949565217391304 0.1666666666666667 0  1.982608695652174 0.1666666666666667 0  2.015652173913043 0.1666666666666667 0  2.048695652173913 0.1666666666666667 0  2.081739130434782 0.1666666666666667 0  2.114782608695652 0.1666666666666667 0  2.147826086956522 0.1666666666666667 0  2.180869565217391 0.1666666666666667 0  2.213913043478261 0.1666666666666667 0  2.24695652173913 0.1666666666666667 0  2.28 0.1666666666666667 0  2.31304347826087 0.1666666666666667 0  2.346086956521739 0.1666666666666667 0  2.379130434782609 0.1666666666666667 0  2.412173913043478 0.1666666666666667 0  2.445217391304348 0.1666666666666667 0  2.478260869565217 0.1666666666666667 0  2.511304347826087 0.1666666666666667 0  1.916521739130435 0.2 0  1.883478260869565 0.2 0  1.949565217391304 0.2 0  1.982608695652174 0.2 0  2.015652173913043 0.2 0  2.048695652173913 0.2 0  2.081739130434782 0.2 0  2.114782608695652 0.2 0  2.147826086956522 0.2 0  2.180869565217391 0.2 0  2.213913043478261 0.2 0  2.24695652173913 0.2 0  2.28 0.2 0  2.31304347826087 0.2 0  2.346086956521739 0.2 0  2.379130434782609 0.2 0  2.412173913043478 0.2 0  2.445217391304348 0.2 0  2.478260869565217 0.2 0  2.511304347826087 0.2 0  1.916521739130435 0.2333333333333333 0  1.883478260869565 0.2333333333333333 0  1.949565217391304 0.2333333333333333 0  1.982608695652174 0.2333333333333333 0  2.015652173913043 0.2333333333333333 0  2.048695652173913 0.2333333333333333 0  2.081739130434782 0.2333333333333333 0  2.114782608695652 0.2333333333333333 0  2.147826086956522 0.2333333333333333 0  2.180869565217391 0.2333333333333333 0  2.213913043478261 0.2333333333333333 0  2.24695652173913 0.2333333333333333 0  2.28 0.2333333333333333 0  2.31304347826087 0.2333333333333333 0  2.346086956521739 0.2333333333333333 0  2.379130434782609 0.2333333333333333 0  2.412173913043478 0.2333333333333333 0  2.445217391304348 0.2333333333333333 0  2.478260869565217 0.2333333333333333 0  2.511304347826087 0.2333333333333333 0  1.916521739130435 0.2666666666666667 0  1.883478260869565 0.2666666666666667 0  1.949565217391304 0.2666666666666667 0  1.982608695652174 0.2666666666666667 0  2.015652173913043 0.2666666666666667 0  2.048695652173913 0.2666666666666667 0  2.081739130434782 0.2666666666666667 0  2.114782608695652 0.2666666666666667 0  2.147826086956522 0.2666666666666667 0  2.180869565217391 0.2666666666666667 0  2.213913043478261 0.2666666666666667 0  2.24695652173913 0.2666666666666667 0  2.28 0.2666666666666667 0  2.31304347826087 0.2666666666666667 0  2.346086956521739 0.2666666666666667 0  2.379130434782609 0.2666666666666667 0  2.412173913043478 0.2666666666666667 0  2.445217391304348 0.2666666666666667 0  2.478260869565217 0.2666666666666667 0  2.511304347826087 0.2666666666666667 0  1.916521739130435 0.3 0  1.883478260869565 0.3 0  1.949565217391304 0.3 0  1.982608695652174 0.3 0  2.015652173913043 0.3 0  2.048695652173913 0.3 0  2.081739130434782 0.3 0  2.114782608695652 0.3 0  2.147826086956522 0.3 0  2.180869565217391 0.3 0  2.213913043478261 0.3 0  2.24695652173913 0.3 0  2.28 0.3 0  2.31304347826087 0.3 0  2.346086956521739 0.3 0  2.379130434782609 0.3 0  2.412173913043478 0.3 0  2.445217391304348 0.3 0  2.478260869565217 0.3 0  2.511304347826087 0.3 0  2.544347826086956 0.3 0  1.916521739130435 0.3333333333333333 0  1.949565217391304 0.3333333333333333 0  1.982608695652174 0.3333333333333333 0  2.015652173913043 0.3333333333333333 0  2.048695652173913 0.3333333333333333 0  2.081739130434782 0.3333333333333333 0  2.114782608695652 0.3333333333333333 0  2.147826086956522 0.3333333333333333 0  2.180869565217391 0.3333333333333333 0  2.213913043478261 0.3333333333333333 0  2.24695652173913 0.3333333333333333 0  2.28 0.3333333333333333 0  2.31304347826087 0.3333333333333333 0  2.346086956521739 0.3333333333333333 0  2.379130434782609 0.3333333333333333 0  2.412173913043478 0.3333333333333333 0  2.445217391304348 0.3333333333333333 0  2.478260869565217 0.3333333333333333 0  2.511304347826087 0.3333333333333333 0  2.544347826086956 0.3333333333333333 0  1.949565217391304 0.3666666666666666 0  1.916521739130435 0.3666666666666666 0  1.982608695652174 0.3666666666666666 0  2.015652173913043 0.3666666666666666 0  2.048695652173913 0.3666666666666666 0  2.081739130434782 0.3666666666666666 0  2.114782608695652 0.3666666666666666 0  2.147826086956522 0.3666666666666666 0  2.180869565217391 0.3666666666666666 0  2.213913043478261 0.3666666666666666 0  2.24695652173913 0.3666666666666666 0  2.28 0.3666666666666666 0  2.31304347826087 0.3666666666666666 0  2.346086956521739 0.3666666666666666 0  2.379130434782609 0.3666666666666666 0  2.412173913043478 0.3666666666666666 0  2.445217391304348 0.3666666666666666 0  2.478260869565217 0.3666666666666666 0  2.511304347826087 0.3666666666666666 0  2.544347826086956 0.3666666666666666 0  1.949565217391304 0.4 0  1.916521739130435 0.4 0  1.982608695652174 0.4 0  2.015652173913043 0.4 0  2.048695652173913 0.4 0  2.081739130434782 0.4 0  2.114782608695652 0.4 0  2.147826086956522 0.4 0  2.180869565217391 0.4 0  2.213913043478261 0.4 0  2.24695652173913 0.4 0  2.28 0.4 0  2.31304347826087 0.4 0  2.346086956521739 0.4 0  2.379130434782609 0.4 0  2.412173913043478 0.4 0  2.445217391304348 0.4 0  2.478260869565217 0.4 0  2.511304347826087 0.4 0  2.544347826086956 0.4 0  1.949565217391304 0.4333333333333333 0  1.982608695652174 0.4333333333333333 0  2.015652173913043 0.4333333333333333 0  2.048695652173913 0.4333333333333333 0  2.081739130434782 0.4333333333333333 0  2.114782608695652 0.4333333333333333 0  2.147826086956522 0.4333333333333333 0  2.180869565217391 0.4333333333333333 0  2.213913043478261 0.4333333333333333 0  2.24695652173913 0.4333333333333333 0  2.28 0.4333333333333333 0  2.31304347826087 0.4333333333333333 0  2.346086956521739 0.4333333333333333 0  2.379130434782609 0.4333333333333333 0  2.412173913043478 0.4333333333333333 0  2.445217391304348 0.4333333333333333 0  2.478260869565217 0.4333333333333333 0  2.511304347826087 0.4333333333333333 0  2.544347826086956 0.4333333333333333 0  2.577391304347826 0.4333333333333333 0  1.982608695652174 0.4666666666666667 0  1.949565217391304 0.4666666666666667 0  2.015652173913043 0.4666666666666667 0  2.048695652173913 0.4666666666666667 0  2.081739130434782 0.4666666666666667 0  2.114782608695652 0.4666666666666667 0  2.147826086956522 0.4666666666666667 0  2.180869565217391 0.4666666666666667 0  2.213913043478261 0.4666666666666667 0  2.24695652173913 0.4666666666666667 0  2.28 0.4666666666666667 0  2.31304347826087 0.4666666666666667 0  2.346086956521739 0.4666666666666667 0  2.379130434782609 0.4666666666666667 0  2.412173913043478 0.4666666666666667 0  2.445217391304348 0.4666666666666667 0  2.478260869565217 0.4666666666666667 0  2.511304347826087 0.4666666666666667 0  2.544347826086956 0.4666666666666667 0  2.577391304347826 0.4666666666666667 0  1.982608695652174 0.5 0  1.949565217391304 0.5 0  2.015652173913043 0.5 0  2.048695652173913 0.5 0  2.081739130434782 0.5 0  2.114782608695652 0.5 0  2.147826086956522 0.5 0  2.180869565217391 0.5 0  2.213913043478261 0.5 0  2.24695652173913 0.5 0  2.28 0.5 0  2.31304347826087 0.5 0  2.346086956521739 0.5 0  2.379130434782609 0.5 0  2.412173913043478 0.5 0  2.445217391304348 0.5 0  2.478260869565217 0.5 0  2.511304347826087 0.5 0  2.544347826086956 0.5 0  2.577391304347826 0.5 0  2.610434782608696 0.5 0  </DataArray>
</Points>
<Cells>
<DataArray  type="UInt32"  Name="connectivity"  format="ascii">0 1  0 2  1 2  1 3  1 4  2 4  2 39  2 40  3 4  3 5  3 6  4 6  4 39  4 41  5 6  5 7  5 8  6 8  6 41  6 42  7 8  7 9  7 10  8 10  8 42  8 43  9 10  9 11  9 12  10 12  10 43  10 44  11 12  11 13  11 14  12 14  12 44  12 45  13 14  13 15  13 16  14 16  14 45  14 46  15 16  15 17  15 18  16 18  16 46  16 47  17 18  17 19  17 20  18 20  18 47  18 48  19 20  19 21  19 22  20 22  20 48  20 49  21 22  21 23  21 24  22 24  22 49  22 50  23 24  23 25  23 26  24 26  24 50  24 51  25 26  25 27  25 28  26 28  26 51  26 52  27 28  27 29  27 30  28 30  28 52  28 53  29 30  29 31  29 32  30 32  30 53  30 54  31 32  31 33  31 34  32 34  32 54  32 55  33 34  33 35  33 36  34 36  34 55  34 56  35 36  35 37  35 38  36 38  36 56  36 57  37 38  38 57  40 39  39 41  39 58  39 60  40 58  40 59  41 42  41 60  41 61  42 43  42 61  42 62  43 44  43 62  43 63  44 45  44 63  44 64  45 46  45 64  45 65  46 47  46 65  46 66  47 48  47 66  47 67  48 49  48 67  48 68  49 50  49 68  49 69  50 51  50 69  50 70  51 52  51 70  51 71  52 53  52 71  52 72  53 54  53 72  53 73  54 55  54 73  54 74  55 56  55 74  55 75  56 57  56 75  56 76  57 76  59 58  58 60  58 77  58 79  59 77  59 78  60 61  60 79  60 80  61 62  61 80  61 81  62 63  62 81  62 82  63 64  63 82  63 83  64 65  64 83  64 84  65 66  65 84  65 85  66 67  66 85  66 86  67 68  67 86  67 87  68 69  68 87  68 88  69 70  69 88  69 89  70 71  70 89  70 90  71 72  71 90  71 91  72 73  72 91  72 92  73 74  73 92  73 93  74 75  74 93  74 94  75 76  75 94  75 95  76 95  76 96  78 77  77 79  77 97  77 99  78 97  78 98  79 80  79 99  79 100  80 81  80 100  80 101  81 82  81 101  81 102  82 83  82 102  82 103  83 84  83 103  83 104  84 85  84 104  84 105  85 86  85 105  85 106  86 87  86 106  86 107  87 88  87 107  87 108  88 89  88 108  88 109  89 90  89 109  89 110  90 91  90 110  90 111  91 92  91 111  91 112  92 93  92 112  92 113  93 94  93 113  93 114  94 95  94 114  94 115  95 96  95 115  95 116  96 116  98 97  97 99  97 117  97 119  98 117  98 118  99 100  99 119  99 120  100 101  100 120  100 121  101 102  101 121  101 122  102 103  102 122  102 123  103 104  103 123  103 124  104 105  104 124  104 125  105 106  105 125  105 126  106 107  106 126  106 127  107 108  107 127  107 128  108 109  108 128  108 129  109 110  109 129  109 130  110 111  110 130  110 131  111 112  111 131  111 132  112 113  112 132  112 133  113 114  113 133  113 134  114 115  114 134  114 135  115 116  115 135  115 136  116 136  118 117  117 119  117 137  117 139  118 137  118 138  119 120  119 139  119 140  120 121  120 140  120 141  121 122  121 141  121 142  122 123  122 142  122 143  123 124  123 143  123 144  124 125  124 144  124 145  125 126  125 145  125 146  126 127  126 146  126 147  127 128  127 147  127 148  128 129  128 148  128 149  129 130  129 149  129 150  130 131  130 150  130 151  131 132  131 151  131 152  132 133  132 152  132 153  133 134  133 153  133 154  134 135  134 154  134 155  135 136  135 155  135 156  136 156  138 137  137 139  137 157  137 159  138 157  138 158  139 140  139 159  139 160  140 141  140 160  140 161  141 142  141 161  141 162  142 143  142 162  142 163  143 144  143 163  143 164  144 145  144 164  144 165  145 146  145 165  145 166  146 147  146 166  146 167  147 148  147 167  147 168  148 149  148 168  148 169  149 150  149 169  149 170  150 151  150 170  150 171  151 152  151 171  151 172  152 153  152 172  152 173  153 154  153 173  153 174  154 155  154 174  154 175  155 156  155 175  155 176  156 176  158 157  157 159  157 177  157 179  158 177  158 178  159 160  159 179  159 180  160 161  160 180  160 181  161 162  161 181  161 182  162 163  162 182  162 183  163 164  163 183  163 184  164 165  164 184  164 185  165 166  165 185  165 186  166 167  166 186  166 187  167 168  167 187  167 188  168 169  168 188  168 189  169 170  169 189  169 190  170 171  170 190  170 191  171 172  171 191  171 192  172 173  172 192  172 193  173 174  173 193  173 194  174 175  174 194  174 195  175 176  175 195  175 196  176 196  176 197  178 177  177 179  177 198  177 199  178 198  179 180  179 199  179 200  180 181  180 200  180 201  181 182  181 201  181 202  182 183  182 202  182 203  183 184  183 203  183 204  184 185  184 204  184 205  185 186  185 205  185 206  186 187  186 206  186 207  187 188  187 207  187 208  188 189  188 208  188 209  189 190  189 209  189 210  190 191  190 210  190 211  191 192  191 211  191 212  192 193  192 212  192 213  193 194  193 213  193 214  194 195  194 214  194 215  195 196  195 215  195 216  196 197  196 216  196 217  197 217  198 199  198 218  198 219  199 200  199 218  199 220  200 201  200 220  200 221  201 202  201 221  201 222  202 203  202 222  202 223  203 204  203 223  203 224  204 205  204 224  204 225  205 206  205 225  205 226  206 207  206 226  206 227  207 208  207 227  207 228  208 209  208 228  208 229  209 210  209 229  209 230  210 211  210 230  210 231  211 212  211 231  211 232  212 213  212 232  212 233  213 214  213 233  213 234  214 215  214 234  214 235  215 216  215 235  215 236  216 217  216 236  216 237  217 237  219 218  218 220  218 238  218 240  219 238  219 239  220 221  220 240  220 241  221 222  221 241  221 242  222 223  222 242  222 243  223 224  223 243  223 244  224 225  224 244  224 245  225 226  225 245  225 246  226 227  226 246  226 247  227 228  227 247  227 248  228 229  228 248  228 249  229 230  229 249  229 250  230 231  230 250  230 251  231 232  231 251  231 252  232 233  232 252  232 253  233 234  233 253  233 254  234 235  234 254  234 255  235 236  235 255  235 256  236 237  236 256  236 257  237 257  239 238  238 240  238 258  238 259  239 258  240 241  240 259  240 260  241 242  241 260  241 261  242 243  242 261  242 262  243 244  243 262  243 263  244 245  244 263  244 264  245 246  245 264  245 265  246 247  246 265  246 266  247 248  247 266  247 267  248 249  248 267  248 268  249 250  249 268  249 269  250 251  250 269  250 270  251 252  251 270  251 271  252 253  252 271  252 272  253 254  253 272  253 273  254 255  254 273  254 274  255 256  255 274  255 275  256 257  256 275  256 276  257 276  257 277  258 259  258 278  258 279  259 260  259 278  259 280  260 261  260 280  260 281  261 262  261 281  261 282  262 263  262 282  262 283  263 264  263 283  263 284  264 265  264 284  264 285  265 266  265 285  265 286  266 267  266 286  266 287  267 268  267 287  267 288  268 269  268 288  268 289  269 270  269 289  269 290  270 271  270 290  270 291  271 272  271 291  271 292  272 273  272 292  272 293  273 274  273 293  273 294  274 275  274 294  274 295  275 276  275 295  275 296  276 277  276 296  276 297  277 297  279 278  278 280  278 298  278 300  279 298  279 299  280 281  280 300  280 301  281 282  281 301  281 302  282 283  282 302  282 303  283 284  283 303  283 304  284 285  284 304  284 305  285 286  285 305  285 306  286 287  286 306  286 307  287 288  287 307  287 308  288 289  288 308  288 309  289 290  289 309  289 310  290 291  290 310  290 311  291 292  291 311  291 312  292 293  292 312  292 313  293 294  293 313  293 314  294 295  294 314  294 315  295 296  295 315  295 316  296 297  296 316  296 317  297 317  297 318  299 298  298 300  300 301  301 302  302 303  303 304  304 305  305 306  306 307  307 308  308 309  309 310  310 311  311 312  312 313  313 314  314 315  315 316  316 317  317 318  </DataArray>
<DataArray  type="UInt32"  Name="offsets"  format="ascii">2 4 6 8 10 12 14 16 18 20 22 24 26 28 30 32 34 36 38 40 42 44 46 48 50 52 54 56 58 60 62 64 66 68 70 72 74 76 78 80 82 84 86 88 90 92 94 96 98 100 102 104 106 108 110 112 114 116 118 120 122 124 126 128 130 132 134 136 138 140 142 144 146 148 150 152 154 156 158 160 162 164 166 168 170 172 174 176 178 180 182 184 186 188 190 192 194 196 198 200 202 204 206 208 210 212 214 216 218 220 222 224 226 228 230 232 234 236 238 240 242 244 246 248 250 252 254 256 258 260 262 264 266 268 270 272 274 276 278 280 282 284 286 288 290 292 294 296 298 300 302 304 306 308 310 312 314 316 318 320 322 324 326 328 330 332 334 336 338 340 342 344 346 348 350 352 354 356 358 360 362 364 366 368 370 372 374 376 378 380 382 384 386 388 390 392 394 396 398 400 402 404 406 408 410 412 414 416 418 420 422 424 426 428 430 432 434 436 438 440 442 444 446 448 450 452 454 456 458 460 462 464 466 468 470 472 474 476 478 480 482 484 486 488 490 492 494 496 498 500 502 504 506 508 510 512 514 516 518 520 522 524 526 528 530 532 534 536 538 540 542 544 546 548 550 552 554 556 558 560 562 564 566 568 570 572 574 576 578 580 582 584 586 588 590 592 594 596 598 600 602 604 606 608 610 612 614 616 618 620 622 624 626 628 630 632 634 636 638 640 642 644 646 648 650 652 654 656 658 660 662 664 666 668 670 672 674 676 678 680 682 684 686 688 690 692 694 696 698 700 702 704 706 708 710 712 714 716 718 720 722 724 726 728 730 732 734 736 738 740 742 744 746 748 750 752 754 756 758 760 762 764 766 768 770 772 774 776 778 780 782 784 786 788 790 792 794 796 798 800 802 804 806 808 810 812 814 816 818 820 822 824 826 828 830 832 834 836 838 840 842 844 846 848 850 852 854 856 858 860 862 864 866 868 870 872 874 876 878 880 882 884 886 888 890 892 894 896 898 900 902 904 906 908 910 912 914 916 918 920 922 924 926 928 930 932 934 936 938 940 942 944 946 948 950 952 954 956 958 960 962 964 966 968 970 972 974 976 978 980 982 984 986 988 990 992 994 996 998 1000 1002 1004 1006 1008 1010 1012 1014 1016 1018 1020 1022 1024 1026 1028 1030 1032 1034 1036 1038 1040 1042 1044 1046 1048 1050 1052 1054 1056 1058 1060 1062 1064 1066 1068 1070 1072 1074 1076 1078 1080 1082 1084 1086 1088 1090 1092 1094 1096 1098 1100 1102 1104 1106 1108 1110 1112 1114 1116 1118 1120 1122 1124 1126 1128 1130 1132 1134 1136 1138 1140 1142 1144 1146 1148 1150 1152 1154 1156 1158 1160 1162 1164 1166 1168 1170 1172 1174 1176 1178 1180 1182 1184 1186 1188 1190 1192 1194 1196 1198 1200 1202 1204 1206 1208 1210 1212 1214 1216 1218 1220 1222 1224 1226 1228 1230 1232 1234 1236 1238 1240 1242 1244 1246 1248 1250 1252 1254 1256 1258 1260 1262 1264 1266 1268 1270 1272 1274 1276 1278 1280 1282 1284 1286 1288 1290 1292 1294 1296 1298 1300 1302 1304 1306 1308 1310 1312 1314 1316 1318 1320 1322 1324 1326 1328 1330 1332 1334 1336 1338 1340 1342 1344 1346 1348 1350 1352 1354 1356 1358 1360 1362 1364 1366 1368 1370 1372 1374 1376 1378 1380 1382 1384 1386 1388 1390 1392 1394 1396 1398 1400 1402 1404 1406 1408 1410 1412 1414 1416 1418 1420 1422 1424 1426 1428 1430 1432 1434 1436 1438 1440 1442 1444 1446 1448 1450 1452 1454 1456 1458 1460 1462 1464 1466 1468 1470 1472 1474 1476 1478 1480 1482 1484 1486 1488 1490 1492 1494 1496 1498 1500 1502 1504 1506 1508 1510 1512 1514 1516 1518 1520 1522 1524 1526 1528 1530 1532 1534 1536 1538 1540 1542 1544 1546 1548 1550 1552 1554 1556 1558 1560 1562 1564 1566 1568 1570 1572 1574 1576 1578 1580 1582 1584 1586 1588 1590 1592 1594 1596 1598 1600 1602 1604 1606 1608 1610 1612 1614 1616 1618 1620 1622 1624 1626 1628 1630 1632 1634 1636 1638 1640 1642 1644 1646 1648 1650 1652 1654 1656 1658 1660 1662 1664 1666 1668 1670 1672 1674 1676 1678 1680 1682 1684 1686 1688 1690 1692 1694 1696 1698 1700 1702 1704 1706 1708 1710 1712 1714 1716 1718 1720 1722 1724 1726 1728 1730 1732 1734 1736 1738 1740 1742 1744 1746 1748 1750 1752 1754 1756 1758 1760 1762 1764 1766 1768 1770 </DataArray>
<DataArray  type="UInt8"  Name="types"  format="ascii">3 3 3 3 3 3 3 3 3 3 3 3 3 3 3 3 3 3 3 3 3 3 3 3 3 3 3 3 3 3 3 3 3 3 3 3 3 3 3 3 3 3 3 3 3 3 3 3 3 3 3 3 3 3 3 3 3 3 3 3 3 3 3 3 3 3 3 3 3 3 3 3 3 3 3 3 3 3 3 3 3 3 3 3 3 3 3 3 3 3 3 3 3 3 3 3 3 3 3 3 3 3 3 3 3 3 3 3 3 3 3 3 3 3 3 3 3 3 3 3 3 3 3 3 3 3 3 3 3 3 3 3 3 3 3 3 3 3 3 3 3 3 3 3 3 3 3 3 3 3 3 3 3 3 3 3 3 3 3 3 3 3 3 3 3 3 3 3 3 3 3 3 3 3 3 3 3 3 3 3 3 3 3 3 3 3 3 3 3 3 3 3 3 3 3 3 3 3 3 3 3 3 3 3 3 3 3 3 3 3 3 3 3 3 3 3 3 3 3 3 3 3 3 3 3 3 3 3 3 3 3 3 3 3 3 3 3 3 3 3 3 3 3 3 3 3 3 3 3 3 3 3 3 3 3 3 3 3 3 3 3 3 3 3 3 3 3 3 3 3 3 3 3 3 3 3 3 3 3 3 3 3 3 3 3 3 3 3 3 3 3 3 3 3 3 3 3 3 3 3 3 3 3 3 3 3 3 3 3 3 3 3 3 3 3 3 3 3 3 3 3 3 3 3 3 3 3 3 3 3 3 3 3 3 3 3 3 3 3 3 3 3 3 3 3 3 3 3 3 3 3 3 3 3 3 3 3 3 3 3 3 3 3 3 3 3 3 3 3 3 3 3 3 3 3 3 3 3 3 3 3 3 3 3 3 3 3 3 3 3 3 3 3 3 3 3 3 3 3 3 3 3 3 3 3 3 3 3 3 3 3 3 3 3 3 3 3 3 3 3 3 3 3 3 3 3 3 3 3 3 3 3 3 3 3 3 3 3 3 3 3 3 3 3 3 3 3 3 3 3 3 3 3 3 3 3 3 3 3 3 3 3 3 3 3 3 3 3 3 3 3 3 3 3 3 3 3 3 3 3 3 3 3 3 3 3 3 3 3 3 3 3 3 3 3 3 3 3 3 3 3 3 3 3 3 3 3 3 3 3 3 3 3 3 3 3 3 3 3 3 3 3 3 3 3 3 3 3 3 3 3 3 3 3 3 3 3 3 3 3 3 3 3 3 3 3 3 3 3 3 3 3 3 3 3 3 3 3 3 3 3 3 3 3 3 3 3 3 3 3 3 3 3 3 3 3 3 3 3 3 3 3 3 3 3 3 3 3 3 3 3 3 3 3 3 3 3 3 3 3 3 3 3 3 3 3 3 3 3 3 3 3 3 3 3 3 3 3 3 3 3 3 3 3 3 3 3 3 3 3 3 3 3 3 3 3 3 3 3 3 3 3 3 3 3 3 3 3 3 3 3 3 3 3 3 3 3 3 3 3 3 3 3 3 3 3 3 3 3 3 3 3 3 3 3 3 3 3 3 3 3 3 3 3 3 3 3 3 3 3 3 3 3 3 3 3 3 3 3 3 3 3 3 3 3 3 3 3 3 3 3 3 3 3 3 3 3 3 3 3 3 3 3 3 3 3 3 3 3 3 3 3 3 3 3 3 3 3 3 3 3 3 3 3 3 3 3 3 3 3 3 3 3 3 3 3 3 3 3 3 3 3 3 3 3 3 3 3 3 3 3 3 3 3 3 3 3 3 3 3 3 3 3 3 3 3 3 3 3 3 3 3 3 3 3 3 3 3 3 3 3 3 3 3 3 3 3 3 3 3 3 3 3 3 3 3 3 3 3 3 3 3 3 3 3 3 3 3 3 3 3 3 3 3 3 3 3 3 3 3 3 3 3 3 3 3 3 3 3 3 3 3 3 3 3 3 3 3 3 3 3 3 3 3 3 3 3 3 3 3 3 3 3 3 3 3 3 3 3 3 3 3 3 3 3 </DataArray>
</Cells>
<CellData  Scalars="f">
<DataArray  type="Float64"  Name="f"  format="ascii">0 0 0 0 0 0 0 0 0 0 0 0 0 0 0 0 0 0 0 0 0 0 0 0 0 0 0 0 0 0 0 0 0 0 0 0 0 0 0 0 0 0 0 0 0 0 0 0 0 0 0 0 0 0 0 0 0 0 0 0 0 0 0 0 0 0 0 0 0 0 0 0 0 0 0 0 0 0 0 0 0 0 0 0 0 0 0 0 0 0 0 0 0 0 0 0 0 0 0 0 0 0 0 0 0 0 0 0 0 0 0 0 0 0 0 0 0 0 0 0 0 0 0 0 0 0 0 0 0 0 0 0 0 0 0 0 0 0 0 0 0 0 0 0 0 0 0 0 0 0 0 0 0 0 0 0 0 0 0 0 0 0 0 0 0 0 0 0 0 0 0 0 0 0 0 0 0 0 0 0 0 0 0 0 0 0 0 0 0 0 0 0 0 0 0 0 0 0 0 0 0 0 0 0 0 0 0 0 0 0 0 0 0 0 0 0 0 0 0 0 0 0 0 0 0 0 0 0 0 0 0 0 0 0 0 0 0 0 0 0 0 0 0 0 0 0 0 0 0 0 0 0 0 0 0 0 0 0 0 0 0 0 0 0 0 0 0 0 0 0 0 0 0 0 0 0 0 0 0 0 0 0 0 0 0 0 0 0 0 0 0 0 0 0 0 0 0 0 0 0 0 0 0 0 0 0 0 0 0 0 0 0 0 0 0 0 0 0 0 0 0 0 0 0 0 0 0 0 0 0 0 0 0 0 0 0 0 0 0 0 0 0 0 0 0 0 0 0 0 0 0 0 0 0 0 0 0 0 0 0 0 0 0 0 0 0 0 0 0 0 0 0 0 0 0 0 0 0 0 0 0 0 0 0 0 0 0 0 0 0 0 0 0 0 0 0 0 0 0 0 0 0 0 0 0 0 0 0 0 0 0 0 0 0 0 0 0 0 0 0 0 0 0 0 0 0 0 0 0 0 0 0 0 0 0 0 0 0 0 0 0 0 0 0 0 0 0 0 0 0 0 0 0 0 0 0 0 0 0 0 0 0 0 0 0 0 0 0 0 0 0 0 0 0 0 0 0 0 0 0 0 0 0 0 0 0 0 0 0 0 0 0 0 0 0 0 0 0 0 0 0 0 0 0 0 0 0 0 0 0 0 0 0 0 0 0 0 0 0 0 0 0 0 0 0 0 0 0 0 0 0 0 0 0 0 0 0 0 0 0 0 0 0 0 0 0 0 0 0 0 0 0 0 0 0 0 0 0 0 0 0 0 0 0 0 0 0 0 0 0 0 0 0 0 0 0 0 0 0 0 0 0 0 0 0 0 0 0 0 0 0 0 0 0 0 0 0 0 0 0 0 0 0 0 0 0 0 0 0 0 0 0 0 0 0 0 0 0 0 0 0 0 0 0 0 0 0 0 0 0 0 0 0 0 0 0 0 0 0 0 0 0 0 0 0 0 0 0 0 0 0 0 0 0 0 0 0 0 0 0 0 0 0 0 0 0 0 0 0 0 0 0 0 0 0 0 0 0 0 0 0 0 0 0 0 0 0 0 0 0 0 0 0 0 0 0 0 0 0 0 0 0 0 0 0 0 0 0 0 0 0 0 0 0 0 0 0 0 0 0 0 0 0 0 0 0 0 0 0 0 0 0 0 0 0 0 0 0 0 0 0 0 0 0 0 0 0 0 0 0 0 0 0 0 0 0 0 0 0 0 0 0 0 0 0 0 0 0 0 0 0 0 0 0 0 0 0 0 0 0 0 0 0 0 0 0 0 0 0 0 0 0 0 0 0 0 0 0 0 0 0 0 0 0 0 0 0 0 0 0 0 0 0 0 0 0 0 0 0 0 0 0 0 0 0 0 0 0 0 0 0 0 0 0 0 0 0 0 0 0 0 0 0 0 0 0 0 0 0 0 0 0 0 0 0 0 0 0 0 0 0 0 0 0 0 0 0 0 0 0 0 0 0 0 0 0 0 0 0 0 0 0 0 0 0 </DataArray>
</CellData>
</Piece>
</UnstructuredGrid>
</VTKFile>