<?xml version="1.0"?>
<VTKFile type="UnstructuredGrid"  version="0.1"  >
<UnstructuredGrid>
<Piece  NumberOfPoints="330" NumberOfCells="918">
<Points>
<DataArray  type="Float64"  NumberOfComponents="3"  format="ascii">2.973913043478261 0 0  3.006956521739131 0 0  3.006956521739131 0.03333333333333333 0  2.973913043478261 0.03333333333333333 0  3.04 0 0  3.04 0.03333333333333333 0  3.073043478260869 0 0  3.073043478260869 0.03333333333333333 0  3.106086956521739 0 0  3.106086956521739 0.03333333333333333 0  3.139130434782609 0 0  3.139130434782609 0.03333333333333333 0  3.172173913043478 0 0  3.172173913043478 0.03333333333333333 0  3.205217391304347 0 0  3.205217391304347 0.03333333333333333 0  3.238260869565217 0 0  3.238260869565217 0.03333333333333333 0  3.271304347826087 0 0  3.271304347826087 0.03333333333333333 0  3.304347826086957 0 0  3.304347826086957 0.03333333333333333 0  3.337391304347826 0 0  3.337391304347826 0.03333333333333333 0  3.370434782608696 0 0  3.370434782608696 0.03333333333333333 0  3.403478260869565 0 0  3.403478260869565 0.03333333333333333 0  3.436521739130435 0 0  3.436521739130435 0.03333333333333333 0  3.469565217391304 0 0  3.469565217391304 0.03333333333333333 0  3.502608695652174 0 0  3.502608695652174 0.03333333333333333 0  3.535652173913043 0 0  3.535652173913043 0.03333333333333333 0  3.568695652173913 0 0  3.568695652173913 0.03333333333333333 0  3.601739130434782 0 0  3.601739130434782 0.03333333333333333 0  3.634782608695652 0 0  3.634782608695652 0.03333333333333333 0  3.667826086956521 0 0  3.667826086956521 0.03333333333333333 0  3.700869565217391 0 0  3.700869565217391 0.03333333333333333 0  3.733913043478261 0 0  3.733913043478261 0.03333333333333333 0  3.766956521739131 0 0  3.766956521739131 0.03333333333333333 0  3.8 0 0  3.8 0.03333333333333333 0  3.006956521739131 0.06666666666666667 0  3.04 0.06666666666666667 0  3.073043478260869 0.06666666666666667 0  3.106086956521739 0.06666666666666667 0  3.139130434782609 0.06666666666666667 0  3.172173913043478 0.06666666666666667 0  3.205217391304347 0.06666666666666667 0  3.238260869565217 0.06666666666666667 0  3.271304347826087 0.06666666666666667 0  3.304347826086957 0.06666666666666667 0  3.337391304347826 0.06666666666666667 0  3.370434782608696 0.06666666666666667 0  3.403478260869565 0.06666666666666667 0  3.436521739130435 0.06666666666666667 0  3.469565217391304 0.06666666666666667 0  3.502608695652174 0.06666666666666667 0  3.535652173913043 0.06666666666666667 0  3.568695652173913 0.06666666666666667 0  3.601739130434782 0.06666666666666667 0  3.634782608695652 0.06666666666666667 0  3.667826086956521 0.06666666666666667 0  3.700869565217391 0.06666666666666667 0  3.733913043478261 0.06666666666666667 0  3.766956521739131 0.06666666666666667 0  3.8 0.06666666666666667 0  3.04 0.1 0  3.073043478260869 0.1 0  3.106086956521739 0.1 0  3.139130434782609 0.1 0  3.172173913043478 0.1 0  3.205217391304347 0.1 0  3.238260869565217 0.1 0  3.271304347826087 0.1 0  3.304347826086957 0.1 0  3.337391304347826 0.1 0  3.370434782608696 0.1 0  3.403478260869565 0.1 0  3.436521739130435 0.1 0  3.469565217391304 0.1 0  3.502608695652174 0.1 0  3.535652173913043 0.1 0  3.568695652173913 0.1 0  3.601739130434782 0.1 0  3.634782608695652 0.1 0  3.667826086956521 0.1 0  3.700869565217391 0.1 0  3.733913043478261 0.1 0  3.766956521739131 0.1 0  3.8 0.1 0  3.073043478260869 0.1333333333333333 0  3.106086956521739 0.1333333333333333 0  3.139130434782609 0.1333333333333333 0  3.172173913043478 0.1333333333333333 0  3.205217391304347 0.1333333333333333 0  3.238260869565217 0.1333333333333333 0  3.271304347826087 0.1333333333333333 0  3.304347826086957 0.1333333333333333 0  3.337391304347826 0.1333333333333333 0  3.370434782608696 0.1333333333333333 0  3.403478260869565 0.1333333333333333 0  3.436521739130435 0.1333333333333333 0  3.469565217391304 0.1333333333333333 0  3.502608695652174 0.1333333333333333 0  3.535652173913043 0.1333333333333333 0  3.568695652173913 0.1333333333333333 0  3.601739130434782 0.1333333333333333 0  3.634782608695652 0.1333333333333333 0  3.667826086956521 0.1333333333333333 0  3.700869565217391 0.1333333333333333 0  3.733913043478261 0.1333333333333333 0  3.766956521739131 0.1333333333333333 0  3.8 0.1333333333333333 0  3.106086956521739 0.1666666666666667 0  3.139130434782609 0.1666666666666667 0  3.172173913043478 0.1666666666666667 0  3.205217391304347 0.1666666666666667 0  3.238260869565217 0.1666666666666667 0  3.271304347826087 0.1666666666666667 0  3.304347826086957 0.1666666666666667 0  3.337391304347826 0.1666666666666667 0  3.370434782608696 0.1666666666666667 0  3.403478260869565 0.1666666666666667 0  3.436521739130435 0.1666666666666667 0  3.469565217391304 0.1666666666666667 0  3.502608695652174 0.1666666666666667 0  3.535652173913043 0.1666666666666667 0  3.568695652173913 0.1666666666666667 0  3.601739130434782 0.1666666666666667 0  3.634782608695652 0.1666666666666667 0  3.667826086956521 0.1666666666666667 0  3.700869565217391 0.1666666666666667 0  3.733913043478261 0.1666666666666667 0  3.766956521739131 0.1666666666666667 0  3.8 0.1666666666666667 0  3.139130434782609 0.2 0  3.106086956521739 0.2 0  3.172173913043478 0.2 0  3.205217391304347 0.2 0  3.238260869565217 0.2 0  3.271304347826087 0.2 0  3.304347826086957 0.2 0  3.337391304347826 0.2 0  3.370434782608696 0.2 0  3.403478260869565 0.2 0  3.436521739130435 0.2 0  3.469565217391304 0.2 0  3.502608695652174 0.2 0  3.535652173913043 0.2 0  3.568695652173913 0.2 0  3.601739130434782 0.2 0  3.634782608695652 0.2 0  3.667826086956521 0.2 0  3.700869565217391 0.2 0  3.733913043478261 0.2 0  3.766956521739131 0.2 0  3.8 0.2 0  3.139130434782609 0.2333333333333333 0  3.172173913043478 0.2333333333333333 0  3.205217391304347 0.2333333333333333 0  3.238260869565217 0.2333333333333333 0  3.271304347826087 0.2333333333333333 0  3.304347826086957 0.2333333333333333 0  3.337391304347826 0.2333333333333333 0  3.370434782608696 0.2333333333333333 0  3.403478260869565 0.2333333333333333 0  3.436521739130435 0.2333333333333333 0  3.469565217391304 0.2333333333333333 0  3.502608695652174 0.2333333333333333 0  3.535652173913043 0.2333333333333333 0  3.568695652173913 0.2333333333333333 0  3.601739130434782 0.2333333333333333 0  3.634782608695652 0.2333333333333333 0  3.667826086956521 0.2333333333333333 0  3.700869565217391 0.2333333333333333 0  3.733913043478261 0.2333333333333333 0  3.766956521739131 0.2333333333333333 0  3.8 0.2333333333333333 0  3.172173913043478 0.2666666666666667 0  3.205217391304347 0.2666666666666667 0  3.238260869565217 0.2666666666666667 0  3.271304347826087 0.2666666666666667 0  3.304347826086957 0.2666666666666667 0  3.337391304347826 0.2666666666666667 0  3.370434782608696 0.2666666666666667 0  3.403478260869565 0.2666666666666667 0  3.436521739130435 0.2666666666666667 0  3.469565217391304 0.2666666666666667 0  3.502608695652174 0.2666666666666667 0  3.535652173913043 0.2666666666666667 0  3.568695652173913 0.2666666666666667 0  3.601739130434782 0.2666666666666667 0  3.634782608695652 0.2666666666666667 0  3.667826086956521 0.2666666666666667 0  3.700869565217391 0.2666666666666667 0  3.733913043478261 0.2666666666666667 0  3.766956521739131 0.2666666666666667 0  3.8 0.2666666666666667 0  3.205217391304347 0.3 0  3.238260869565217 0.3 0  3.271304347826087 0.3 0  3.304347826086957 0.3 0  3.337391304347826 0.3 0  3.370434782608696 0.3 0  3.403478260869565 0.3 0  3.436521739130435 0.3 0  3.469565217391304 0.3 0  3.502608695652174 0.3 0  3.535652173913043 0.3 0  3.568695652173913 0.3 0  3.601739130434782 0.3 0  3.634782608695652 0.3 0  3.667826086956521 0.3 0  3.700869565217391 0.3 0  3.733913043478261 0.3 0  3.766956521739131 0.3 0  3.8 0.3 0  3.238260869565217 0.3333333333333333 0  3.271304347826087 0.3333333333333333 0  3.304347826086957 0.3333333333333333 0  3.337391304347826 0.3333333333333333 0  3.370434782608696 0.3333333333333333 0  3.403478260869565 0.3333333333333333 0  3.436521739130435 0.3333333333333333 0  3.469565217391304 0.3333333333333333 0  3.502608695652174 0.3333333333333333 0  3.535652173913043 0.3333333333333333 0  3.568695652173913 0.3333333333333333 0  3.601739130434782 0.3333333333333333 0  3.634782608695652 0.3333333333333333 0  3.667826086956521 0.3333333333333333 0  3.700869565217391 0.3333333333333333 0  3.733913043478261 0.3333333333333333 0  3.766956521739131 0.3333333333333333 0  3.8 0.3333333333333333 0  3.271304347826087 0.3666666666666666 0  3.238260869565217 0.3666666666666666 0  3.304347826086957 0.3666666666666666 0  3.337391304347826 0.3666666666666666 0  3.370434782608696 0.3666666666666666 0  3.403478260869565 0.3666666666666666 0  3.436521739130435 0.3666666666666666 0  3.469565217391304 0.3666666666666666 0  3.502608695652174 0.3666666666666666 0  3.535652173913043 0.3666666666666666 0  3.568695652173913 0.3666666666666666 0  3.601739130434782 0.3666666666666666 0  3.634782608695652 0.3666666666666666 0  3.667826086956521 0.3666666666666666 0  3.700869565217391 0.3666666666666666 0  3.733913043478261 0.3666666666666666 0  3.766956521739131 0.3666666666666666 0  3.8 0.3666666666666666 0  3.271304347826087 0.4 0  3.238260869565217 0.4 0  3.304347826086957 0.4 0  3.337391304347826 0.4 0  3.370434782608696 0.4 0  3.403478260869565 0.4 0  3.436521739130435 0.4 0  3.469565217391304 0.4 0  3.502608695652174 0.4 0  3.535652173913043 0.4 0  3.568695652173913 0.4 0  3.601739130434782 0.4 0  3.634782608695652 0.4 0  3.667826086956521 0.4 0  3.700869565217391 0.4 0  3.733913043478261 0.4 0  3.766956521739131 0.4 0  3.8 0.4 0  3.271304347826087 0.4333333333333333 0  3.304347826086957 0.4333333333333333 0  3.337391304347826 0.4333333333333333 0  3.370434782608696 0.4333333333333333 0  3.403478260869565 0.4333333333333333 0  3.436521739130435 0.4333333333333333 0  3.469565217391304 0.4333333333333333 0  3.502608695652174 0.4333333333333333 0  3.535652173913043 0.4333333333333333 0  3.568695652173913 0.4333333333333333 0  3.601739130434782 0.4333333333333333 0  3.634782608695652 0.4333333333333333 0  3.667826086956521 0.4333333333333333 0  3.700869565217391 0.4333333333333333 0  3.733913043478261 0.4333333333333333 0  3.766956521739131 0.4333333333333333 0  3.8 0.4333333333333333 0  3.304347826086957 0.4666666666666667 0  3.337391304347826 0.4666666666666667 0  3.370434782608696 0.4666666666666667 0  3.403478260869565 0.4666666666666667 0  3.436521739130435 0.4666666666666667 0  3.469565217391304 0.4666666666666667 0  3.502608695652174 0.4666666666666667 0  3.535652173913043 0.4666666666666667 0  3.568695652173913 0.4666666666666667 0  3.601739130434782 0.4666666666666667 0  3.634782608695652 0.4666666666666667 0  3.667826086956521 0.4666666666666667 0  3.700869565217391 0.4666666666666667 0  3.733913043478261 0.4666666666666667 0  3.766956521739131 0.4666666666666667 0  3.8 0.4666666666666667 0  3.337391304347826 0.5 0  3.370434782608696 0.5 0  3.403478260869565 0.5 0  3.436521739130435 0.5 0  3.469565217391304 0.5 0  3.502608695652174 0.5 0  3.535652173913043 0.5 0  3.568695652173913 0.5 0  3.601739130434782 0.5 0  3.634782608695652 0.5 0  3.667826086956521 0.5 0  3.700869565217391 0.5 0  3.733913043478261 0.5 0  3.766956521739131 0.5 0  3.8 0.5 0  </DataArray>
</Points>
<Cells>
<DataArray  type="UInt32"  Name="connectivity"  format="ascii">0 1  0 2  0 3  1 2  1 4  1 5  3 2  2 5  2 52  2 53  3 52  4 5  4 6  4 7  5 7  5 53  5 54  6 7  6 8  6 9  7 9  7 54  7 55  8 9  8 10  8 11  9 11  9 55  9 56  10 11  10 12  10 13  11 13  11 56  11 57  12 13  12 14  12 15  13 15  13 57  13 58  14 15  14 16  14 17  15 17  15 58  15 59  16 17  16 18  16 19  17 19  17 59  17 60  18 19  18 20  18 21  19 21  19 60  19 61  20 21  20 22  20 23  21 23  21 61  21 62  22 23  22 24  22 25  23 25  23 62  23 63  24 25  24 26  24 27  25 27  25 63  25 64  26 27  26 28  26 29  27 29  27 64  27 65  28 29  28 30  28 31  29 31  29 65  29 66  30 31  30 32  30 33  31 33  31 66  31 67  32 33  32 34  32 35  33 35  33 67  33 68  34 35  34 36  34 37  35 37  35 68  35 69  36 37  36 38  36 39  37 39  37 69  37 70  38 39  38 40  38 41  39 41  39 70  39 71  40 41  40 42  40 43  41 43  41 71  41 72  42 43  42 44  42 45  43 45  43 72  43 73  44 45  44 46  44 47  45 47  45 73  45 74  46 47  46 48  46 49  47 49  47 74  47 75  48 49  48 50  48 51  49 51  49 75  49 76  50 51  51 76  52 53  52 77  53 54  53 77  53 78  54 55  54 78  54 79  55 56  55 79  55 80  56 57  56 80  56 81  57 58  57 81  57 82  58 59  58 82  58 83  59 60  59 83  59 84  60 61  60 84  60 85  61 62  61 85  61 86  62 63  62 86  62 87  63 64  63 87  63 88  64 65  64 88  64 89  65 66  65 89  65 90  66 67  66 90  66 91  67 68  67 91  67 92  68 69  68 92  68 93  69 70  69 93  69 94  70 71  70 94  70 95  71 72  71 95  71 96  72 73  72 96  72 97  73 74  73 97  73 98  74 75  74 98  74 99  75 76  75 99  75 100  76 100  77 78  77 101  78 79  78 101  78 102  79 80  79 102  79 103  80 81  80 103  80 104  81 82  81 104  81 105  82 83  82 105  82 106  83 84  83 106  83 107  84 85  84 107  84 108  85 86  85 108  85 109  86 87  86 109  86 110  87 88  87 110  87 111  88 89  88 111  88 112  89 90  89 112  89 113  90 91  90 113  90 114  91 92  91 114  91 115  92 93  92 115  92 116  93 94  93 116  93 117  94 95  94 117  94 118  95 96  95 118  95 119  96 97  96 119  96 120  97 98  97 120  97 121  98 99  98 121  98 122  99 100  99 122  99 123  100 123  101 102  101 124  102 103  102 124  102 125  103 104  103 125  103 126  104 105  104 126  104 127  105 106  105 127  105 128  106 107  106 128  106 129  107 108  107 129  107 130  108 109  108 130  108 131  109 110  109 131  109 132  110 111  110 132  110 133  111 112  111 133  111 134  112 113  112 134  112 135  113 114  113 135  113 136  114 115  114 136  114 137  115 116  115 137  115 138  116 117  116 138  116 139  117 118  117 139  117 140  118 119  118 140  118 141  119 120  119 141  119 142  120 121  120 142  120 143  121 122  121 143  121 144  122 123  122 144  122 145  123 145  124 125  124 146  124 147  125 126  125 146  125 148  126 127  126 148  126 149  127 128  127 149  127 150  128 129  128 150  128 151  129 130  129 151  129 152  130 131  130 152  130 153  131 132  131 153  131 154  132 133  132 154  132 155  133 134  133 155  133 156  134 135  134 156  134 157  135 136  135 157  135 158  136 137  136 158  136 159  137 138  137 159  137 160  138 139  138 160  138 161  139 140  139 161  139 162  140 141  140 162  140 163  141 142  141 163  141 164  142 143  142 164  142 165  143 144  143 165  143 166  144 145  144 166  144 167  145 167  147 146  146 148  146 168  146 169  147 168  148 149  148 169  148 170  149 150  149 170  149 171  150 151  150 171  150 172  151 152  151 172  151 173  152 153  152 173  152 174  153 154  153 174  153 175  154 155  154 175  154 176  155 156  155 176  155 177  156 157  156 177  156 178  157 158  157 178  157 179  158 159  158 179  158 180  159 160  159 180  159 181  160 161  160 181  160 182  161 162  161 182  161 183  162 163  162 183  162 184  163 164  163 184  163 185  164 165  164 185  164 186  165 166  165 186  165 187  166 167  166 187  166 188  167 188  168 169  168 189  169 170  169 189  169 190  170 171  170 190  170 191  171 172  171 191  171 192  172 173  172 192  172 193  173 174  173 193  173 194  174 175  174 194  174 195  175 176  175 195  175 196  176 177  176 196  176 197  177 178  177 197  177 198  178 179  178 198  178 199  179 180  179 199  179 200  180 181  180 200  180 201  181 182  181 201  181 202  182 183  182 202  182 203  183 184  183 203  183 204  184 185  184 204  184 205  185 186  185 205  185 206  186 187  186 206  186 207  187 188  187 207  187 208  188 208  189 190  189 209  190 191  190 209  190 210  191 192  191 210  191 211  192 193  192 211  192 212  193 194  193 212  193 213  194 195  194 213  194 214  195 196  195 214  195 215  196 197  196 215  196 216  197 198  197 216  197 217  198 199  198 217  198 218  199 200  199 218  199 219  200 201  200 219  200 220  201 202  201 220  201 221  202 203  202 221  202 222  203 204  203 222  203 223  204 205  204 223  204 224  205 206  205 224  205 225  206 207  206 225  206 226  207 208  207 226  207 227  208 227  209 210  209 228  210 211  210 228  210 229  211 212  211 229  211 230  212 213  212 230  212 231  213 214  213 231  213 232  214 215  214 232  214 233  215 216  215 233  215 234  216 217  216 234  216 235  217 218  217 235  217 236  218 219  218 236  218 237  219 220  219 237  219 238  220 221  220 238  220 239  221 222  221 239  221 240  222 223  222 240  222 241  223 224  223 241  223 242  224 225  224 242  224 243  225 226  225 243  225 244  226 227  226 244  226 245  227 245  228 229  228 246  228 247  229 230  229 246  229 248  230 231  230 248  230 249  231 232  231 249  231 250  232 233  232 250  232 251  233 234  233 251  233 252  234 235  234 252  234 253  235 236  235 253  235 254  236 237  236 254  236 255  237 238  237 255  237 256  238 239  238 256  238 257  239 240  239 257  239 258  240 241  240 258  240 259  241 242  241 259  241 260  242 243  242 260  242 261  243 244  243 261  243 262  244 245  244 262  244 263  245 263  247 246  246 248  246 264  246 266  247 264  247 265  248 249  248 266  248 267  249 250  249 267  249 268  250 251  250 268  250 269  251 252  251 269  251 270  252 253  252 270  252 271  253 254  253 271  253 272  254 255  254 272  254 273  255 256  255 273  255 274  256 257  256 274  256 275  257 258  257 275  257 276  258 259  258 276  258 277  259 260  259 277  259 278  260 261  260 278  260 279  261 262  261 279  261 280  262 263  262 280  262 281  263 281  265 264  264 266  264 282  264 283  265 282  266 267  266 283  266 284  267 268  267 284  267 285  268 269  268 285  268 286  269 270  269 286  269 287  270 271  270 287  270 288  271 272  271 288  271 289  272 273  272 289  272 290  273 274  273 290  273 291  274 275  274 291  274 292  275 276  275 292  275 293  276 277  276 293  276 294  277 278  277 294  277 295  278 279  278 295  278 296  279 280  279 296  279 297  280 281  280 297  280 298  281 298  282 283  282 299  283 284  283 299  283 300  284 285  284 300  284 301  285 286  285 301  285 302  286 287  286 302  286 303  287 288  287 303  287 304  288 289  288 304  288 305  289 290  289 305  289 306  290 291  290 306  290 307  291 292  291 307  291 308  292 293  292 308  292 309  293 294  293 309  293 310  294 295  294 310  294 311  295 296  295 311  295 312  296 297  296 312  296 313  297 298  297 313  297 314  298 314  299 300  299 315  300 301  300 315  300 316  301 302  301 316  301 317  302 303  302 317  302 318  303 304  303 318  303 319  304 305  304 319  304 320  305 306  305 320  305 321  306 307  306 321  306 322  307 308  307 322  307 323  308 309  308 323  308 324  309 310  309 324  309 325  310 311  310 325  310 326  311 312  311 326  311 327  312 313  312 327  312 328  313 314  313 328  313 329  314 329  315 316  316 317  317 318  318 319  319 320  320 321  321 322  322 323  323 324  324 325  325 326  326 327  327 328  328 329  </DataArray>
<DataArray  type="UInt32"  Name="offsets"  format="ascii">2 4 6 8 10 12 14 16 18 20 22 24 26 28 30 32 34 36 38 40 42 44 46 48 50 52 54 56 58 60 62 64 66 68 70 72 74 76 78 80 82 84 86 88 90 92 94 96 98 100 102 104 106 108 110 112 114 116 118 120 122 124 126 128 130 132 134 136 138 140 142 144 146 148 150 152 154 156 158 160 162 164 166 168 170 172 174 176 178 180 182 184 186 188 190 192 194 196 198 200 202 204 206 208 210 212 214 216 218 220 222 224 226 228 230 232 234 236 238 240 242 244 246 248 250 252 254 256 258 260 262 264 266 268 270 272 274 276 278 280 282 284 286 288 290 292 294 296 298 300 302 304 306 308 310 312 314 316 318 320 322 324 326 328 330 332 334 336 338 340 342 344 346 348 350 352 354 356 358 360 362 364 366 368 370 372 374 376 378 380 382 384 386 388 390 392 394 396 398 400 402 404 406 408 410 412 414 416 418 420 422 424 426 428 430 432 434 436 438 440 442 444 446 448 450 452 454 456 458 460 462 464 466 468 470 472 474 476 478 480 482 484 486 488 490 492 494 496 498 500 502 504 506 508 510 512 514 516 518 520 522 524 526 528 530 532 534 536 538 540 542 544 546 548 550 552 554 556 558 560 562 564 566 568 570 572 574 576 578 580 582 584 586 588 590 592 594 596 598 600 602 604 606 608 610 612 614 616 618 620 622 624 626 628 630 632 634 636 638 640 642 644 646 648 650 652 654 656 658 660 662 664 666 668 670 672 674 676 678 680 682 684 686 688 690 692 694 696 698 700 702 704 706 708 710 712 714 716 718 720 722 724 726 728 730 732 734 736 738 740 742 744 746 748 750 752 754 756 758 760 762 764 766 768 770 772 774 776 778 780 782 784 786 788 790 792 794 796 798 800 802 804 806 808 810 812 814 816 818 820 822 824 826 828 830 832 834 836 838 840 842 844 846 848 850 852 854 856 858 860 862 864 866 868 870 872 874 876 878 880 882 884 886 888 890 892 894 896 898 900 902 904 906 908 910 912 914 916 918 920 922 924 926 928 930 932 934 936 938 940 942 944 946 948 950 952 954 956 958 960 962 964 966 968 970 972 974 976 978 980 982 984 986 988 990 992 994 996 998 1000 1002 1004 1006 1008 1010 1012 1014 1016 1018 1020 1022 1024 1026 1028 1030 1032 1034 1036 1038 1040 1042 1044 1046 1048 1050 1052 1054 1056 1058 1060 1062 1064 1066 1068 1070 1072 1074 1076 1078 1080 1082 1084 1086 1088 1090 1092 1094 1096 1098 1100 1102 1104 1106 1108 1110 1112 1114 1116 1118 1120 1122 1124 1126 1128 1130 1132 1134 1136 1138 1140 1142 1144 1146 1148 1150 1152 1154 1156 1158 1160 1162 1164 1166 1168 1170 1172 1174 1176 1178 1180 1182 1184 1186 1188 1190 1192 1194 1196 1198 1200 1202 1204 1206 1208 1210 1212 1214 1216 1218 1220 1222 1224 1226 1228 1230 1232 1234 1236 1238 1240 1242 1244 1246 1248 1250 1252 1254 1256 1258 1260 1262 1264 1266 1268 1270 1272 1274 1276 1278 1280 1282 1284 1286 1288 1290 1292 1294 1296 1298 1300 1302 1304 1306 1308 1310 1312 1314 1316 1318 1320 1322 1324 1326 1328 1330 1332 1334 1336 1338 1340 1342 1344 1346 1348 1350 1352 1354 1356 1358 1360 1362 1364 1366 1368 1370 1372 1374 1376 1378 1380 1382 1384 1386 1388 1390 1392 1394 1396 1398 1400 1402 1404 1406 1408 1410 1412 1414 1416 1418 1420 1422 1424 1426 1428 1430 1432 1434 1436 1438 1440 1442 1444 1446 1448 1450 1452 1454 1456 1458 1460 1462 1464 1466 1468 1470 1472 1474 1476 1478 1480 1482 1484 1486 1488 1490 1492 1494 1496 1498 1500 1502 1504 1506 1508 1510 1512 1514 1516 1518 1520 1522 1524 1526 1528 1530 1532 1534 1536 1538 1540 1542 1544 1546 1548 1550 1552 1554 1556 1558 1560 1562 1564 1566 1568 1570 1572 1574 1576 1578 1580 1582 1584 1586 1588 1590 1592 1594 1596 1598 1600 1602 1604 1606 1608 1610 1612 1614 1616 1618 1620 1622 1624 1626 1628 1630 1632 1634 1636 1638 1640 1642 1644 1646 1648 1650 1652 1654 1656 1658 1660 1662 1664 1666 1668 1670 1672 1674 1676 1678 1680 1682 1684 1686 1688 1690 1692 1694 1696 1698 1700 1702 1704 1706 1708 1710 1712 1714 1716 1718 1720 1722 1724 1726 1728 1730 1732 1734 1736 1738 1740 1742 1744 1746 1748 1750 1752 1754 1756 1758 1760 1762 1764 1766 1768 1770 1772 1774 1776 1778 1780 1782 1784 1786 1788 1790 1792 1794 1796 1798 1800 1802 1804 1806 1808 1810 1812 1814 1816 1818 1820 1822 1824 1826 1828 1830 1832 1834 1836 </DataArray>
<DataArray  type="UInt8"  Name="types"  format="ascii">3 3 3 3 3 3 3 3 3 3 3 3 3 3 3 3 3 3 3 3 3 3 3 3 3 3 3 3 3 3 3 3 3 3 3 3 3 3 3 3 3 3 3 3 3 3 3 3 3 3 3 3 3 3 3 3 3 3 3 3 3 3 3 3 3 3 3 3 3 3 3 3 3 3 3 3 3 3 3 3 3 3 3 3 3 3 3 3 3 3 3 3 3 3 3 3 3 3 3 3 3 3 3 3 3 3 3 3 3 3 3 3 3 3 3 3 3 3 3 3 3 3 3 3 3 3 3 3 3 3 3 3 3 3 3 3 3 3 3 3 3 3 3 3 3 3 3 3 3 3 3 3 3 3 3 3 3 3 3 3 3 3 3 3 3 3 3 3 3 3 3 3 3 3 3 3 3 3 3 3 3 3 3 3 3 3 3 3 3 3 3 3 3 3 3 3 3 3 3 3 3 3 3 3 3 3 3 3 3 3 3 3 3 3 3 3 3 3 3 3 3 3 3 3 3 3 3 3 3 3 3 3 3 3 3 3 3 3 3 3 3 3 3 3 3 3 3 3 3 3 3 3 3 3 3 3 3 3 3 3 3 3 3 3 3 3 3 3 3 3 3 3 3 3 3 3 3 3 3 3 3 3 3 3 3 3 3 3 3 3 3 3 3 3 3 3 3 3 3 3 3 3 3 3 3 3 3 3 3 3 3 3 3 3 3 3 3 3 3 3 3 3 3 3 3 3 3 3 3 3 3 3 3 3 3 3 3 3 3 3 3 3 3 3 3 3 3 3 3 3 3 3 3 3 3 3 3 3 3 3 3 3 3 3 3 3 3 3 3 3 3 3 3 3 3 3 3 3 3 3 3 3 3 3 3 3 3 3 3 3 3 3 3 3 3 3 3 3 3 3 3 3 3 3 3 3 3 3 3 3 3 3 3 3 3 3 3 3 3 3 3 3 3 3 3 3 3 3 3 3 3 3 3 3 3 3 3 3 3 3 3 3 3 3 3 3 3 3 3 3 3 3 3 3 3 3 3 3 3 3 3 3 3 3 3 3 3 3 3 3 3 3 3 3 3 3 3 3 3 3 3 3 3 3 3 3 3 3 3 3 3 3 3 3 3 3 3 3 3 3 3 3 3 3 3 3 3 3 3 3 3 3 3 3 3 3 3 3 3 3 3 3 3 3 3 3 3 3 3 3 3 3 3 3 3 3 3 3 3 3 3 3 3 3 3 3 3 3 3 3 3 3 3 3 3 3 3 3 3 3 3 3 3 3 3 3 3 3 3 3 3 3 3 3 3 3 3 3 3 3 3 3 3 3 3 3 3 3 3 3 3 3 3 3 3 3 3 3 3 3 3 3 3 3 3 3 3 3 3 3 3 3 3 3 3 3 3 3 3 3 3 3 3 3 3 3 3 3 3 3 3 3 3 3 3 3 3 3 3 3 3 3 3 3 3 3 3 3 3 3 3 3 3 3 3 3 3 3 3 3 3 3 3 3 3 3 3 3 3 3 3 3 3 3 3 3 3 3 3 3 3 3 3 3 3 3 3 3 3 3 3 3 3 3 3 3 3 3 3 3 3 3 3 3 3 3 3 3 3 3 3 3 3 3 3 3 3 3 3 3 3 3 3 3 3 3 3 3 3 3 3 3 3 3 3 3 3 3 3 3 3 3 3 3 3 3 3 3 3 3 3 3 3 3 3 3 3 3 3 3 3 3 3 3 3 3 3 3 3 3 3 3 3 3 3 3 3 3 3 3 3 3 3 3 3 3 3 3 3 3 3 3 3 3 3 3 3 3 3 3 3 3 3 3 3 3 3 3 3 3 3 3 3 3 3 3 3 3 3 3 3 3 3 3 3 3 3 3 3 3 3 3 3 3 3 3 3 3 3 3 3 3 3 3 3 3 3 3 3 3 3 3 3 3 3 3 3 3 3 3 3 3 3 3 3 3 3 3 3 3 3 3 3 3 3 3 3 3 3 3 3 3 3 3 3 3 3 3 3 3 3 3 3 3 3 3 3 3 3 3 3 3 3 3 3 3 3 3 3 3 3 3 3 3 3 3 3 3 </DataArray>
</Cells>
<CellData  Scalars="f">
<DataArray  type="Float64"  Name="f"  format="ascii">0 0 0 0 0 0 0 0 0 0 0 0 0 0 0 0 0 0 0 0 0 0 0 0 0 0 0 0 0 0 0 0 0 0 0 0 0 0 0 0 0 0 0 0 0 0 0 0 0 0 0 0 0 0 0 0 0 0 0 0 0 0 0 0 0 0 0 0 0 0 0 0 0 0 0 0 0 0 0 0 0 0 0 0 0 0 0 0 0 0 0 0 0 0 0 0 0 0 0 0 0 0 0 0 0 0 0 0 0 0 0 0 0 0 0 0 0 0 0 0 0 0 0 0 0 0 0 0 0 0 0 0 0 0 0 0 0 0 0 0 0 0 0 0 0 0 0 0 0 0 0 0 0 0 0 0 0 0 0 0 0 0 0 0 0 0 0 0 0 0 0 0 0 0 0 0 0 0 0 0 0 0 0 0 0 0 0 0 0 0 0 0 0 0 0 0 0 0 0 0 0 0 0 0 0 0 0 0 0 0 0 0 0 0 0 0 0 0 0 0 0 0 0 0 0 0 0 0 0 0 0 0 0 0 0 0 0 0 0 0 0 0 0 0 0 0 0 0 0 0 0 0 0 0 0 0 0 0 0 0 0 0 0 0 0 0 0 0 0 0 0 0 0 0 0 0 0 0 0 0 0 0 0 0 0 0 0 0 0 0 0 0 0 0 0 0 0 0 0 0 0 0 0 0 0 0 0 0 0 0 0 0 0 0 0 0 0 0 0 0 0 0 0 0 0 0 0 0 0 0 0 0 0 0 0 0 0 0 0 0 0 0 0 0 0 0 0 0 0 0 0 0 0 0 0 0 0 0 0 0 0 0 0 0 0 0 0 0 0 0 0 0 0 0 0 0 0 0 0 0 0 0 0 0 0 0 0 0 0 0 0 0 0 0 0 0 0 0 0 0 0 0 0 0 0 0 0 0 0 0 0 0 0 0 0 0 0 0 0 0 0 0 0 0 0 0 0 0 0 0 0 0 0 0 0 0 0 0 0 0 0 0 0 0 0 0 0 0 0 0 0 0 0 0 0 0 0 0 0 0 0 0 0 0 0 0 0 0 0 0 0 0 0 0 0 0 0 0 0 0 0 0 0 0 0 0 0 0 0 0 0 0 0 0 0 0 0 0 0 0 0 0 0 0 0 0 0 0 0 0 0 0 0 0 0 0 0 0 0 0 0 0 0 0 0 0 0 0 0 0 0 0 0 0 0 0 0 0 0 0 0 0 0 0 0 0 0 0 0 0 0 0 0 0 0 0 0 0 0 0 0 0 0 0 0 0 0 0 0 0 0 0 0 0 0 0 0 0 0 0 0 0 0 0 0 0 0 0 0 0 0 0 0 0 0 0 0 0 0 0 0 0 0 0 0 0 0 0 0 0 0 0 0 0 0 0 0 0 0 0 0 0 0 0 0 0 0 0 0 0 0 0 0 0 0 0 0 0 0 0 0 0 0 0 0 0 0 0 0 0 0 0 0 0 0 0 0 0 0 0 0 0 0 0 0 0 0 0 0 0 0 0 0 0 0 0 0 0 0 0 0 0 0 0 0 0 0 0 0 0 0 0 0 0 0 0 0 0 0 0 0 0 0 0 0 0 0 0 0 0 0 0 0 0 0 0 0 0 0 0 0 0 0 0 0 0 0 0 0 0 0 0 0 0 0 0 0 0 0 0 0 0 0 0 0 0 0 0 0 0 0 0 0 0 0 0 0 0 0 0 0 0 0 0 0 0 0 0 0 0 0 0 0 0 0 0 0 0 0 0 0 0 0 0 0 0 0 0 0 0 0 0 0 0 0 0 0 0 0 0 0 0 0 0 0 0 0 0 0 0 0 0 0 0 0 0 0 0 0 0 0 0 0 0 0 0 0 0 0 0 0 0 0 0 0 0 0 0 0 0 0 0 0 0 0 0 0 0 0 0 0 0 0 0 0 0 0 0 0 0 0 0 0 0 0 0 0 0 0 0 0 0 0 0 0 0 0 0 0 0 0 0 0 0 0 0 0 0 0 0 0 0 0 0 0 0 0 0 0 0 0 0 0 0 0 0 0 0 0 0 0 0 0 3 3 3 3 3 </DataArray>
</CellData>
</Piece>
</UnstructuredGrid>
</VTKFile>