<?xml version="1.0"?>
<VTKFile type="UnstructuredGrid"  version="0.1"  >
<UnstructuredGrid>
<Piece  NumberOfPoints="327" NumberOfCells="910">
<Points>
<DataArray  type="Float64"  NumberOfComponents="3"  format="ascii">0 0 0  0.03304347826086956 0 0  0.03304347826086956 0.03333333333333333 0  0 0.03333333333333333 0  0.06608695652173913 0 0  0.06608695652173913 0.03333333333333333 0  0.09913043478260869 0 0  0.09913043478260869 0.03333333333333333 0  0.1321739130434783 0 0  0.1321739130434783 0.03333333333333333 0  0.1652173913043478 0 0  0.1652173913043478 0.03333333333333333 0  0.1982608695652174 0 0  0.1982608695652174 0.03333333333333333 0  0.2313043478260869 0 0  0.2313043478260869 0.03333333333333333 0  0.2643478260869565 0 0  0.2643478260869565 0.03333333333333333 0  0.2973913043478261 0 0  0.2973913043478261 0.03333333333333333 0  0.3304347826086956 0 0  0.3304347826086956 0.03333333333333333 0  0.3634782608695652 0 0  0.3634782608695652 0.03333333333333333 0  0.3965217391304348 0 0  0.3965217391304348 0.03333333333333333 0  0.4295652173913043 0.03333333333333333 0  0.03304347826086956 0.06666666666666667 0  0 0.06666666666666667 0  0.06608695652173913 0.06666666666666667 0  0.09913043478260869 0.06666666666666667 0  0.1321739130434783 0.06666666666666667 0  0.1652173913043478 0.06666666666666667 0  0.1982608695652174 0.06666666666666667 0  0.2313043478260869 0.06666666666666667 0  0.2643478260869565 0.06666666666666667 0  0.2973913043478261 0.06666666666666667 0  0.3304347826086956 0.06666666666666667 0  0.3634782608695652 0.06666666666666667 0  0.3965217391304348 0.06666666666666667 0  0.4295652173913043 0.06666666666666667 0  0.4626086956521739 0.06666666666666667 0  0.03304347826086956 0.1 0  0 0.1 0  0.06608695652173913 0.1 0  0.09913043478260869 0.1 0  0.1321739130434783 0.1 0  0.1652173913043478 0.1 0  0.1982608695652174 0.1 0  0.2313043478260869 0.1 0  0.2643478260869565 0.1 0  0.2973913043478261 0.1 0  0.3304347826086956 0.1 0  0.3634782608695652 0.1 0  0.3965217391304348 0.1 0  0.4295652173913043 0.1 0  0.4626086956521739 0.1 0  0.4956521739130435 0.1 0  0.03304347826086956 0.1333333333333333 0  0 0.1333333333333333 0  0.06608695652173913 0.1333333333333333 0  0.09913043478260869 0.1333333333333333 0  0.1321739130434783 0.1333333333333333 0  0.1652173913043478 0.1333333333333333 0  0.1982608695652174 0.1333333333333333 0  0.2313043478260869 0.1333333333333333 0  0.2643478260869565 0.1333333333333333 0  0.2973913043478261 0.1333333333333333 0  0.3304347826086956 0.1333333333333333 0  0.3634782608695652 0.1333333333333333 0  0.3965217391304348 0.1333333333333333 0  0.4295652173913043 0.1333333333333333 0  0.4626086956521739 0.1333333333333333 0  0.4956521739130435 0.1333333333333333 0  0.528695652173913 0.1333333333333333 0  0.03304347826086956 0.1666666666666667 0  0 0.1666666666666667 0  0.06608695652173913 0.1666666666666667 0  0.09913043478260869 0.1666666666666667 0  0.1321739130434783 0.1666666666666667 0  0.1652173913043478 0.1666666666666667 0  0.1982608695652174 0.1666666666666667 0  0.2313043478260869 0.1666666666666667 0  0.2643478260869565 0.1666666666666667 0  0.2973913043478261 0.1666666666666667 0  0.3304347826086956 0.1666666666666667 0  0.3634782608695652 0.1666666666666667 0  0.3965217391304348 0.1666666666666667 0  0.4295652173913043 0.1666666666666667 0  0.4626086956521739 0.1666666666666667 0  0.4956521739130435 0.1666666666666667 0  0.528695652173913 0.1666666666666667 0  0.5617391304347825 0.1666666666666667 0  0.03304347826086956 0.2 0  0 0.2 0  0.06608695652173913 0.2 0  0.09913043478260869 0.2 0  0.1321739130434783 0.2 0  0.1652173913043478 0.2 0  0.1982608695652174 0.2 0  0.2313043478260869 0.2 0  0.2643478260869565 0.2 0  0.2973913043478261 0.2 0  0.3304347826086956 0.2 0  0.3634782608695652 0.2 0  0.3965217391304348 0.2 0  0.4295652173913043 0.2 0  0.4626086956521739 0.2 0  0.4956521739130435 0.2 0  0.528695652173913 0.2 0  0.5617391304347825 0.2 0  0.5947826086956521 0.2 0  0.03304347826086956 0.2333333333333333 0  0 0.2333333333333333 0  0.06608695652173913 0.2333333333333333 0  0.09913043478260869 0.2333333333333333 0  0.1321739130434783 0.2333333333333333 0  0.1652173913043478 0.2333333333333333 0  0.1982608695652174 0.2333333333333333 0  0.2313043478260869 0.2333333333333333 0  0.2643478260869565 0.2333333333333333 0  0.2973913043478261 0.2333333333333333 0  0.3304347826086956 0.2333333333333333 0  0.3634782608695652 0.2333333333333333 0  0.3965217391304348 0.2333333333333333 0  0.4295652173913043 0.2333333333333333 0  0.4626086956521739 0.2333333333333333 0  0.4956521739130435 0.2333333333333333 0  0.528695652173913 0.2333333333333333 0  0.5617391304347825 0.2333333333333333 0  0.5947826086956521 0.2333333333333333 0  0.6278260869565218 0.2333333333333333 0  0.03304347826086956 0.2666666666666667 0  0 0.2666666666666667 0  0.06608695652173913 0.2666666666666667 0  0.09913043478260869 0.2666666666666667 0  0.1321739130434783 0.2666666666666667 0  0.1652173913043478 0.2666666666666667 0  0.1982608695652174 0.2666666666666667 0  0.2313043478260869 0.2666666666666667 0  0.2643478260869565 0.2666666666666667 0  0.2973913043478261 0.2666666666666667 0  0.3304347826086956 0.2666666666666667 0  0.3634782608695652 0.2666666666666667 0  0.3965217391304348 0.2666666666666667 0  0.4295652173913043 0.2666666666666667 0  0.4626086956521739 0.2666666666666667 0  0.4956521739130435 0.2666666666666667 0  0.528695652173913 0.2666666666666667 0  0.5617391304347825 0.2666666666666667 0  0.5947826086956521 0.2666666666666667 0  0.6278260869565218 0.2666666666666667 0  0.6608695652173913 0.2666666666666667 0  0.03304347826086956 0.3 0  0 0.3 0  0.06608695652173913 0.3 0  0.09913043478260869 0.3 0  0.1321739130434783 0.3 0  0.1652173913043478 0.3 0  0.1982608695652174 0.3 0  0.2313043478260869 0.3 0  0.2643478260869565 0.3 0  0.2973913043478261 0.3 0  0.3304347826086956 0.3 0  0.3634782608695652 0.3 0  0.3965217391304348 0.3 0  0.4295652173913043 0.3 0  0.4626086956521739 0.3 0  0.4956521739130435 0.3 0  0.528695652173913 0.3 0  0.5617391304347825 0.3 0  0.5947826086956521 0.3 0  0.6278260869565218 0.3 0  0.6608695652173913 0.3 0  0.6939130434782609 0.3 0  0.03304347826086956 0.3333333333333333 0  0 0.3333333333333333 0  0.06608695652173913 0.3333333333333333 0  0.09913043478260869 0.3333333333333333 0  0.1321739130434783 0.3333333333333333 0  0.1652173913043478 0.3333333333333333 0  0.1982608695652174 0.3333333333333333 0  0.2313043478260869 0.3333333333333333 0  0.2643478260869565 0.3333333333333333 0  0.2973913043478261 0.3333333333333333 0  0.3304347826086956 0.3333333333333333 0  0.3634782608695652 0.3333333333333333 0  0.3965217391304348 0.3333333333333333 0  0.4295652173913043 0.3333333333333333 0  0.4626086956521739 0.3333333333333333 0  0.4956521739130435 0.3333333333333333 0  0.528695652173913 0.3333333333333333 0  0.5617391304347825 0.3333333333333333 0  0.5947826086956521 0.3333333333333333 0  0.6278260869565218 0.3333333333333333 0  0.6608695652173913 0.3333333333333333 0  0.6939130434782609 0.3333333333333333 0  0.7269565217391304 0.3333333333333333 0  0.03304347826086956 0.3666666666666666 0  0 0.3666666666666666 0  0.06608695652173913 0.3666666666666666 0  0.09913043478260869 0.3666666666666666 0  0.1321739130434783 0.3666666666666666 0  0.1652173913043478 0.3666666666666666 0  0.1982608695652174 0.3666666666666666 0  0.2313043478260869 0.3666666666666666 0  0.2643478260869565 0.3666666666666666 0  0.2973913043478261 0.3666666666666666 0  0.3304347826086956 0.3666666666666666 0  0.3634782608695652 0.3666666666666666 0  0.3965217391304348 0.3666666666666666 0  0.4295652173913043 0.3666666666666666 0  0.4626086956521739 0.3666666666666666 0  0.4956521739130435 0.3666666666666666 0  0.528695652173913 0.3666666666666666 0  0.5617391304347825 0.3666666666666666 0  0.5947826086956521 0.3666666666666666 0  0.6278260869565218 0.3666666666666666 0  0.6608695652173913 0.3666666666666666 0  0.6939130434782609 0.3666666666666666 0  0.7269565217391304 0.3666666666666666 0  0.7599999999999999 0.3666666666666666 0  0.03304347826086956 0.4 0  0 0.4 0  0.06608695652173913 0.4 0  0.09913043478260869 0.4 0  0.1321739130434783 0.4 0  0.1652173913043478 0.4 0  0.1982608695652174 0.4 0  0.2313043478260869 0.4 0  0.2643478260869565 0.4 0  0.2973913043478261 0.4 0  0.3304347826086956 0.4 0  0.3634782608695652 0.4 0  0.3965217391304348 0.4 0  0.4295652173913043 0.4 0  0.4626086956521739 0.4 0  0.4956521739130435 0.4 0  0.528695652173913 0.4 0  0.5617391304347825 0.4 0  0.5947826086956521 0.4 0  0.6278260869565218 0.4 0  0.6608695652173913 0.4 0  0.6939130434782609 0.4 0  0.7269565217391304 0.4 0  0.7599999999999999 0.4 0  0.7930434782608695 0.4 0  0.03304347826086956 0.4333333333333333 0  0 0.4333333333333333 0  0.06608695652173913 0.4333333333333333 0  0.09913043478260869 0.4333333333333333 0  0.1321739130434783 0.4333333333333333 0  0.1652173913043478 0.4333333333333333 0  0.1982608695652174 0.4333333333333333 0  0.2313043478260869 0.4333333333333333 0  0.2643478260869565 0.4333333333333333 0  0.2973913043478261 0.4333333333333333 0  0.3304347826086956 0.4333333333333333 0  0.3634782608695652 0.4333333333333333 0  0.3965217391304348 0.4333333333333333 0  0.4295652173913043 0.4333333333333333 0  0.4626086956521739 0.4333333333333333 0  0.4956521739130435 0.4333333333333333 0  0.528695652173913 0.4333333333333333 0  0.5617391304347825 0.4333333333333333 0  0.5947826086956521 0.4333333333333333 0  0.6278260869565218 0.4333333333333333 0  0.6608695652173913 0.4333333333333333 0  0.6939130434782609 0.4333333333333333 0  0.7269565217391304 0.4333333333333333 0  0.7599999999999999 0.4333333333333333 0  0.7930434782608695 0.4333333333333333 0  0.8260869565217391 0.4333333333333333 0  0.03304347826086956 0.4666666666666667 0  0 0.4666666666666667 0  0.06608695652173913 0.4666666666666667 0  0.09913043478260869 0.4666666666666667 0  0.1321739130434783 0.4666666666666667 0  0.1652173913043478 0.4666666666666667 0  0.1982608695652174 0.4666666666666667 0  0.2313043478260869 0.4666666666666667 0  0.2643478260869565 0.4666666666666667 0  0.2973913043478261 0.4666666666666667 0  0.3304347826086956 0.4666666666666667 0  0.3634782608695652 0.4666666666666667 0  0.3965217391304348 0.4666666666666667 0  0.4295652173913043 0.4666666666666667 0  0.4626086956521739 0.4666666666666667 0  0.4956521739130435 0.4666666666666667 0  0.528695652173913 0.4666666666666667 0  0.5617391304347825 0.4666666666666667 0  0.5947826086956521 0.4666666666666667 0  0.6278260869565218 0.4666666666666667 0  0.6608695652173913 0.4666666666666667 0  0.6939130434782609 0.4666666666666667 0  0.7269565217391304 0.4666666666666667 0  0.7599999999999999 0.4666666666666667 0  0.7930434782608695 0.4666666666666667 0  0.8260869565217391 0.4666666666666667 0  0.8591304347826086 0.4666666666666667 0  0.03304347826086956 0.5 0  0 0.5 0  0.06608695652173913 0.5 0  0.09913043478260869 0.5 0  0.1321739130434783 0.5 0  0.1652173913043478 0.5 0  0.1982608695652174 0.5 0  0.2313043478260869 0.5 0  0.2643478260869565 0.5 0  0.2973913043478261 0.5 0  0.3304347826086956 0.5 0  0.3634782608695652 0.5 0  0.3965217391304348 0.5 0  0.4295652173913043 0.5 0  0.4626086956521739 0.5 0  0.4956521739130435 0.5 0  0.528695652173913 0.5 0  0.5617391304347825 0.5 0  0.5947826086956521 0.5 0  0.6278260869565218 0.5 0  0.6608695652173913 0.5 0  0.6939130434782609 0.5 0  0.7269565217391304 0.5 0  0.7599999999999999 0.5 0  0.7930434782608695 0.5 0  0.8260869565217391 0.5 0  0.8591304347826086 0.5 0  </DataArray>
</Points>
<Cells>
<DataArray  type="UInt32"  Name="connectivity"  format="ascii">0 1  0 2  0 3  1 2  1 4  1 5  3 2  2 5  2 27  2 29  3 27  3 28  4 5  4 6  4 7  5 7  5 29  5 30  6 7  6 8  6 9  7 9  7 30  7 31  8 9  8 10  8 11  9 11  9 31  9 32  10 11  10 12  10 13  11 13  11 32  11 33  12 13  12 14  12 15  13 15  13 33  13 34  14 15  14 16  14 17  15 17  15 34  15 35  16 17  16 18  16 19  17 19  17 35  17 36  18 19  18 20  18 21  19 21  19 36  19 37  20 21  20 22  20 23  21 23  21 37  21 38  22 23  22 24  22 25  23 25  23 38  23 39  24 25  24 26  25 26  25 39  25 40  26 40  26 41  28 27  27 29  27 42  27 44  28 42  28 43  29 30  29 44  29 45  30 31  30 45  30 46  31 32  31 46  31 47  32 33  32 47  32 48  33 34  33 48  33 49  34 35  34 49  34 50  35 36  35 50  35 51  36 37  36 51  36 52  37 38  37 52  37 53  38 39  38 53  38 54  39 40  39 54  39 55  40 41  40 55  40 56  41 56  41 57  43 42  42 44  42 58  42 60  43 58  43 59  44 45  44 60  44 61  45 46  45 61  45 62  46 47  46 62  46 63  47 48  47 63  47 64  48 49  48 64  48 65  49 50  49 65  49 66  50 51  50 66  50 67  51 52  51 67  51 68  52 53  52 68  52 69  53 54  53 69  53 70  54 55  54 70  54 71  55 56  55 71  55 72  56 57  56 72  56 73  57 73  57 74  59 58  58 60  58 75  58 77  59 75  59 76  60 61  60 77  60 78  61 62  61 78  61 79  62 63  62 79  62 80  63 64  63 80  63 81  64 65  64 81  64 82  65 66  65 82  65 83  66 67  66 83  66 84  67 68  67 84  67 85  68 69  68 85  68 86  69 70  69 86  69 87  70 71  70 87  70 88  71 72  71 88  71 89  72 73  72 89  72 90  73 74  73 90  73 91  74 91  74 92  76 75  75 77  75 93  75 95  76 93  76 94  77 78  77 95  77 96  78 79  78 96  78 97  79 80  79 97  79 98  80 81  80 98  80 99  81 82  81 99  81 100  82 83  82 100  82 101  83 84  83 101  83 102  84 85  84 102  84 103  85 86  85 103  85 104  86 87  86 104  86 105  87 88  87 105  87 106  88 89  88 106  88 107  89 90  89 107  89 108  90 91  90 108  90 109  91 92  91 109  91 110  92 110  92 111  94 93  93 95  93 112  93 114  94 112  94 113  95 96  95 114  95 115  96 97  96 115  96 116  97 98  97 116  97 117  98 99  98 117  98 118  99 100  99 118  99 119  100 101  100 119  100 120  101 102  101 120  101 121  102 103  102 121  102 122  103 104  103 122  103 123  104 105  104 123  104 124  105 106  105 124  105 125  106 107  106 125  106 126  107 108  107 126  107 127  108 109  108 127  108 128  109 110  109 128  109 129  110 111  110 129  110 130  111 130  111 131  113 112  112 114  112 132  112 134  113 132  113 133  114 115  114 134  114 135  115 116  115 135  115 136  116 117  116 136  116 137  117 118  117 137  117 138  118 119  118 138  118 139  119 120  119 139  119 140  120 121  120 140  120 141  121 122  121 141  121 142  122 123  122 142  122 143  123 124  123 143  123 144  124 125  124 144  124 145  125 126  125 145  125 146  126 127  126 146  126 147  127 128  127 147  127 148  128 129  128 148  128 149  129 130  129 149  129 150  130 131  130 150  130 151  131 151  131 152  133 132  132 134  132 153  132 155  133 153  133 154  134 135  134 155  134 156  135 136  135 156  135 157  136 137  136 157  136 158  137 138  137 158  137 159  138 139  138 159  138 160  139 140  139 160  139 161  140 141  140 161  140 162  141 142  141 162  141 163  142 143  142 163  142 164  143 144  143 164  143 165  144 145  144 165  144 166  145 146  145 166  145 167  146 147  146 167  146 168  147 148  147 168  147 169  148 149  148 169  148 170  149 150  149 170  149 171  150 151  150 171  150 172  151 152  151 172  151 173  152 173  152 174  154 153  153 155  153 175  153 177  154 175  154 176  155 156  155 177  155 178  156 157  156 178  156 179  157 158  157 179  157 180  158 159  158 180  158 181  159 160  159 181  159 182  160 161  160 182  160 183  161 162  161 183  161 184  162 163  162 184  162 185  163 164  163 185  163 186  164 165  164 186  164 187  165 166  165 187  165 188  166 167  166 188  166 189  167 168  167 189  167 190  168 169  168 190  168 191  169 170  169 191  169 192  170 171  170 192  170 193  171 172  171 193  171 194  172 173  172 194  172 195  173 174  173 195  173 196  174 196  174 197  176 175  175 177  175 198  175 200  176 198  176 199  177 178  177 200  177 201  178 179  178 201  178 202  179 180  179 202  179 203  180 181  180 203  180 204  181 182  181 204  181 205  182 183  182 205  182 206  183 184  183 206  183 207  184 185  184 207  184 208  185 186  185 208  185 209  186 187  186 209  186 210  187 188  187 210  187 211  188 189  188 211  188 212  189 190  189 212  189 213  190 191  190 213  190 214  191 192  191 214  191 215  192 193  192 215  192 216  193 194  193 216  193 217  194 195  194 217  194 218  195 196  195 218  195 219  196 197  196 219  196 220  197 220  197 221  199 198  198 200  198 222  198 224  199 222  199 223  200 201  200 224  200 225  201 202  201 225  201 226  202 203  202 226  202 227  203 204  203 227  203 228  204 205  204 228  204 229  205 206  205 229  205 230  206 207  206 230  206 231  207 208  207 231  207 232  208 209  208 232  208 233  209 210  209 233  209 234  210 211  210 234  210 235  211 212  211 235  211 236  212 213  212 236  212 237  213 214  213 237  213 238  214 215  214 238  214 239  215 216  215 239  215 240  216 217  216 240  216 241  217 218  217 241  217 242  218 219  218 242  218 243  219 220  219 243  219 244  220 221  220 244  220 245  221 245  221 246  223 222  222 224  222 247  222 249  223 247  223 248  224 225  224 249  224 250  225 226  225 250  225 251  226 227  226 251  226 252  227 228  227 252  227 253  228 229  228 253  228 254  229 230  229 254  229 255  230 231  230 255  230 256  231 232  231 256  231 257  232 233  232 257  232 258  233 234  233 258  233 259  234 235  234 259  234 260  235 236  235 260  235 261  236 237  236 261  236 262  237 238  237 262  237 263  238 239  238 263  238 264  239 240  239 264  239 265  240 241  240 265  240 266  241 242  241 266  241 267  242 243  242 267  242 268  243 244  243 268  243 269  244 245  244 269  244 270  245 246  245 270  245 271  246 271  246 272  248 247  247 249  247 273  247 275  248 273  248 274  249 250  249 275  249 276  250 251  250 276  250 277  251 252  251 277  251 278  252 253  252 278  252 279  253 254  253 279  253 280  254 255  254 280  254 281  255 256  255 281  255 282  256 257  256 282  256 283  257 258  257 283  257 284  258 259  258 284  258 285  259 260  259 285  259 286  260 261  260 286  260 287  261 262  261 287  261 288  262 263  262 288  262 289  263 264  263 289  263 290  264 265  264 290  264 291  265 266  265 291  265 292  266 267  266 292  266 293  267 268  267 293  267 294  268 269  268 294  268 295  269 270  269 295  269 296  270 271  270 296  270 297  271 272  271 297  271 298  272 298  272 299  274 273  273 275  273 300  273 302  274 300  274 301  275 276  275 302  275 303  276 277  276 303  276 304  277 278  277 304  277 305  278 279  278 305  278 306  279 280  279 306  279 307  280 281  280 307  280 308  281 282  281 308  281 309  282 283  282 309  282 310  283 284  283 310  283 311  284 285  284 311  284 312  285 286  285 312  285 313  286 287  286 313  286 314  287 288  287 314  287 315  288 289  288 315  288 316  289 290  289 316  289 317  290 291  290 317  290 318  291 292  291 318  291 319  292 293  292 319  292 320  293 294  293 320  293 321  294 295  294 321  294 322  295 296  295 322  295 323  296 297  296 323  296 324  297 298  297 324  297 325  298 299  298 325  298 326  299 326  301 300  300 302  302 303  303 304  304 305  305 306  306 307  307 308  308 309  309 310  310 311  311 312  312 313  313 314  314 315  315 316  316 317  317 318  318 319  319 320  320 321  321 322  322 323  323 324  324 325  325 326  </DataArray>
<DataArray  type="UInt32"  Name="offsets"  format="ascii">2 4 6 8 10 12 14 16 18 20 22 24 26 28 30 32 34 36 38 40 42 44 46 48 50 52 54 56 58 60 62 64 66 68 70 72 74 76 78 80 82 84 86 88 90 92 94 96 98 100 102 104 106 108 110 112 114 116 118 120 122 124 126 128 130 132 134 136 138 140 142 144 146 148 150 152 154 156 158 160 162 164 166 168 170 172 174 176 178 180 182 184 186 188 190 192 194 196 198 200 202 204 206 208 210 212 214 216 218 220 222 224 226 228 230 232 234 236 238 240 242 244 246 248 250 252 254 256 258 260 262 264 266 268 270 272 274 276 278 280 282 284 286 288 290 292 294 296 298 300 302 304 306 308 310 312 314 316 318 320 322 324 326 328 330 332 334 336 338 340 342 344 346 348 350 352 354 356 358 360 362 364 366 368 370 372 374 376 378 380 382 384 386 388 390 392 394 396 398 400 402 404 406 408 410 412 414 416 418 420 422 424 426 428 430 432 434 436 438 440 442 444 446 448 450 452 454 456 458 460 462 464 466 468 470 472 474 476 478 480 482 484 486 488 490 492 494 496 498 500 502 504 506 508 510 512 514 516 518 520 522 524 526 528 530 532 534 536 538 540 542 544 546 548 550 552 554 556 558 560 562 564 566 568 570 572 574 576 578 580 582 584 586 588 590 592 594 596 598 600 602 604 606 608 610 612 614 616 618 620 622 624 626 628 630 632 634 636 638 640 642 644 646 648 650 652 654 656 658 660 662 664 666 668 670 672 674 676 678 680 682 684 686 688 690 692 694 696 698 700 702 704 706 708 710 712 714 716 718 720 722 724 726 728 730 732 734 736 738 740 742 744 746 748 750 752 754 756 758 760 762 764 766 768 770 772 774 776 778 780 782 784 786 788 790 792 794 796 798 800 802 804 806 808 810 812 814 816 818 820 822 824 826 828 830 832 834 836 838 840 842 844 846 848 850 852 854 856 858 860 862 864 866 868 870 872 874 876 878 880 882 884 886 888 890 892 894 896 898 900 902 904 906 908 910 912 914 916 918 920 922 924 926 928 930 932 934 936 938 940 942 944 946 948 950 952 954 956 958 960 962 964 966 968 970 972 974 976 978 980 982 984 986 988 990 992 994 996 998 1000 1002 1004 1006 1008 1010 1012 1014 1016 1018 1020 1022 1024 1026 1028 1030 1032 1034 1036 1038 1040 1042 1044 1046 1048 1050 1052 1054 1056 1058 1060 1062 1064 1066 1068 1070 1072 1074 1076 1078 1080 1082 1084 1086 1088 1090 1092 1094 1096 1098 1100 1102 1104 1106 1108 1110 1112 1114 1116 1118 1120 1122 1124 1126 1128 1130 1132 1134 1136 1138 1140 1142 1144 1146 1148 1150 1152 1154 1156 1158 1160 1162 1164 1166 1168 1170 1172 1174 1176 1178 1180 1182 1184 1186 1188 1190 1192 1194 1196 1198 1200 1202 1204 1206 1208 1210 1212 1214 1216 1218 1220 1222 1224 1226 1228 1230 1232 1234 1236 1238 1240 1242 1244 1246 1248 1250 1252 1254 1256 1258 1260 1262 1264 1266 1268 1270 1272 1274 1276 1278 1280 1282 1284 1286 1288 1290 1292 1294 1296 1298 1300 1302 1304 1306 1308 1310 1312 1314 1316 1318 1320 1322 1324 1326 1328 1330 1332 1334 1336 1338 1340 1342 1344 1346 1348 1350 1352 1354 1356 1358 1360 1362 1364 1366 1368 1370 1372 1374 1376 1378 1380 1382 1384 1386 1388 1390 1392 1394 1396 1398 1400 1402 1404 1406 1408 1410 1412 1414 1416 1418 1420 1422 1424 1426 1428 1430 1432 1434 1436 1438 1440 1442 1444 1446 1448 1450 1452 1454 1456 1458 1460 1462 1464 1466 1468 1470 1472 1474 1476 1478 1480 1482 1484 1486 1488 1490 1492 1494 1496 1498 1500 1502 1504 1506 1508 1510 1512 1514 1516 1518 1520 1522 1524 1526 1528 1530 1532 1534 1536 1538 1540 1542 1544 1546 1548 1550 1552 1554 1556 1558 1560 1562 1564 1566 1568 1570 1572 1574 1576 1578 1580 1582 1584 1586 1588 1590 1592 1594 1596 1598 1600 1602 1604 1606 1608 1610 1612 1614 1616 1618 1620 1622 1624 1626 1628 1630 1632 1634 1636 1638 1640 1642 1644 1646 1648 1650 1652 1654 1656 1658 1660 1662 1664 1666 1668 1670 1672 1674 1676 1678 1680 1682 1684 1686 1688 1690 1692 1694 1696 1698 1700 1702 1704 1706 1708 1710 1712 1714 1716 1718 1720 1722 1724 1726 1728 1730 1732 1734 1736 1738 1740 1742 1744 1746 1748 1750 1752 1754 1756 1758 1760 1762 1764 1766 1768 1770 1772 1774 1776 1778 1780 1782 1784 1786 1788 1790 1792 1794 1796 1798 1800 1802 1804 1806 1808 1810 1812 1814 1816 1818 1820 </DataArray>
<DataArray  type="UInt8"  Name="types"  format="ascii">3 3 3 3 3 3 3 3 3 3 3 3 3 3 3 3 3 3 3 3 3 3 3 3 3 3 3 3 3 3 3 3 3 3 3 3 3 3 3 3 3 3 3 3 3 3 3 3 3 3 3 3 3 3 3 3 3 3 3 3 3 3 3 3 3 3 3 3 3 3 3 3 3 3 3 3 3 3 3 3 3 3 3 3 3 3 3 3 3 3 3 3 3 3 3 3 3 3 3 3 3 3 3 3 3 3 3 3 3 3 3 3 3 3 3 3 3 3 3 3 3 3 3 3 3 3 3 3 3 3 3 3 3 3 3 3 3 3 3 3 3 3 3 3 3 3 3 3 3 3 3 3 3 3 3 3 3 3 3 3 3 3 3 3 3 3 3 3 3 3 3 3 3 3 3 3 3 3 3 3 3 3 3 3 3 3 3 3 3 3 3 3 3 3 3 3 3 3 3 3 3 3 3 3 3 3 3 3 3 3 3 3 3 3 3 3 3 3 3 3 3 3 3 3 3 3 3 3 3 3 3 3 3 3 3 3 3 3 3 3 3 3 3 3 3 3 3 3 3 3 3 3 3 3 3 3 3 3 3 3 3 3 3 3 3 3 3 3 3 3 3 3 3 3 3 3 3 3 3 3 3 3 3 3 3 3 3 3 3 3 3 3 3 3 3 3 3 3 3 3 3 3 3 3 3 3 3 3 3 3 3 3 3 3 3 3 3 3 3 3 3 3 3 3 3 3 3 3 3 3 3 3 3 3 3 3 3 3 3 3 3 3 3 3 3 3 3 3 3 3 3 3 3 3 3 3 3 3 3 3 3 3 3 3 3 3 3 3 3 3 3 3 3 3 3 3 3 3 3 3 3 3 3 3 3 3 3 3 3 3 3 3 3 3 3 3 3 3 3 3 3 3 3 3 3 3 3 3 3 3 3 3 3 3 3 3 3 3 3 3 3 3 3 3 3 3 3 3 3 3 3 3 3 3 3 3 3 3 3 3 3 3 3 3 3 3 3 3 3 3 3 3 3 3 3 3 3 3 3 3 3 3 3 3 3 3 3 3 3 3 3 3 3 3 3 3 3 3 3 3 3 3 3 3 3 3 3 3 3 3 3 3 3 3 3 3 3 3 3 3 3 3 3 3 3 3 3 3 3 3 3 3 3 3 3 3 3 3 3 3 3 3 3 3 3 3 3 3 3 3 3 3 3 3 3 3 3 3 3 3 3 3 3 3 3 3 3 3 3 3 3 3 3 3 3 3 3 3 3 3 3 3 3 3 3 3 3 3 3 3 3 3 3 3 3 3 3 3 3 3 3 3 3 3 3 3 3 3 3 3 3 3 3 3 3 3 3 3 3 3 3 3 3 3 3 3 3 3 3 3 3 3 3 3 3 3 3 3 3 3 3 3 3 3 3 3 3 3 3 3 3 3 3 3 3 3 3 3 3 3 3 3 3 3 3 3 3 3 3 3 3 3 3 3 3 3 3 3 3 3 3 3 3 3 3 3 3 3 3 3 3 3 3 3 3 3 3 3 3 3 3 3 3 3 3 3 3 3 3 3 3 3 3 3 3 3 3 3 3 3 3 3 3 3 3 3 3 3 3 3 3 3 3 3 3 3 3 3 3 3 3 3 3 3 3 3 3 3 3 3 3 3 3 3 3 3 3 3 3 3 3 3 3 3 3 3 3 3 3 3 3 3 3 3 3 3 3 3 3 3 3 3 3 3 3 3 3 3 3 3 3 3 3 3 3 3 3 3 3 3 3 3 3 3 3 3 3 3 3 3 3 3 3 3 3 3 3 3 3 3 3 3 3 3 3 3 3 3 3 3 3 3 3 3 3 3 3 3 3 3 3 3 3 3 3 3 3 3 3 3 3 3 3 3 3 3 3 3 3 3 3 3 3 3 3 3 3 3 3 3 3 3 3 3 3 3 3 3 3 3 3 3 3 3 3 3 3 3 3 3 3 3 3 3 3 3 3 3 3 3 3 3 3 3 3 3 3 3 3 3 3 3 3 3 3 3 3 3 3 3 3 3 3 3 3 3 3 3 3 3 </DataArray>
</Cells>
<CellData  Scalars="f">
<DataArray  type="Float64"  Name="f"  format="ascii">0 0 1 0 0 0 0 0 0 0 0 1 0 0 0 0 0 0 0 0 0 0 0 0 0 0 0 0 0 0 0 0 0 0 0 0 0 0 0 0 0 0 0 0 0 0 0 0 0 0 0 0 0 0 0 0 0 0 0 0 0 0 0 0 0 0 0 0 0 0 0 0 0 0 0 0 0 0 0 0 0 0 0 0 1 0 0 0 0 0 0 0 0 0 0 0 0 0 0 0 0 0 0 0 0 0 0 0 0 0 0 0 0 0 0 0 0 0 0 0 0 0 0 0 0 0 0 0 1 0 0 0 0 0 0 0 0 0 0 0 0 0 0 0 0 0 0 0 0 0 0 0 0 0 0 0 0 0 0 0 0 0 0 0 0 0 0 0 0 0 0 0 0 0 0 1 0 0 0 0 0 0 0 0 0 0 0 0 0 0 0 0 0 0 0 0 0 0 0 0 0 0 0 0 0 0 0 0 0 0 0 0 0 0 0 0 0 0 0 0 0 0 0 0 0 1 0 0 0 0 0 0 0 0 0 0 0 0 0 0 0 0 0 0 0 0 0 0 0 0 0 0 0 0 0 0 0 0 0 0 0 0 0 0 0 0 0 0 0 0 0 0 0 0 0 0 0 0 1 0 0 0 0 0 0 0 0 0 0 0 0 0 0 0 0 0 0 0 0 0 0 0 0 0 0 0 0 0 0 0 0 0 0 0 0 0 0 0 0 0 0 0 0 0 0 0 0 0 0 0 0 0 0 0 1 0 0 0 0 0 0 0 0 0 0 0 0 0 0 0 0 0 0 0 0 0 0 0 0 0 0 0 0 0 0 0 0 0 0 0 0 0 0 0 0 0 0 0 0 0 0 0 0 0 0 0 0 0 0 0 0 0 0 1 0 0 0 0 0 0 0 0 0 0 0 0 0 0 0 0 0 0 0 0 0 0 0 0 0 0 0 0 0 0 0 0 0 0 0 0 0 0 0 0 0 0 0 0 0 0 0 0 0 0 0 0 0 0 0 0 0 0 0 0 0 1 0 0 0 0 0 0 0 0 0 0 0 0 0 0 0 0 0 0 0 0 0 0 0 0 0 0 0 0 0 0 0 0 0 0 0 0 0 0 0 0 0 0 0 0 0 0 0 0 0 0 0 0 0 0 0 0 0 0 0 0 0 0 0 0 1 0 0 0 0 0 0 0 0 0 0 0 0 0 0 0 0 0 0 0 0 0 0 0 0 0 0 0 0 0 0 0 0 0 0 0 0 0 0 0 0 0 0 0 0 0 0 0 0 0 0 0 0 0 0 0 0 0 0 0 0 0 0 0 0 0 0 0 1 0 0 0 0 0 0 0 0 0 0 0 0 0 0 0 0 0 0 0 0 0 0 0 0 0 0 0 0 0 0 0 0 0 0 0 0 0 0 0 0 0 0 0 0 0 0 0 0 0 0 0 0 0 0 0 0 0 0 0 0 0 0 0 0 0 0 0 0 0 0 1 0 0 0 0 0 0 0 0 0 0 0 0 0 0 0 0 0 0 0 0 0 0 0 0 0 0 0 0 0 0 0 0 0 0 0 0 0 0 0 0 0 0 0 0 0 0 0 0 0 0 0 0 0 0 0 0 0 0 0 0 0 0 0 0 0 0 0 0 0 0 0 0 0 1 0 0 0 0 0 0 0 0 0 0 0 0 0 0 0 0 0 0 0 0 0 0 0 0 0 0 0 0 0 0 0 0 0 0 0 0 0 0 0 0 0 0 0 0 0 0 0 0 0 0 0 0 0 0 0 0 0 0 0 0 0 0 0 0 0 0 0 0 0 0 0 0 0 0 0 0 1 0 0 0 0 0 0 0 0 0 0 0 0 0 0 0 0 0 0 0 0 0 0 0 0 0 0 0 0 0 0 0 0 0 0 0 0 0 0 0 0 0 0 0 0 0 0 0 0 0 0 0 0 0 0 0 0 0 0 0 0 0 0 0 0 0 0 0 0 0 0 0 0 0 0 0 0 0 0 0 0 0 0 0 0 0 0 0 0 0 0 0 0 0 0 2 2 2 2 0 </DataArray>
</CellData>
</Piece>
</UnstructuredGrid>
</VTKFile>