<?xml version="1.0"?>
<VTKFile type="UnstructuredGrid"  version="0.1"  >
<UnstructuredGrid>
<Piece  NumberOfPoints="172" NumberOfCells="460">
<Points>
<DataArray  type="Float64"  NumberOfComponents="3"  format="ascii">1.486956521739131 0.1666666666666667 0  1.52 0.1666666666666667 0  1.52 0.2 0  1.486956521739131 0.2 0  1.55304347826087 0.2 0  1.255652173913044 0.2 0  1.288695652173913 0.2 0  1.288695652173913 0.2333333333333333 0  1.255652173913044 0.2333333333333333 0  1.321739130434783 0.2 0  1.321739130434783 0.2333333333333333 0  1.354782608695652 0.2 0  1.354782608695652 0.2333333333333333 0  1.387826086956522 0.2 0  1.387826086956522 0.2333333333333333 0  1.420869565217391 0.2 0  1.420869565217391 0.2333333333333333 0  1.453913043478261 0.2 0  1.453913043478261 0.2333333333333333 0  1.486956521739131 0.2333333333333333 0  1.52 0.2333333333333333 0  1.55304347826087 0.2333333333333333 0  1.586086956521739 0.2333333333333333 0  1.189565217391304 0.2333333333333333 0  1.222608695652174 0.2333333333333333 0  1.222608695652174 0.2666666666666667 0  1.189565217391304 0.2666666666666667 0  1.255652173913044 0.2666666666666667 0  1.288695652173913 0.2666666666666667 0  1.321739130434783 0.2666666666666667 0  1.354782608695652 0.2666666666666667 0  1.387826086956522 0.2666666666666667 0  1.420869565217391 0.2666666666666667 0  1.453913043478261 0.2666666666666667 0  1.486956521739131 0.2666666666666667 0  1.52 0.2666666666666667 0  1.55304347826087 0.2666666666666667 0  1.586086956521739 0.2666666666666667 0  1.619130434782609 0.2666666666666667 0  1.156521739130435 0.2666666666666667 0  1.189565217391304 0.3 0  1.156521739130435 0.3 0  1.222608695652174 0.3 0  1.255652173913044 0.3 0  1.288695652173913 0.3 0  1.321739130434783 0.3 0  1.354782608695652 0.3 0  1.387826086956522 0.3 0  1.420869565217391 0.3 0  1.453913043478261 0.3 0  1.486956521739131 0.3 0  1.52 0.3 0  1.55304347826087 0.3 0  1.586086956521739 0.3 0  1.619130434782609 0.3 0  1.024347826086957 0.3 0  1.057391304347826 0.3 0  1.057391304347826 0.3333333333333333 0  1.024347826086957 0.3333333333333333 0  1.090434782608696 0.3 0  1.090434782608696 0.3333333333333333 0  1.123478260869565 0.3 0  1.123478260869565 0.3333333333333333 0  1.156521739130435 0.3333333333333333 0  1.189565217391304 0.3333333333333333 0  1.222608695652174 0.3333333333333333 0  1.255652173913044 0.3333333333333333 0  1.288695652173913 0.3333333333333333 0  1.321739130434783 0.3333333333333333 0  1.354782608695652 0.3333333333333333 0  1.387826086956522 0.3333333333333333 0  1.420869565217391 0.3333333333333333 0  1.453913043478261 0.3333333333333333 0  1.486956521739131 0.3333333333333333 0  1.52 0.3333333333333333 0  1.55304347826087 0.3333333333333333 0  1.586086956521739 0.3333333333333333 0  1.619130434782609 0.3333333333333333 0  1.652173913043478 0.3333333333333333 0  1.057391304347826 0.3666666666666666 0  1.090434782608696 0.3666666666666666 0  1.123478260869565 0.3666666666666666 0  1.156521739130435 0.3666666666666666 0  1.189565217391304 0.3666666666666666 0  1.222608695652174 0.3666666666666666 0  1.255652173913044 0.3666666666666666 0  1.288695652173913 0.3666666666666666 0  1.321739130434783 0.3666666666666666 0  1.354782608695652 0.3666666666666666 0  1.387826086956522 0.3666666666666666 0  1.420869565217391 0.3666666666666666 0  1.453913043478261 0.3666666666666666 0  1.486956521739131 0.3666666666666666 0  1.52 0.3666666666666666 0  1.55304347826087 0.3666666666666666 0  1.586086956521739 0.3666666666666666 0  1.619130434782609 0.3666666666666666 0  1.652173913043478 0.3666666666666666 0  1.090434782608696 0.4 0  1.123478260869565 0.4 0  1.156521739130435 0.4 0  1.189565217391304 0.4 0  1.222608695652174 0.4 0  1.255652173913044 0.4 0  1.288695652173913 0.4 0  1.321739130434783 0.4 0  1.354782608695652 0.4 0  1.387826086956522 0.4 0  1.420869565217391 0.4 0  1.453913043478261 0.4 0  1.486956521739131 0.4 0  1.52 0.4 0  1.55304347826087 0.4 0  1.586086956521739 0.4 0  1.619130434782609 0.4 0  1.652173913043478 0.4 0  1.123478260869565 0.4333333333333333 0  1.156521739130435 0.4333333333333333 0  1.189565217391304 0.4333333333333333 0  1.222608695652174 0.4333333333333333 0  1.255652173913044 0.4333333333333333 0  1.288695652173913 0.4333333333333333 0  1.321739130434783 0.4333333333333333 0  1.354782608695652 0.4333333333333333 0  1.387826086956522 0.4333333333333333 0  1.420869565217391 0.4333333333333333 0  1.453913043478261 0.4333333333333333 0  1.486956521739131 0.4333333333333333 0  1.52 0.4333333333333333 0  1.55304347826087 0.4333333333333333 0  1.586086956521739 0.4333333333333333 0  1.619130434782609 0.4333333333333333 0  1.652173913043478 0.4333333333333333 0  1.685217391304348 0.4333333333333333 0  1.156521739130435 0.4666666666666667 0  1.123478260869565 0.4666666666666667 0  1.189565217391304 0.4666666666666667 0  1.222608695652174 0.4666666666666667 0  1.255652173913044 0.4666666666666667 0  1.288695652173913 0.4666666666666667 0  1.321739130434783 0.4666666666666667 0  1.354782608695652 0.4666666666666667 0  1.387826086956522 0.4666666666666667 0  1.420869565217391 0.4666666666666667 0  1.453913043478261 0.4666666666666667 0  1.486956521739131 0.4666666666666667 0  1.52 0.4666666666666667 0  1.55304347826087 0.4666666666666667 0  1.586086956521739 0.4666666666666667 0  1.619130434782609 0.4666666666666667 0  1.652173913043478 0.4666666666666667 0  1.685217391304348 0.4666666666666667 0  1.718260869565217 0.4666666666666667 0  1.156521739130435 0.5 0  1.189565217391304 0.5 0  1.222608695652174 0.5 0  1.255652173913044 0.5 0  1.288695652173913 0.5 0  1.321739130434783 0.5 0  1.354782608695652 0.5 0  1.387826086956522 0.5 0  1.420869565217391 0.5 0  1.453913043478261 0.5 0  1.486956521739131 0.5 0  1.52 0.5 0  1.55304347826087 0.5 0  1.586086956521739 0.5 0  1.619130434782609 0.5 0  1.652173913043478 0.5 0  1.685217391304348 0.5 0  1.718260869565217 0.5 0  1.751304347826087 0.5 0  </DataArray>
</Points>
<Cells>
<DataArray  type="UInt32"  Name="connectivity"  format="ascii">0 1  0 2  0 3  1 2  1 4  3 2  2 4  2 20  2 21  17 3  3 19  3 20  4 21  4 22  5 6  5 7  5 8  6 7  6 9  6 10  8 7  7 10  7 28  7 29  24 8  8 27  8 28  9 10  9 11  9 12  10 12  10 29  10 30  11 12  11 13  11 14  12 14  12 30  12 31  13 14  13 15  13 16  14 16  14 31  14 32  15 16  15 17  15 18  16 18  16 32  16 33  17 18  17 19  18 19  18 33  18 34  19 20  19 34  19 35  20 21  20 35  20 36  21 22  21 36  21 37  22 37  22 38  23 24  23 25  23 26  24 25  24 27  26 25  25 27  25 42  25 43  39 26  26 40  26 42  27 28  27 43  27 44  28 29  28 44  28 45  29 30  29 45  29 46  30 31  30 46  30 47  31 32  31 47  31 48  32 33  32 48  32 49  33 34  33 49  33 50  34 35  34 50  34 51  35 36  35 51  35 52  36 37  36 52  36 53  37 38  37 53  37 54  38 54  39 40  39 41  41 40  40 42  40 64  40 65  61 41  41 63  41 64  42 43  42 65  42 66  43 44  43 66  43 67  44 45  44 67  44 68  45 46  45 68  45 69  46 47  46 69  46 70  47 48  47 70  47 71  48 49  48 71  48 72  49 50  49 72  49 73  50 51  50 73  50 74  51 52  51 74  51 75  52 53  52 75  52 76  53 54  53 76  53 77  54 77  54 78  55 56  55 57  55 58  56 57  56 59  56 60  58 57  57 60  57 79  57 80  58 79  59 60  59 61  59 62  60 62  60 80  60 81  61 62  61 63  62 63  62 81  62 82  63 64  63 82  63 83  64 65  64 83  64 84  65 66  65 84  65 85  66 67  66 85  66 86  67 68  67 86  67 87  68 69  68 87  68 88  69 70  69 88  69 89  70 71  70 89  70 90  71 72  71 90  71 91  72 73  72 91  72 92  73 74  73 92  73 93  74 75  74 93  74 94  75 76  75 94  75 95  76 77  76 95  76 96  77 78  77 96  77 97  78 97  79 80  79 98  80 81  80 98  80 99  81 82  81 99  81 100  82 83  82 100  82 101  83 84  83 101  83 102  84 85  84 102  84 103  85 86  85 103  85 104  86 87  86 104  86 105  87 88  87 105  87 106  88 89  88 106  88 107  89 90  89 107  89 108  90 91  90 108  90 109  91 92  91 109  91 110  92 93  92 110  92 111  93 94  93 111  93 112  94 95  94 112  94 113  95 96  95 113  95 114  96 97  96 114  96 115  97 115  98 99  98 116  99 100  99 116  99 117  100 101  100 117  100 118  101 102  101 118  101 119  102 103  102 119  102 120  103 104  103 120  103 121  104 105  104 121  104 122  105 106  105 122  105 123  106 107  106 123  106 124  107 108  107 124  107 125  108 109  108 125  108 126  109 110  109 126  109 127  110 111  110 127  110 128  111 112  111 128  111 129  112 113  112 129  112 130  113 114  113 130  113 131  114 115  114 131  114 132  115 132  115 133  116 117  116 134  116 135  117 118  117 134  117 136  118 119  118 136  118 137  119 120  119 137  119 138  120 121  120 138  120 139  121 122  121 139  121 140  122 123  122 140  122 141  123 124  123 141  123 142  124 125  124 142  124 143  125 126  125 143  125 144  126 127  126 144  126 145  127 128  127 145  127 146  128 129  128 146  128 147  129 130  129 147  129 148  130 131  130 148  130 149  131 132  131 149  131 150  132 133  132 150  132 151  133 151  133 152  135 134  134 136  134 153  134 154  135 153  136 137  136 154  136 155  137 138  137 155  137 156  138 139  138 156  138 157  139 140  139 157  139 158  140 141  140 158  140 159  141 142  141 159  141 160  142 143  142 160  142 161  143 144  143 161  143 162  144 145  144 162  144 163  145 146  145 163  145 164  146 147  146 164  146 165  147 148  147 165  147 166  148 149  148 166  148 167  149 150  149 167  149 168  150 151  150 168  150 169  151 152  151 169  151 170  152 170  152 171  153 154  154 155  155 156  156 157  157 158  158 159  159 160  160 161  161 162  162 163  163 164  164 165  165 166  166 167  167 168  168 169  169 170  170 171  </DataArray>
<DataArray  type="UInt32"  Name="offsets"  format="ascii">2 4 6 8 10 12 14 16 18 20 22 24 26 28 30 32 34 36 38 40 42 44 46 48 50 52 54 56 58 60 62 64 66 68 70 72 74 76 78 80 82 84 86 88 90 92 94 96 98 100 102 104 106 108 110 112 114 116 118 120 122 124 126 128 130 132 134 136 138 140 142 144 146 148 150 152 154 156 158 160 162 164 166 168 170 172 174 176 178 180 182 184 186 188 190 192 194 196 198 200 202 204 206 208 210 212 214 216 218 220 222 224 226 228 230 232 234 236 238 240 242 244 246 248 250 252 254 256 258 260 262 264 266 268 270 272 274 276 278 280 282 284 286 288 290 292 294 296 298 300 302 304 306 308 310 312 314 316 318 320 322 324 326 328 330 332 334 336 338 340 342 344 346 348 350 352 354 356 358 360 362 364 366 368 370 372 374 376 378 380 382 384 386 388 390 392 394 396 398 400 402 404 406 408 410 412 414 416 418 420 422 424 426 428 430 432 434 436 438 440 442 444 446 448 450 452 454 456 458 460 462 464 466 468 470 472 474 476 478 480 482 484 486 488 490 492 494 496 498 500 502 504 506 508 510 512 514 516 518 520 522 524 526 528 530 532 534 536 538 540 542 544 546 548 550 552 554 556 558 560 562 564 566 568 570 572 574 576 578 580 582 584 586 588 590 592 594 596 598 600 602 604 606 608 610 612 614 616 618 620 622 624 626 628 630 632 634 636 638 640 642 644 646 648 650 652 654 656 658 660 662 664 666 668 670 672 674 676 678 680 682 684 686 688 690 692 694 696 698 700 702 704 706 708 710 712 714 716 718 720 722 724 726 728 730 732 734 736 738 740 742 744 746 748 750 752 754 756 758 760 762 764 766 768 770 772 774 776 778 780 782 784 786 788 790 792 794 796 798 800 802 804 806 808 810 812 814 816 818 820 822 824 826 828 830 832 834 836 838 840 842 844 846 848 850 852 854 856 858 860 862 864 866 868 870 872 874 876 878 880 882 884 886 888 890 892 894 896 898 900 902 904 906 908 910 912 914 916 918 920 </DataArray>
<DataArray  type="UInt8"  Name="types"  format="ascii">3 3 3 3 3 3 3 3 3 3 3 3 3 3 3 3 3 3 3 3 3 3 3 3 3 3 3 3 3 3 3 3 3 3 3 3 3 3 3 3 3 3 3 3 3 3 3 3 3 3 3 3 3 3 3 3 3 3 3 3 3 3 3 3 3 3 3 3 3 3 3 3 3 3 3 3 3 3 3 3 3 3 3 3 3 3 3 3 3 3 3 3 3 3 3 3 3 3 3 3 3 3 3 3 3 3 3 3 3 3 3 3 3 3 3 3 3 3 3 3 3 3 3 3 3 3 3 3 3 3 3 3 3 3 3 3 3 3 3 3 3 3 3 3 3 3 3 3 3 3 3 3 3 3 3 3 3 3 3 3 3 3 3 3 3 3 3 3 3 3 3 3 3 3 3 3 3 3 3 3 3 3 3 3 3 3 3 3 3 3 3 3 3 3 3 3 3 3 3 3 3 3 3 3 3 3 3 3 3 3 3 3 3 3 3 3 3 3 3 3 3 3 3 3 3 3 3 3 3 3 3 3 3 3 3 3 3 3 3 3 3 3 3 3 3 3 3 3 3 3 3 3 3 3 3 3 3 3 3 3 3 3 3 3 3 3 3 3 3 3 3 3 3 3 3 3 3 3 3 3 3 3 3 3 3 3 3 3 3 3 3 3 3 3 3 3 3 3 3 3 3 3 3 3 3 3 3 3 3 3 3 3 3 3 3 3 3 3 3 3 3 3 3 3 3 3 3 3 3 3 3 3 3 3 3 3 3 3 3 3 3 3 3 3 3 3 3 3 3 3 3 3 3 3 3 3 3 3 3 3 3 3 3 3 3 3 3 3 3 3 3 3 3 3 3 3 3 3 3 3 3 3 3 3 3 3 3 3 3 3 3 3 3 3 3 3 3 3 3 3 3 3 3 3 3 3 3 3 3 3 3 3 3 3 3 3 3 3 3 3 3 3 3 3 3 3 3 3 3 3 3 3 3 3 3 3 3 3 3 3 3 3 3 3 3 3 3 3 3 3 3 3 3 3 3 3 3 3 3 3 </DataArray>
</Cells>
<CellData  Scalars="f">
<DataArray  type="Float64"  Name="f"  format="ascii">0 0 0 0 0 0 0 0 0 0 0 0 0 0 0 0 0 0 0 0 0 0 0 0 0 0 0 0 0 0 0 0 0 0 0 0 0 0 0 0 0 0 0 0 0 0 0 0 0 0 0 0 0 0 0 0 0 0 0 0 0 0 0 0 0 0 0 0 0 0 0 0 0 0 0 0 0 0 0 0 0 0 0 0 0 0 0 0 0 0 0 0 0 0 0 0 0 0 0 0 0 0 0 0 0 0 0 0 0 0 0 0 0 0 0 0 0 0 0 0 0 0 0 0 0 0 0 0 0 0 0 0 0 0 0 0 0 0 0 0 0 0 0 0 0 0 0 0 0 0 0 0 0 0 0 0 0 0 0 0 0 0 0 0 0 0 0 0 0 0 0 0 0 0 0 0 0 0 0 0 0 0 0 0 0 0 0 0 0 0 0 0 0 0 0 0 0 0 0 0 0 0 0 0 0 0 0 0 0 0 0 0 0 0 0 0 0 0 0 0 0 0 0 0 0 0 0 0 0 0 0 0 0 0 0 0 0 0 0 0 0 0 0 0 0 0 0 0 0 0 0 0 0 0 0 0 0 0 0 0 0 0 0 0 0 0 0 0 0 0 0 0 0 0 0 0 0 0 0 0 0 0 0 0 0 0 0 0 0 0 0 0 0 0 0 0 0 0 0 0 0 0 0 0 0 0 0 0 0 0 0 0 0 0 0 0 0 0 0 0 0 0 0 0 0 0 0 0 0 0 0 0 0 0 0 0 0 0 0 0 0 0 0 0 0 0 0 0 0 0 0 0 0 0 0 0 0 0 0 0 0 0 0 0 0 0 0 0 0 0 0 0 0 0 0 0 0 0 0 0 0 0 0 0 0 0 0 0 0 0 0 0 0 0 0 0 0 0 0 0 0 0 0 0 0 0 0 0 0 0 0 0 0 0 0 0 0 0 0 0 0 0 0 0 0 0 0 0 0 0 0 0 0 0 0 0 0 0 0 0 0 0 0 0 0 0 0 0 0 0 0 0 0 0 0 0 0 0 0 0 </DataArray>
</CellData>
</Piece>
</UnstructuredGrid>
</VTKFile>