<?xml version="1.0"?>
<VTKFile type="UnstructuredGrid"  version="0.1"  >
<UnstructuredGrid>
<Piece  NumberOfPoints="173" NumberOfCells="460">
<Points>
<DataArray  type="Float64"  NumberOfComponents="3"  format="ascii">0.7599999999999999 0 0  0.7930434782608695 0 0  0.7930434782608695 0.03333333333333333 0  0.7599999999999999 0.03333333333333333 0  0.8260869565217391 0 0  0.8260869565217391 0.03333333333333333 0  0.8591304347826086 0 0  0.8591304347826086 0.03333333333333333 0  0.8921739130434783 0 0  0.8921739130434783 0.03333333333333333 0  0.9252173913043478 0 0  0.9252173913043478 0.03333333333333333 0  0.9582608695652173 0 0  0.9582608695652173 0.03333333333333333 0  0.991304347826087 0 0  0.991304347826087 0.03333333333333333 0  1.024347826086957 0 0  1.024347826086957 0.03333333333333333 0  1.057391304347826 0 0  1.057391304347826 0.03333333333333333 0  1.090434782608696 0 0  1.090434782608696 0.03333333333333333 0  1.123478260869565 0 0  1.123478260869565 0.03333333333333333 0  1.156521739130435 0 0  1.156521739130435 0.03333333333333333 0  1.189565217391304 0 0  1.189565217391304 0.03333333333333333 0  1.222608695652174 0 0  1.222608695652174 0.03333333333333333 0  1.255652173913044 0 0  1.255652173913044 0.03333333333333333 0  1.288695652173913 0 0  1.288695652173913 0.03333333333333333 0  1.321739130434783 0 0  1.321739130434783 0.03333333333333333 0  1.354782608695652 0 0  1.354782608695652 0.03333333333333333 0  1.387826086956522 0 0  1.387826086956522 0.03333333333333333 0  1.420869565217391 0 0  1.420869565217391 0.03333333333333333 0  1.453913043478261 0 0  1.453913043478261 0.03333333333333333 0  0.7930434782608695 0.06666666666666667 0  0.8260869565217391 0.06666666666666667 0  0.8591304347826086 0.06666666666666667 0  0.8921739130434783 0.06666666666666667 0  0.9252173913043478 0.06666666666666667 0  0.9582608695652173 0.06666666666666667 0  0.991304347826087 0.06666666666666667 0  1.024347826086957 0.06666666666666667 0  1.057391304347826 0.06666666666666667 0  1.090434782608696 0.06666666666666667 0  1.123478260869565 0.06666666666666667 0  1.156521739130435 0.06666666666666667 0  1.189565217391304 0.06666666666666667 0  1.222608695652174 0.06666666666666667 0  1.255652173913044 0.06666666666666667 0  1.288695652173913 0.06666666666666667 0  1.321739130434783 0.06666666666666667 0  1.354782608695652 0.06666666666666667 0  1.387826086956522 0.06666666666666667 0  1.420869565217391 0.06666666666666667 0  1.453913043478261 0.06666666666666667 0  0.8260869565217391 0.1 0  0.8591304347826086 0.1 0  0.8921739130434783 0.1 0  0.9252173913043478 0.1 0  0.9582608695652173 0.1 0  0.991304347826087 0.1 0  1.024347826086957 0.1 0  1.057391304347826 0.1 0  1.090434782608696 0.1 0  1.123478260869565 0.1 0  1.156521739130435 0.1 0  1.189565217391304 0.1 0  1.222608695652174 0.1 0  1.255652173913044 0.1 0  1.288695652173913 0.1 0  1.321739130434783 0.1 0  1.354782608695652 0.1 0  1.387826086956522 0.1 0  1.420869565217391 0.1 0  1.453913043478261 0.1 0  1.486956521739131 0.1 0  0.8591304347826086 0.1333333333333333 0  0.8260869565217391 0.1333333333333333 0  0.8921739130434783 0.1333333333333333 0  0.9252173913043478 0.1333333333333333 0  0.9582608695652173 0.1333333333333333 0  0.991304347826087 0.1333333333333333 0  1.024347826086957 0.1333333333333333 0  1.057391304347826 0.1333333333333333 0  1.090434782608696 0.1333333333333333 0  1.123478260869565 0.1333333333333333 0  1.156521739130435 0.1333333333333333 0  1.189565217391304 0.1333333333333333 0  1.222608695652174 0.1333333333333333 0  1.255652173913044 0.1333333333333333 0  1.288695652173913 0.1333333333333333 0  1.321739130434783 0.1333333333333333 0  1.354782608695652 0.1333333333333333 0  1.387826086956522 0.1333333333333333 0  1.420869565217391 0.1333333333333333 0  1.453913043478261 0.1333333333333333 0  1.486956521739131 0.1333333333333333 0  0.8591304347826086 0.1666666666666667 0  0.8921739130434783 0.1666666666666667 0  0.9252173913043478 0.1666666666666667 0  0.9582608695652173 0.1666666666666667 0  0.991304347826087 0.1666666666666667 0  1.024347826086957 0.1666666666666667 0  1.057391304347826 0.1666666666666667 0  1.090434782608696 0.1666666666666667 0  1.123478260869565 0.1666666666666667 0  1.156521739130435 0.1666666666666667 0  1.189565217391304 0.1666666666666667 0  1.222608695652174 0.1666666666666667 0  1.255652173913044 0.1666666666666667 0  1.288695652173913 0.1666666666666667 0  1.321739130434783 0.1666666666666667 0  1.354782608695652 0.1666666666666667 0  1.387826086956522 0.1666666666666667 0  1.420869565217391 0.1666666666666667 0  1.453913043478261 0.1666666666666667 0  1.486956521739131 0.1666666666666667 0  1.52 0.1666666666666667 0  0.8921739130434783 0.2 0  0.9252173913043478 0.2 0  0.9582608695652173 0.2 0  0.991304347826087 0.2 0  1.024347826086957 0.2 0  1.057391304347826 0.2 0  1.090434782608696 0.2 0  1.123478260869565 0.2 0  1.156521739130435 0.2 0  1.189565217391304 0.2 0  1.222608695652174 0.2 0  1.255652173913044 0.2 0  1.288695652173913 0.2 0  1.321739130434783 0.2 0  1.354782608695652 0.2 0  1.387826086956522 0.2 0  1.420869565217391 0.2 0  1.453913043478261 0.2 0  1.486956521739131 0.2 0  0.9252173913043478 0.2333333333333333 0  0.9582608695652173 0.2333333333333333 0  0.991304347826087 0.2333333333333333 0  1.024347826086957 0.2333333333333333 0  1.057391304347826 0.2333333333333333 0  1.090434782608696 0.2333333333333333 0  1.123478260869565 0.2333333333333333 0  1.156521739130435 0.2333333333333333 0  1.189565217391304 0.2333333333333333 0  1.222608695652174 0.2333333333333333 0  1.255652173913044 0.2333333333333333 0  0.9582608695652173 0.2666666666666667 0  0.991304347826087 0.2666666666666667 0  1.024347826086957 0.2666666666666667 0  1.057391304347826 0.2666666666666667 0  1.090434782608696 0.2666666666666667 0  1.123478260869565 0.2666666666666667 0  1.156521739130435 0.2666666666666667 0  1.189565217391304 0.2666666666666667 0  0.991304347826087 0.3 0  1.024347826086957 0.3 0  1.057391304347826 0.3 0  1.090434782608696 0.3 0  1.123478260869565 0.3 0  1.156521739130435 0.3 0  1.024347826086957 0.3333333333333333 0  </DataArray>
</Points>
<Cells>
<DataArray  type="UInt32"  Name="connectivity"  format="ascii">0 1  0 2  0 3  1 2  1 4  1 5  3 2  2 5  2 44  2 45  3 44  4 5  4 6  4 7  5 7  5 45  5 46  6 7  6 8  6 9  7 9  7 46  7 47  8 9  8 10  8 11  9 11  9 47  9 48  10 11  10 12  10 13  11 13  11 48  11 49  12 13  12 14  12 15  13 15  13 49  13 50  14 15  14 16  14 17  15 17  15 50  15 51  16 17  16 18  16 19  17 19  17 51  17 52  18 19  18 20  18 21  19 21  19 52  19 53  20 21  20 22  20 23  21 23  21 53  21 54  22 23  22 24  22 25  23 25  23 54  23 55  24 25  24 26  24 27  25 27  25 55  25 56  26 27  26 28  26 29  27 29  27 56  27 57  28 29  28 30  28 31  29 31  29 57  29 58  30 31  30 32  30 33  31 33  31 58  31 59  32 33  32 34  32 35  33 35  33 59  33 60  34 35  34 36  34 37  35 37  35 60  35 61  36 37  36 38  36 39  37 39  37 61  37 62  38 39  38 40  38 41  39 41  39 62  39 63  40 41  40 42  40 43  41 43  41 63  41 64  42 43  43 64  44 45  44 65  45 46  45 65  45 66  46 47  46 66  46 67  47 48  47 67  47 68  48 49  48 68  48 69  49 50  49 69  49 70  50 51  50 70  50 71  51 52  51 71  51 72  52 53  52 72  52 73  53 54  53 73  53 74  54 55  54 74  54 75  55 56  55 75  55 76  56 57  56 76  56 77  57 58  57 77  57 78  58 59  58 78  58 79  59 60  59 79  59 80  60 61  60 80  60 81  61 62  61 81  61 82  62 63  62 82  62 83  63 64  63 83  63 84  64 84  64 85  65 66  65 86  65 87  66 67  66 86  66 88  67 68  67 88  67 89  68 69  68 89  68 90  69 70  69 90  69 91  70 71  70 91  70 92  71 72  71 92  71 93  72 73  72 93  72 94  73 74  73 94  73 95  74 75  74 95  74 96  75 76  75 96  75 97  76 77  76 97  76 98  77 78  77 98  77 99  78 79  78 99  78 100  79 80  79 100  79 101  80 81  80 101  80 102  81 82  81 102  81 103  82 83  82 103  82 104  83 84  83 104  83 105  84 85  84 105  84 106  85 106  87 86  86 88  86 107  86 108  87 107  88 89  88 108  88 109  89 90  89 109  89 110  90 91  90 110  90 111  91 92  91 111  91 112  92 93  92 112  92 113  93 94  93 113  93 114  94 95  94 114  94 115  95 96  95 115  95 116  96 97  96 116  96 117  97 98  97 117  97 118  98 99  98 118  98 119  99 100  99 119  99 120  100 101  100 120  100 121  101 102  101 121  101 122  102 103  102 122  102 123  103 104  103 123  103 124  104 105  104 124  104 125  105 106  105 125  105 126  106 126  106 127  107 108  107 128  108 109  108 128  108 129  109 110  109 129  109 130  110 111  110 130  110 131  111 112  111 131  111 132  112 113  112 132  112 133  113 114  113 133  113 134  114 115  114 134  114 135  115 116  115 135  115 136  116 117  116 136  116 137  117 118  117 137  117 138  118 119  118 138  118 139  119 120  119 139  119 140  120 121  120 140  120 141  121 122  121 141  121 142  122 123  122 142  122 143  123 124  123 143  123 144  124 125  124 144  124 145  125 126  125 145  125 146  126 127  126 146  128 129  128 147  129 130  129 147  129 148  130 131  130 148  130 149  131 132  131 149  131 150  132 133  132 150  132 151  133 134  133 151  133 152  134 135  134 152  134 153  135 136  135 153  135 154  136 137  136 154  136 155  137 138  137 155  137 156  138 139  138 156  138 157  139 140  139 157  140 141  141 142  142 143  143 144  144 145  145 146  147 148  147 158  148 149  148 158  148 159  149 150  149 159  149 160  150 151  150 160  150 161  151 152  151 161  151 162  152 153  152 162  152 163  153 154  153 163  153 164  154 155  154 164  154 165  155 156  155 165  156 157  158 159  158 166  159 160  159 166  159 167  160 161  160 167  160 168  161 162  161 168  161 169  162 163  162 169  162 170  163 164  163 170  163 171  164 165  164 171  166 167  166 172  167 168  167 172  168 169  169 170  170 171  </DataArray>
<DataArray  type="UInt32"  Name="offsets"  format="ascii">2 4 6 8 10 12 14 16 18 20 22 24 26 28 30 32 34 36 38 40 42 44 46 48 50 52 54 56 58 60 62 64 66 68 70 72 74 76 78 80 82 84 86 88 90 92 94 96 98 100 102 104 106 108 110 112 114 116 118 120 122 124 126 128 130 132 134 136 138 140 142 144 146 148 150 152 154 156 158 160 162 164 166 168 170 172 174 176 178 180 182 184 186 188 190 192 194 196 198 200 202 204 206 208 210 212 214 216 218 220 222 224 226 228 230 232 234 236 238 240 242 244 246 248 250 252 254 256 258 260 262 264 266 268 270 272 274 276 278 280 282 284 286 288 290 292 294 296 298 300 302 304 306 308 310 312 314 316 318 320 322 324 326 328 330 332 334 336 338 340 342 344 346 348 350 352 354 356 358 360 362 364 366 368 370 372 374 376 378 380 382 384 386 388 390 392 394 396 398 400 402 404 406 408 410 412 414 416 418 420 422 424 426 428 430 432 434 436 438 440 442 444 446 448 450 452 454 456 458 460 462 464 466 468 470 472 474 476 478 480 482 484 486 488 490 492 494 496 498 500 502 504 506 508 510 512 514 516 518 520 522 524 526 528 530 532 534 536 538 540 542 544 546 548 550 552 554 556 558 560 562 564 566 568 570 572 574 576 578 580 582 584 586 588 590 592 594 596 598 600 602 604 606 608 610 612 614 616 618 620 622 624 626 628 630 632 634 636 638 640 642 644 646 648 650 652 654 656 658 660 662 664 666 668 670 672 674 676 678 680 682 684 686 688 690 692 694 696 698 700 702 704 706 708 710 712 714 716 718 720 722 724 726 728 730 732 734 736 738 740 742 744 746 748 750 752 754 756 758 760 762 764 766 768 770 772 774 776 778 780 782 784 786 788 790 792 794 796 798 800 802 804 806 808 810 812 814 816 818 820 822 824 826 828 830 832 834 836 838 840 842 844 846 848 850 852 854 856 858 860 862 864 866 868 870 872 874 876 878 880 882 884 886 888 890 892 894 896 898 900 902 904 906 908 910 912 914 916 918 920 </DataArray>
<DataArray  type="UInt8"  Name="types"  format="ascii">3 3 3 3 3 3 3 3 3 3 3 3 3 3 3 3 3 3 3 3 3 3 3 3 3 3 3 3 3 3 3 3 3 3 3 3 3 3 3 3 3 3 3 3 3 3 3 3 3 3 3 3 3 3 3 3 3 3 3 3 3 3 3 3 3 3 3 3 3 3 3 3 3 3 3 3 3 3 3 3 3 3 3 3 3 3 3 3 3 3 3 3 3 3 3 3 3 3 3 3 3 3 3 3 3 3 3 3 3 3 3 3 3 3 3 3 3 3 3 3 3 3 3 3 3 3 3 3 3 3 3 3 3 3 3 3 3 3 3 3 3 3 3 3 3 3 3 3 3 3 3 3 3 3 3 3 3 3 3 3 3 3 3 3 3 3 3 3 3 3 3 3 3 3 3 3 3 3 3 3 3 3 3 3 3 3 3 3 3 3 3 3 3 3 3 3 3 3 3 3 3 3 3 3 3 3 3 3 3 3 3 3 3 3 3 3 3 3 3 3 3 3 3 3 3 3 3 3 3 3 3 3 3 3 3 3 3 3 3 3 3 3 3 3 3 3 3 3 3 3 3 3 3 3 3 3 3 3 3 3 3 3 3 3 3 3 3 3 3 3 3 3 3 3 3 3 3 3 3 3 3 3 3 3 3 3 3 3 3 3 3 3 3 3 3 3 3 3 3 3 3 3 3 3 3 3 3 3 3 3 3 3 3 3 3 3 3 3 3 3 3 3 3 3 3 3 3 3 3 3 3 3 3 3 3 3 3 3 3 3 3 3 3 3 3 3 3 3 3 3 3 3 3 3 3 3 3 3 3 3 3 3 3 3 3 3 3 3 3 3 3 3 3 3 3 3 3 3 3 3 3 3 3 3 3 3 3 3 3 3 3 3 3 3 3 3 3 3 3 3 3 3 3 3 3 3 3 3 3 3 3 3 3 3 3 3 3 3 3 3 3 3 3 3 3 3 3 3 3 3 3 3 3 3 3 3 3 3 3 3 3 3 3 3 3 3 3 3 3 3 3 3 3 3 3 3 3 3 3 3 </DataArray>
</Cells>
<CellData  Scalars="f">
<DataArray  type="Float64"  Name="f"  format="ascii">0 0 0 0 0 0 0 0 0 0 0 0 0 0 0 0 0 0 0 0 0 0 0 0 0 0 0 0 0 0 0 0 0 0 0 0 0 0 0 0 0 0 0 0 0 0 0 0 0 0 0 0 0 0 0 0 0 0 0 0 0 0 0 0 0 0 0 0 0 0 0 0 0 0 0 0 0 0 0 0 0 0 0 0 0 0 0 0 0 0 0 0 0 0 0 0 0 0 0 0 0 0 0 0 0 0 0 0 0 0 0 0 0 0 0 0 0 0 0 0 0 0 0 0 0 0 0 0 0 0 0 0 0 0 0 0 0 0 0 0 0 0 0 0 0 0 0 0 0 0 0 0 0 0 0 0 0 0 0 0 0 0 0 0 0 0 0 0 0 0 0 0 0 0 0 0 0 0 0 0 0 0 0 0 0 0 0 0 0 0 0 0 0 0 0 0 0 0 0 0 0 0 0 0 0 0 0 0 0 0 0 0 0 0 0 0 0 0 0 0 0 0 0 0 0 0 0 0 0 0 0 0 0 0 0 0 0 0 0 0 0 0 0 0 0 0 0 0 0 0 0 0 0 0 0 0 0 0 0 0 0 0 0 0 0 0 0 0 0 0 0 0 0 0 0 0 0 0 0 0 0 0 0 0 0 0 0 0 0 0 0 0 0 0 0 0 0 0 0 0 0 0 0 0 0 0 0 0 0 0 0 0 0 0 0 0 0 0 0 0 0 0 0 0 0 0 0 0 0 0 0 0 0 0 0 0 0 0 0 0 0 0 0 0 0 0 0 0 0 0 0 0 0 0 0 0 0 0 0 0 0 0 0 0 0 0 0 0 0 0 0 0 0 0 0 0 0 0 0 0 0 0 0 0 0 0 0 0 0 0 0 0 0 0 0 0 0 0 0 0 0 0 0 0 0 0 0 0 0 0 0 0 0 0 0 0 0 0 0 0 0 0 0 0 0 0 0 0 0 0 0 0 0 0 0 0 0 0 0 0 0 0 0 0 0 0 0 0 0 0 0 0 0 0 0 0 0 0 0 0 </DataArray>
</CellData>
</Piece>
</UnstructuredGrid>
</VTKFile>