<?xml version="1.0"?>
<VTKFile type="UnstructuredGrid"  version="0.1"  >
<UnstructuredGrid>
<Piece  NumberOfPoints="7161" NumberOfCells="13800">
<Points>
<DataArray  type="Float64"  NumberOfComponents="3"  format="ascii">0 0 0  0.01652173913043478 0 0  0.03304347826086956 0 0  0.04956521739130434 0 0  0.06608695652173913 0 0  0.08260869565217391 0 0  0.09913043478260869 0 0  0.1156521739130435 0 0  0.1321739130434783 0 0  0.148695652173913 0 0  0.1652173913043478 0 0  0.1817391304347826 0 0  0.1982608695652174 0 0  0.2147826086956522 0 0  0.2313043478260869 0 0  0.2478260869565218 0 0  0.2643478260869565 0 0  0.2808695652173913 0 0  0.2973913043478261 0 0  0.3139130434782609 0 0  0.3304347826086956 0 0  0.3469565217391304 0 0  0.3634782608695652 0 0  0.3799999999999999 0 0  0.3965217391304348 0 0  0.4130434782608696 0 0  0.4295652173913043 0 0  0.4460869565217391 0 0  0.4626086956521739 0 0  0.4791304347826086 0 0  0.4956521739130435 0 0  0.5121739130434783 0 0  0.528695652173913 0 0  0.5452173913043478 0 0  0.5617391304347825 0 0  0.5782608695652174 0 0  0.5947826086956521 0 0  0.6113043478260869 0 0  0.6278260869565218 0 0  0.6443478260869565 0 0  0.6608695652173913 0 0  0.677391304347826 0 0  0.6939130434782609 0 0  0.7104347826086956 0 0  0.7269565217391304 0 0  0.7434782608695653 0 0  0.7599999999999999 0 0  0.7765217391304348 0 0  0.7930434782608695 0 0  0.8095652173913043 0 0  0.8260869565217391 0 0  0.8426086956521739 0 0  0.8591304347826086 0 0  0.8756521739130434 0 0  0.8921739130434783 0 0  0.908695652173913 0 0  0.9252173913043478 0 0  0.9417391304347826 0 0  0.9582608695652173 0 0  0.9747826086956521 0 0  0.991304347826087 0 0  1.007826086956522 0 0  1.024347826086957 0 0  1.040869565217391 0 0  1.057391304347826 0 0  1.073913043478261 0 0  1.090434782608696 0 0  1.10695652173913 0 0  1.123478260869565 0 0  1.14 0 0  1.156521739130435 0 0  1.17304347826087 0 0  1.189565217391304 0 0  1.206086956521739 0 0  1.222608695652174 0 0  1.239130434782609 0 0  1.255652173913044 0 0  1.272173913043478 0 0  1.288695652173913 0 0  1.305217391304348 0 0  1.321739130434783 0 0  1.338260869565217 0 0  1.354782608695652 0 0  1.371304347826087 0 0  1.387826086956522 0 0  1.404347826086957 0 0  1.420869565217391 0 0  1.437391304347826 0 0  1.453913043478261 0 0  1.470434782608696 0 0  1.486956521739131 0 0  1.503478260869565 0 0  1.52 0 0  1.536521739130435 0 0  1.55304347826087 0 0  1.569565217391304 0 0  1.586086956521739 0 0  1.602608695652174 0 0  1.619130434782609 0 0  1.635652173913043 0 0  1.652173913043478 0 0  1.668695652173913 0 0  1.685217391304348 0 0  1.701739130434782 0 0  1.718260869565217 0 0  1.734782608695652 0 0  1.751304347826087 0 0  1.767826086956522 0 0  1.784347826086957 0 0  1.800869565217391 0 0  1.817391304347826 0 0  1.833913043478261 0 0  1.850434782608696 0 0  1.86695652173913 0 0  1.883478260869565 0 0  1.9 0 0  1.916521739130435 0 0  1.933043478260869 0 0  1.949565217391304 0 0  1.966086956521739 0 0  1.982608695652174 0 0  1.999130434782608 0 0  2.015652173913043 0 0  2.032173913043478 0 0  2.048695652173913 0 0  2.065217391304348 0 0  2.081739130434782 0 0  2.098260869565217 0 0  2.114782608695652 0 0  2.131304347826087 0 0  2.147826086956522 0 0  2.164347826086956 0 0  2.180869565217391 0 0  2.197391304347826 0 0  2.213913043478261 0 0  2.230434782608695 0 0  2.24695652173913 0 0  2.263478260869565 0 0  2.28 0 0  2.296521739130434 0 0  2.31304347826087 0 0  2.329565217391304 0 0  2.346086956521739 0 0  2.362608695652174 0 0  2.379130434782609 0 0  2.395652173913044 0 0  2.412173913043478 0 0  2.428695652173913 0 0  2.445217391304348 0 0  2.461739130434782 0 0  2.478260869565217 0 0  2.494782608695652 0 0  2.511304347826087 0 0  2.527826086956522 0 0  2.544347826086956 0 0  2.560869565217391 0 0  2.577391304347826 0 0  2.593913043478261 0 0  2.610434782608696 0 0  2.62695652173913 0 0  2.643478260869565 0 0  2.66 0 0  2.676521739130435 0 0  2.693043478260869 0 0  2.709565217391304 0 0  2.726086956521739 0 0  2.742608695652174 0 0  2.759130434782609 0 0  2.775652173913044 0 0  2.792173913043478 0 0  2.808695652173913 0 0  2.825217391304347 0 0  2.841739130434783 0 0  2.858260869565217 0 0  2.874782608695652 0 0  2.891304347826087 0 0  2.907826086956522 0 0  2.924347826086957 0 0  2.940869565217391 0 0  2.957391304347826 0 0  2.973913043478261 0 0  2.990434782608696 0 0  3.006956521739131 0 0  3.023478260869565 0 0  3.04 0 0  3.056521739130435 0 0  3.073043478260869 0 0  3.089565217391304 0 0  3.106086956521739 0 0  3.122608695652174 0 0  3.139130434782609 0 0  3.155652173913043 0 0  3.172173913043478 0 0  3.188695652173913 0 0  3.205217391304347 0 0  3.221739130434782 0 0  3.238260869565217 0 0  3.254782608695652 0 0  3.271304347826087 0 0  3.287826086956521 0 0  3.304347826086957 0 0  3.320869565217391 0 0  3.337391304347826 0 0  3.353913043478261 0 0  3.370434782608696 0 0  3.386956521739131 0 0  3.403478260869565 0 0  3.419999999999999 0 0  3.436521739130435 0 0  3.453043478260869 0 0  3.469565217391304 0 0  3.486086956521739 0 0  3.502608695652174 0 0  3.519130434782609 0 0  3.535652173913043 0 0  3.552173913043478 0 0  3.568695652173913 0 0  3.585217391304347 0 0  3.601739130434782 0 0  3.618260869565217 0 0  3.634782608695652 0 0  3.651304347826087 0 0  3.667826086956521 0 0  3.684347826086956 0 0  3.700869565217391 0 0  3.717391304347826 0 0  3.733913043478261 0 0  3.750434782608695 0 0  3.766956521739131 0 0  3.783478260869565 0 0  3.8 0 0  0 0.01666666666666667 0  0.01652173913043478 0.01666666666666667 0  0.03304347826086956 0.01666666666666667 0  0.04956521739130434 0.01666666666666667 0  0.06608695652173913 0.01666666666666667 0  0.08260869565217391 0.01666666666666667 0  0.09913043478260869 0.01666666666666667 0  0.1156521739130435 0.01666666666666667 0  0.1321739130434783 0.01666666666666667 0  0.148695652173913 0.01666666666666667 0  0.1652173913043478 0.01666666666666667 0  0.1817391304347826 0.01666666666666667 0  0.1982608695652174 0.01666666666666667 0  0.2147826086956522 0.01666666666666667 0  0.2313043478260869 0.01666666666666667 0  0.2478260869565218 0.01666666666666667 0  0.2643478260869565 0.01666666666666667 0  0.2808695652173913 0.01666666666666667 0  0.2973913043478261 0.01666666666666667 0  0.3139130434782609 0.01666666666666667 0  0.3304347826086956 0.01666666666666667 0  0.3469565217391304 0.01666666666666667 0  0.3634782608695652 0.01666666666666667 0  0.3799999999999999 0.01666666666666667 0  0.3965217391304348 0.01666666666666667 0  0.4130434782608696 0.01666666666666667 0  0.4295652173913043 0.01666666666666667 0  0.4460869565217391 0.01666666666666667 0  0.4626086956521739 0.01666666666666667 0  0.4791304347826086 0.01666666666666667 0  0.4956521739130435 0.01666666666666667 0  0.5121739130434783 0.01666666666666667 0  0.528695652173913 0.01666666666666667 0  0.5452173913043478 0.01666666666666667 0  0.5617391304347825 0.01666666666666667 0  0.5782608695652174 0.01666666666666667 0  0.5947826086956521 0.01666666666666667 0  0.6113043478260869 0.01666666666666667 0  0.6278260869565218 0.01666666666666667 0  0.6443478260869565 0.01666666666666667 0  0.6608695652173913 0.01666666666666667 0  0.677391304347826 0.01666666666666667 0  0.6939130434782609 0.01666666666666667 0  0.7104347826086956 0.01666666666666667 0  0.7269565217391304 0.01666666666666667 0  0.7434782608695653 0.01666666666666667 0  0.7599999999999999 0.01666666666666667 0  0.7765217391304348 0.01666666666666667 0  0.7930434782608695 0.01666666666666667 0  0.8095652173913043 0.01666666666666667 0  0.8260869565217391 0.01666666666666667 0  0.8426086956521739 0.01666666666666667 0  0.8591304347826086 0.01666666666666667 0  0.8756521739130434 0.01666666666666667 0  0.8921739130434783 0.01666666666666667 0  0.908695652173913 0.01666666666666667 0  0.9252173913043478 0.01666666666666667 0  0.9417391304347826 0.01666666666666667 0  0.9582608695652173 0.01666666666666667 0  0.9747826086956521 0.01666666666666667 0  0.991304347826087 0.01666666666666667 0  1.007826086956522 0.01666666666666667 0  1.024347826086957 0.01666666666666667 0  1.040869565217391 0.01666666666666667 0  1.057391304347826 0.01666666666666667 0  1.073913043478261 0.01666666666666667 0  1.090434782608696 0.01666666666666667 0  1.10695652173913 0.01666666666666667 0  1.123478260869565 0.01666666666666667 0  1.14 0.01666666666666667 0  1.156521739130435 0.01666666666666667 0  1.17304347826087 0.01666666666666667 0  1.189565217391304 0.01666666666666667 0  1.206086956521739 0.01666666666666667 0  1.222608695652174 0.01666666666666667 0  1.239130434782609 0.01666666666666667 0  1.255652173913044 0.01666666666666667 0  1.272173913043478 0.01666666666666667 0  1.288695652173913 0.01666666666666667 0  1.305217391304348 0.01666666666666667 0  1.321739130434783 0.01666666666666667 0  1.338260869565217 0.01666666666666667 0  1.354782608695652 0.01666666666666667 0  1.371304347826087 0.01666666666666667 0  1.387826086956522 0.01666666666666667 0  1.404347826086957 0.01666666666666667 0  1.420869565217391 0.01666666666666667 0  1.437391304347826 0.01666666666666667 0  1.453913043478261 0.01666666666666667 0  1.470434782608696 0.01666666666666667 0  1.486956521739131 0.01666666666666667 0  1.503478260869565 0.01666666666666667 0  1.52 0.01666666666666667 0  1.536521739130435 0.01666666666666667 0  1.55304347826087 0.01666666666666667 0  1.569565217391304 0.01666666666666667 0  1.586086956521739 0.01666666666666667 0  1.602608695652174 0.01666666666666667 0  1.619130434782609 0.01666666666666667 0  1.635652173913043 0.01666666666666667 0  1.652173913043478 0.01666666666666667 0  1.668695652173913 0.01666666666666667 0  1.685217391304348 0.01666666666666667 0  1.701739130434782 0.01666666666666667 0  1.718260869565217 0.01666666666666667 0  1.734782608695652 0.01666666666666667 0  1.751304347826087 0.01666666666666667 0  1.767826086956522 0.01666666666666667 0  1.784347826086957 0.01666666666666667 0  1.800869565217391 0.0166666666666666
[...]
<PointData  Scalars="rho"> 
<DataArray  type="Float64"  Name="rho"  format="ascii">1.0000000000000000e+00  1.0000000000000000e+00  1.0000000000000000e+00  1.0000000000000000e+00  1.0000000000000000e+00  1.0000000000000000e+00  1.0000000000000000e+00  1.0000000000000000e+00  1.0000000000000000e+00  1.0000000000000000e+00  1.0000000000000000e+00  1.0000000000000000e+00  1.0000000000000000e+00  1.0000000000000000e+00  1.0000000000000000e+00  1.0000000000000000e+00  1.0000000000000000e+00  9.8259805665442757e-01  9.6539407560627133e-01  9.4898159691796669e-01  9.3340608018449467e-01  9.1874116059990396e-01  9.0509215334978543e-01  8.9257179331065006e-01  8.8129750362315074e-01  8.7136723183473874e-01  8.6285702218099325e-01  8.5580465339225864e-01  8.5021656028757919e-01  8.4605739965732252e-01  8.4326406858739988e-01  8.4174055399045256e-01  8.4137476988232451e-01  8.4203426985172813e-01  8.4358160629307966e-01  8.4586990122433547e-01  8.4875938769712855e-01  8.5211097201726438e-01  8.5579975852008439e-01  8.5970675050569489e-01  8.6372899705063744e-01  8.6776827410748458e-01  8.7173939678793200e-01  8.7555858462316782e-01  8.7915336896992935e-01  8.8245076119528498e-01  8.8538801530346045e-01  8.8790394073257783e-01  8.8995106577660754e-01  8.9148704949476931e-01  8.9248562861933212e-01  8.9292588975338794e-01  8.9280192683089865e-01  8.9210976484205684e-01  8.9085710663136353e-01  8.8905320210553973e-01  8.8671957030565185e-01  8.8387939561554396e-01  8.8056729757267982e-01  8.7681814863512875e-01  8.7267768486750885e-01  8.6819010143272068e-01  8.6340819370399480e-01  8.5838256108985223e-01  8.5317186021875868e-01  8.4783121893697477e-01  8.4242150586509634e-01  8.3699699036697084e-01  8.3161590092266036e-01  8.2632638947738235e-01  8.2117788732188313e-01  8.1620877972869443e-01  8.1145961198170224e-01  8.0695902987895851e-01  8.0273817971410988e-01  7.9881557656118363e-01  7.9521284108630952e-01  7.9193702113621245e-01  7.8899749557632715e-01  7.8638910089363967e-01  7.8410978708166579e-01  7.8214626650184527e-01  7.8048793109220316e-01  7.7911312830870671e-01  7.7800150024363890e-01  7.7712043424702937e-01  7.7643595888500594e-01  7.7590153436329401e-01  7.7547173625419674e-01  7.7509192895597223e-01  7.7471205297697299e-01  7.7427840467094455e-01  7.7374707632530826e-01  7.7307450073979900e-01  7.7222972573641235e-01  7.7118414088624099e-01  7.6992369620129952e-01  7.6843620318969719e-01  7.6672220377654632e-01  7.6478355508492180e-01  7.6263445656515039e-01  7.6028990106841776e-01  7.5777666085738127e-01  7.5512175485117494e-01  7.5236356871251564e-01  7.4953734537825289e-01  7.4668395782872643e-01  7.4383580537860428e-01  7.4102540990697330e-01  7.3827167835778307e-01  7.3559012931493195e-01  7.3298207100531865e-01  7.3044873450764924e-01  7.2798129273805801e-01  7.2557537272516981e-01  7.2322215924030564e-01  7.2092104186027650e-01  7.1866746071095433e-01  7.1646257499554011e-01  7.1429951917346868e-01  7.1217366586290143e-01  7.1006841272559751e-01  7.0796717134538123e-01  7.0584412134415297e-01  7.0368022566615762e-01  7.0145514844069345e-01  6.9916308617115330e-01  6.9680163651406146e-01  6.9438376783657207e-01  6.9191963985227467e-01  6.8942554350539720e-01  6.8690551442862502e-01  6.8436353969211339e-01  6.8178743267367570e-01  6.7916674231351604e-01  6.7648235937710322e-01  6.7372785249922074e-01  6.7090030038497661e-01  6.6801477971807388e-01  6.6508847879254929e-01  6.6214794179131531e-01  6.5920792984840770e-01  6.5627843801092700e-01  6.5335161510408524e-01  6.5041855646419766e-01  6.4746494608465488e-01  6.4449096099411596e-01  6.4150366796509695e-01  6.3852740935080832e-01  6.3558259538572492e-01  6.3268802477185060e-01  6.2984245076329159e-01  6.2703557006559607e-01  6.2424043033787058e-01  6.2143199632000701e-01  6.1858037012190747e-01  6.1566534444018983e-01  6.1266418050458205e-01  6.0956808168986587e-01  6.0637896940784186e-01  6.0312870963162968e-01  5.9986399519721756e-01  5.9664044344102463e-01  5.9348219067962527e-01  5.9036665716262959e-01  5.8719584094745403e-01  5.8381415474141740e-01  5.8002545154269713e-01  5.7565257430560768e-01  5.7058191046764861e-01  5.6483082901881332e-01  5.5857856473279599e-01  5.5219794387701071e-01  5.4622209184320769e-01  5.4128956892625579e-01  5.3800839990103733e-01  5.3680196028421157e-01  5.3770999398227370e-01  5.4026328810847923e-01  5.4345763155804505e-01  5.4596373447488378e-01  4.2320607149282352e-01  4.3235834863787331e-01  4.2804354740772571e-01  4.2183336075733169e-01  4.1396404879456500e-01  4.0472643113680240e-01  3.9436747693489088e-01  3.8305296350983736e-01  3.7084879923663994e-01  3.5773853134391354e-01  3.4363574582434958e-01  3.2841271628768892e-01  3.1191096026503262e-01  2.9576576366976182e-01  2.7901462466284699e-01  2.6311796274634924e-01  2.4466570137621010e-01  2.2716191099494526e-01  2.0693620597229581e-01  1.8537621840425944e-01  2.1016279744517682e-01  1.4431283631346056e-01  1.2978855398562592e-01  1.0509120968216759e-01  7.9287117110452776e-02  5.2328369229224299e-02  2.4178384589694409e-02  0.0000000000000000e+00  0.0000000000000000e+00  0.0000000000000000e+00  0.0000000000000000e+00  0.0000000000000000e+00  0.0000000000000000e+00  0.0000000000000000e+00  0.0000000000000000e+00  0.0000000000000000e+00  0.0000000000000000e+00  0.0000000000000000e+00  0.0000000000000000e+00  0.0000000000000000e+00  0.0000000000000000e+00  0.0000000000000000e+00  0.0000000000000000e+00  0.0000000000000000e+00  0.0000000000000000e+00  0.0000000000000000e+00  0.0000000000000000e+00  0.0000000000000000e+00  0.0000000000000000e+00  0.0000000000000000e+00  1.0000000000000000e+00  1.0000000000000000e+00  1.0000000000000000e+00  1.0000000000000000e+00  1.0000000000000000e+00  1.0000000000000000e+00  1.0000000000000000e+00  1.0000000000000000e+00  1.0000000000000000e+00  1.0000000000000000e+00  1.0000000000000000e+00  1.0000000000000000e+00  1.0000000000000000e+00  1.0000000000000000e+00  1.0000000000000000e+00  1.0000000000000000e+00  1.0000000000000000e+00  1.0000000000000000e+00  1.0000000000000000e+00  1.0000000000000000e+00  9.9359461948575700e-01  9.7925574833036333e-01  9.6579279262798545e-01  9.5332837800313985e-01  9.4199045522466462e-01  9.3190675867664041e-01  9.2317750857345926e-01  9.1587548900536297e-01  9.1002946935945750e-01  9.0563411219141221e-01  9.0263987797877632e-01  9.0097025881118942e-01  9.0051719661149698e-01  9.0113189087542012e-01  9.0197926162273367e-01  9.0363701363670090e-01  9.0595818402501849e-01  9.0880674837224784e-01  9.1204871915725727e-01  9.1556624498314731e-01  9.1924708082784212e-01  9.2299475671122744e-01  9.2671494811956168e-01  9.3032570720141916e-01  9.3374504696874328e-01  9.3690212782290827e-01  9.3972456226141543e-01  9.4215188687486362e-01  9.4412658980290709e-01  9.4560753488975269e-01  9.4655909855392706e-01  9.4696306637098382e-01  9.4680580799062242e-01  9.4608839072979922e-01  9.4481226610363578e-01  9.4299143555011966e-01  9.4064146281903993e-01  9.3779092814002507e-01  9.3446844899361070e-01  9.3071401630551054e-01  9.2656647530001368e-01  9.2207480839202860e-01  9.1728404635304073e-01  9.1224742883618826e-01  9.0701473822035750e-01  9.0164358053943838e-01  8.9618567103206903e-01  8.9069819728270161e-01  8.8523024630132108e-01  8.7983458661173763e-01  8.7455192835175288e-01  8.6942534640417768e-01  8.6448643831326455e-01  8.5977076971048250e-01  8.5530119893118284e-01  8.5110496367426458e-01  8.4719592342799688e-01  8.4359253295317516e-01  8.4029742456835632e-01  8.3731702050479306e-01  8.3464412789188480e-01  8.3227695110929389e-01  8.3020204192624203e-01  8.2840976003661815e-01  8.2687877317810488e-01  8.2558873987903614e-01  8.2450452779155103e-01  8.2358985249993522e-01  8.2279566135672588e-01  8.2207528571879462e-01  8.2137288932799091e-01  8.2063945198996058e-01  8.1982342186782842e-01  8.1888510899895484e-01  8.1778509820903678e-01  8.1649823871114957e-01  8.1500168287689534e-01  8.1328738317764471e-01  8.1134724531706437e-01  8.0918581319541538e-01  8.0680788983473273e-01  8.0423097856004355e-01  8.0147218777960638e-01  7.9856151215471727e-01  7.9552889188900255e-01  7.9241553185361013e-01  7.8925687806882039e-01  7.8609278841152075e-01  7.8295206689547481e-01  7.7986232003182809e-01  7.7683492744855265e-01  7.7387844849830345e-01  7.7098781601680177e-01  7.6816033109103576e-01  7.6538447790044750e-01  7.6265636439801288e-01  7.5996898491093046e-01  7.5732481656003847e-01  7.5472051851835931e-01  7.5215785792300083e-01  7.4962838746771066e-01  7.4712458656574787e-01  7.4462456339398020e-01  7.4210773420484899e-01  7.3954597574073888e-01  7.3692224310620846e-01  7.3422059208794399e-01  7.3144320593389478e-01  7.2859554926958170e-01  7.2569742875720833e-01  7.2276073752938130e-01  7.1980064670434940e-01  7.1681566860601031e-01  7.1380329193951841e-01  7.1074360769613065e-01  7.0762188788650726e-01  7.0441928268671372e-01  7.0113576048047854e-01  6.9777685643411980e-01  6.9436731028508669e-01  6.9093026477079500e-01  6.8749318701025441e-01  6.8406477265837029e-01  6.8064655186859779e-01  6.7722284514814701e-01  6.7378267799435443e-01  6.7031542949919565e-01  6.6683152918437349e-01  6.6334900224284121e-01  6.5989925451097331e-01  6.5650063572752537e-01  6.5316304172263162e-01  6.4987187383329559e-01  6.4660506661895500e-01  6.4332693902547133e-01  6.4000913386786051e-01  6.3662044383141803e-01  6.3314100075984037e-01  6.2955050992547812e-01  6.2585154870135584e-01  6.2206738354783231e-01  6.1825699101060061e-01  6.1448523032827607e-01  6.1080566492679544e-01  6.0721255182673806e-01  6.0363100081414955e-01  5.9990082826484570e-01  5.9581689884623967e-01  5.9116596936212162e-01  5.8580348757903089e-01  5.7970366986212585e-01  5.7302639670602318e-01  5.6613093460353436e-01  5.5957760945283297e-01  5.5404538472924902e-01  5.5022196354435671e-01  5.4861080116969174e-01  5.4934917339830625e-01  5.5202856730305772e-01  5.5567225267721931e-01  4.3103955902883673e-01  4.3092166412212257e-01  4.4117861636293609e-01  4.3686376877406868e-01  4.3046473754771691e-01  4.2222499624797094e-01  4.1246380114875375e-01  4.0147531458186014e-01  3.8945812851128148e-01  3.7650467540719468e-01  3.6259949626363042e-01  3.4764854973903409e-01  3.3149526920616240e-01  3.1395037117757330e-01  2.9480021327514677e-01  2.7758214962372180e-01  2.5996442412262960e-01  2.3977317577065360e-01  2.2012665155353595e-01  1.9763804235986149e-01  1.7345797156163842e-01  1.9653688948940909e-01  1.3600717794326289e-01  1.0863364185816204e-01  7.9667971551783026e-02  4.8995427519094636e-02  1.6465101007584308e-02  0.0000000000000000e+00  0.0000000000000000e+00  0.0000000000000000e+00  0.0000000000000000e+00  0.0000000000000000e+00  0.0000000000000000e+00  0.0000000000000000e+00  0.0000000000000000e+00  0.0000000000000000e+00  0.0000000000000000e+00  0.0000000000000000e+00  0.0000000000000000e+00  0.0000000000000000e+00  0.0000000000000000e+00  0.0000000000000000e+00  0.0000000000000000e+00  0.0000000000000000e+00  0.0000000000000000e+00  0.0000000000000000e+00  0.0000000000000000e+00  0.0000000000000000e+00  0.0000000000000000e+00  0.0000000000000000e+00  0.0000000000000000e+00  1.0000000000000000e+00  1.0000000000000000e+00  1.0000000000000000e+00  1.0000000000000000e+00  1.0000000000000000e+00  1.0000000000000000e+00  1.0000000000000000e+00  1.0000000000000000e+00  1.0000000000000000e+00  1.0000000000000000e+00  1.0000000000000000e+00  9.9893672523103716e-01  9.8146434440370345e-01  9.6585557475156025e-01  9.5183112351996713e-01  9.3909388898138735e-01  9.2736066495070602e-01  9.1636241430795851e-01  9.0587271590120744e-01  8.9571233041106146e-01  8.8577411082041824e-01  8.7601725134892872e-01  8.6647477949814689e-01  8.5722915494736440e-01  8.4840485162908075e-01  8.4013803204237569e-01  8.3256519248411909e-01  8.2579797818082235e-01  8.1992218687927010e-01  8.1498473822991602e-01  8.1074855282140657e-01  8.0696512390477371e-01  8.0407088950082040e-01  8.0200056429373812e-01  8.0067859416078313e-01  8.0001477190647963e-01  7.9991858886315104e-01  8.0029597607984360e-01  8.0106138201992172e-01  8.0212928493673985e-01  8.0342483864365033e-01  8.0487440754781348e-01  8.0641320273379846e-01  8.0797438239698394e-01  8.0949743665656793e-01  8.1091985463810201e-01  8.1218628629728029e-01  8.1323938816024643e-01  8.1403248919828530e-01  8.1452313124347597e-01  8.1468394370269637e-01  8.1449311408660174e-01  8.1394268342036680e-01  8.1302847183663451e-01  8.1175759266379910e-01  8.1013721907420588e-01  8.0818519328771421e-01  8.0592054527654888e-01  8.0337175563567220e-01  8.0056519875964605e-01  7.9753331952301110e-01  7.9430493520591905e-01  7.9091334696663729e-01  7.8738496062203644e-01  7.8375023588581971e-01  7.8003476432185315e-01  7.7626881092336519e-01  7.7247629185624356e-01  7.6868434867930624e-01  7.6491329641470696e-01  7.6118633084533172e-01  7.5751665194163320e-01  7.5392174799749923e-01  7.5041175024742934e-01  7.4700399455912925e-01  7.4370655945252984e-01  7.4053477450920546e-01  7.3749462973099000e-01  7.3459891404494937e-01  7.3184896109374931e-01  7.2925264451034799e-01  7.2681048213991106e-01  7.2453073714860405e-01  7.2241417651976114e-01  7.2046573410807668e-01  7.1868065091484390e-01  7.1705317518129508e-01  7.1556386282464368e-01  7.1419064985184466e-01  7.1290096425291638e-01  7.1166349054002143e-01  7.1043897533758271e-01  7.0919387421921665e-01  7.0789302186060998e-01  7.0651129094074894e-01  7.0502396514666144e-01  7.0341719085735122e-01  7.0167836047693377e-01  6.9980446218531001e-01  6.9778933918455077e-01  6.9563464614302717e-01  6.9334060913380713e-01  6.9091714403725535e-01  6.8837430636323049e-01  6.8573333973418993e-01  6.8301694967234994e-01  6.8025676301048166e-01  6.7747838345900468e-01  6.7470943378131576e-01  6.7196671260594765e-01  6.6926421796548541e-01  6.6660172449439026e-01  6.6397667886122425e-01  6.6137796603290355e-01  6.5879921809863906e-01  6.5623019093759904e-01  6.5367037410718287e-01  6.5111935234286311e-01  6.4858540108927876e-01  6.4607156691289014e-01  6.4358286423470190e-01  6.4111388256504120e-01  6.3865649874448049e-01  6.3618833835953592e-01  6.3368812602517000e-01  6.3113117773294158e-01  6.2850661877430858e-01  6.2580857162617576e-01  6.2304900637457183e-01  6.2024276087496555e-01  6.1741388799678354e-01  6.1457433671998496e-01  6.1173426965952793e-01  6.0888532531438477e-01  6.0601623330697907e-01  6.0310074510654821e-01  6.0012104730241944e-01  5.9706273980163937e-01  5.9393352699496882e-01  5.9074958744698502e-01  5.8754233542718326e-01  5.8433772079290547e-01  5.8115803084697282e-01  5.7800329753211943e-01  5.7486468720714679e-01  5.7172196918604212e-01  5.6856570074812596e-01  5.6539536481534247e-01  5.6223241013305258e-01  5.5910406937724444e-01  5.5604077557597598e-01  5.5305171756835936e-01  5.5013068182356728e-01  5.4724868255987114e-01  5.4437364731250382e-01  5.4146848486970067e-01  5.3850627964820430e-01  5.3546021005000610e-01  5.3231441348481212e-01  5.2906012573759875e-01  5.2572221208640135e-01  5.2235776926241850e-01  5.1905597819237170e-01  5.1589463391245838e-01  5.1291083749928312e-01  5.1006060841226131e-01  5.0722069738775255e-01  5.0419708748771153e-01  5.0078510626637662e-01  4.9682430332183991e-01  4.9227578943690853e-01  4.8726460290159723e-01  4.8211918584195190e-01  4.7734860910279614e-01  4.7358749345964229e-01  4.7145924024416302e-01  4.7142408539580216e-01  4.7358938235201753e-01  4.7759052551386338e-01  3.8601994377524529e-01  3.9905286609807511e-01  3.9967741762780007e-01  3.9875673671313389e-01  3.9599312127809072e-01  3.9140885572175871e-01  3.8524050662792891e-01  3.7781346462496729e-01  3.6942182732547307e-01  3.6027177797230331e-01  3.5045182519228257e-01  3.3994528936612295e-01  3.2864395607356434e-01  3.1638019301359516e-01  3.0294540404205278e-01  2.8811517764445621e-01  2.7349202551878771e-01  2.5687149939013149e-01  2.4168591748158672e-01  2.2503358067259138e-01  2.0617592883169061e-01  1.8569555720972217e-01  1.7405366620391532e-01  1.9556555414342799e-01  1.2918532568778859e-01  1.0349561814162582e-01  7.5943484652794546e-02  4.6325824526191141e-02  1.4435383853562087e-02  0.0000000000000000e+00  0.0000000000000000e+00  0.0000000000000000e+00  0.0000000000000000e+00  0.0000000000000000e+00  0.0000000000000000e+00  0.0000000000000000e+00  0.0000000000000000e+00  0.0000000000000000e+00  0.0000000000000000e+00  0.0000000000000000e+00  0.0000000000000000e+00  0.0000000000000000e+00  0.0000000000000000e+00  0.0000000000000000e+00  0.0000000000000000e+00  0.0000000000000000e+00  0.0000000000000000e+00  0.0000000000000000e+00  0.0000000000000000e+00  0.0000000000000000e+00  0.0000000000000000e+00  0.0000000000000000e+00  7.5813090980930176e-01  8.9265857394287140e-01  8.9495878863941281e-01  8.9045081381229074e-01  8.7804107007046461e-01  8.5967751580753193e-01  8.3823742572521442e-01  8.1628164674481818e-01  7.9563522098873740e-01  7.7740399857014342e-01  7.6210945669941710e-01  7.4986191553640991e-01  7.4049214066575897e-01  7.3366867749509690e-01  7.2895679723403084e-01  7.2587674324201756e-01  7.2392211993943800e-01  7.2260097806014489e-01  7.2145491938933592e-01  7.2009937128332668e-01  7.1823867472560532e-01  7.1569205710257922e-01  7.1238625071281203e-01  7.0835217423498176e-01  7.0369360502542933e-01  6.9804595932606173e-01  6.9192691829561592e-01  6.8568930741369738e-01  6.7949002764828981e-01  6.7346197471531588e-01  6.6770383765096331e-01  6.6228799311982500e-01  6.5725571531977645e-01  6.5263061590398652e-01  6.5025659113561307e-01  6.4684419652748737e-01  6.4374472643663283e-01  6.4094206396211650e-01  6.3841533961523855e-01  6.3614561117091706e-01  6.3410877488910389e-01  6.3228324716587880e-01  6.3064339685987369e-01  6.2916396261841212e-01  6.2781366303679542e-01  6.2656206795194080e-01  6.2537480115026201e-01  6.2422045940875515e-01  6.2306512415203286e-01  6.2188297399544368e-01  6.2065223877189524e-01  6.1936124056529696e-01  6.1800152817692111e-01  6.1657341801666010e-01  6.1507911652858738e-01  6.1352789751288683e-01  6.1192808230545148e-01  6.1029473754091590e-01  6.0658411698616821e-01  6.0494048180982019e-01  6.0332160918433875e-01  6.0174345362658122e-01  6.0021298307064952e-01  5.9873410152952644e-01  5.9729959014672185e-01  5.9590186501513165e-01  5.9452745832478449e-01  5.9316445453069200e-01  5.9179503258183619e-01  5.9040396487078561e-01  5.8897128803248244e-01  5.8748120333407405e-01  5.8591243016615080e-01  5.8425317807933952e-01  5.8249069497490169e-01  5.8062412037424449e-01  5.7864871159480569e-01  5.7657153266073513e-01  5.7439604505826947e-01  5.7213546984897168e-01  5.6979802892042797e-01  5.6740317297716791e-01  5.6497035406010465e-01  5.6252936918298668e-01  5.6010641075339773e-01  5.5904507072290344e-01  5.5685557444690348e-01  5.5474246382061065e-01  5.5270967438219876e-01  5.5075728541600744e-01  5.4887597795462117e-01  5.4705450229199748e-01  5.4527348068287096e-01  5.4351676043349539e-01  5.4176745267540849e-01  5.4001525905605785e-01  5.3824995460591951e-01  5.3646777959138969e-01  5.3466319655441874e-01  5.3283272202521992e-01  5.3096556680330198e-01  5.2905328876377911e-01  5.2708562259763292e-01  5.2505924487611610e-01  5.2297334075847479e-01  5.2083800154597093e-01  5.1866671257811647e-01  5.1647931707774919e-01  5.1428983595061062e-01  5.1211180439568926e-01  5.0994892721906548e-01  5.0779960597422036e-01  5.0565089836610899e-01  5.0348929808461063e-01  5.0129892561108924e-01  4.9907185185368186e-01  4.9680257293249241e-01  4.9449785648930655e-01  4.9216871664701622e-01  4.8983298668176428e-01  4.8750384005419267e-01  4.8519251938864116e-01  4.8289814890227412e-01  4.8061194003161878e-01  4.7831103427245208e-01  4.7597412888273433e-01  4.7358203981801245e-01  4.7113152302386108e-01  4.6862805641780492e-01  4.6609329277097533e-01  4.6355012557055286e-01  4.6102444696574485e-01  4.5852705869510252e-01  4.5606242981352674e-01  4.5361585440722602e-01  4.5116733382944979e-01  4.4868632292877086e-0