<?xml version="1.0"?>
<VTKFile type="UnstructuredGrid"  version="0.1"  >
<UnstructuredGrid>
<Piece  NumberOfPoints="7161" NumberOfCells="13800">
<Points>
<DataArray  type="Float64"  NumberOfComponents="3"  format="ascii">0 0 0  0.01652173913043478 0 0  0.03304347826086956 0 0  0.04956521739130434 0 0  0.06608695652173913 0 0  0.08260869565217391 0 0  0.09913043478260869 0 0  0.1156521739130435 0 0  0.1321739130434783 0 0  0.148695652173913 0 0  0.1652173913043478 0 0  0.1817391304347826 0 0  0.1982608695652174 0 0  0.2147826086956522 0 0  0.2313043478260869 0 0  0.2478260869565218 0 0  0.2643478260869565 0 0  0.2808695652173913 0 0  0.2973913043478261 0 0  0.3139130434782609 0 0  0.3304347826086956 0 0  0.3469565217391304 0 0  0.3634782608695652 0 0  0.3799999999999999 0 0  0.3965217391304348 0 0  0.4130434782608696 0 0  0.4295652173913043 0 0  0.4460869565217391 0 0  0.4626086956521739 0 0  0.4791304347826086 0 0  0.4956521739130435 0 0  0.5121739130434783 0 0  0.528695652173913 0 0  0.5452173913043478 0 0  0.5617391304347825 0 0  0.5782608695652174 0 0  0.5947826086956521 0 0  0.6113043478260869 0 0  0.6278260869565218 0 0  0.6443478260869565 0 0  0.6608695652173913 0 0  0.677391304347826 0 0  0.6939130434782609 0 0  0.7104347826086956 0 0  0.7269565217391304 0 0  0.7434782608695653 0 0  0.7599999999999999 0 0  0.7765217391304348 0 0  0.7930434782608695 0 0  0.8095652173913043 0 0  0.8260869565217391 0 0  0.8426086956521739 0 0  0.8591304347826086 0 0  0.8756521739130434 0 0  0.8921739130434783 0 0  0.908695652173913 0 0  0.9252173913043478 0 0  0.9417391304347826 0 0  0.9582608695652173 0 0  0.9747826086956521 0 0  0.991304347826087 0 0  1.007826086956522 0 0  1.024347826086957 0 0  1.040869565217391 0 0  1.057391304347826 0 0  1.073913043478261 0 0  1.090434782608696 0 0  1.10695652173913 0 0  1.123478260869565 0 0  1.14 0 0  1.156521739130435 0 0  1.17304347826087 0 0  1.189565217391304 0 0  1.206086956521739 0 0  1.222608695652174 0 0  1.239130434782609 0 0  1.255652173913044 0 0  1.272173913043478 0 0  1.288695652173913 0 0  1.305217391304348 0 0  1.321739130434783 0 0  1.338260869565217 0 0  1.354782608695652 0 0  1.371304347826087 0 0  1.387826086956522 0 0  1.404347826086957 0 0  1.420869565217391 0 0  1.437391304347826 0 0  1.453913043478261 0 0  1.470434782608696 0 0  1.486956521739131 0 0  1.503478260869565 0 0  1.52 0 0  1.536521739130435 0 0  1.55304347826087 0 0  1.569565217391304 0 0  1.586086956521739 0 0  1.602608695652174 0 0  1.619130434782609 0 0  1.635652173913043 0 0  1.652173913043478 0 0  1.668695652173913 0 0  1.685217391304348 0 0  1.701739130434782 0 0  1.718260869565217 0 0  1.734782608695652 0 0  1.751304347826087 0 0  1.767826086956522 0 0  1.784347826086957 0 0  1.800869565217391 0 0  1.817391304347826 0 0  1.833913043478261 0 0  1.850434782608696 0 0  1.86695652173913 0 0  1.883478260869565 0 0  1.9 0 0  1.916521739130435 0 0  1.933043478260869 0 0  1.949565217391304 0 0  1.966086956521739 0 0  1.982608695652174 0 0  1.999130434782608 0 0  2.015652173913043 0 0  2.032173913043478 0 0  2.048695652173913 0 0  2.065217391304348 0 0  2.081739130434782 0 0  2.098260869565217 0 0  2.114782608695652 0 0  2.131304347826087 0 0  2.147826086956522 0 0  2.164347826086956 0 0  2.180869565217391 0 0  2.197391304347826 0 0  2.213913043478261 0 0  2.230434782608695 0 0  2.24695652173913 0 0  2.263478260869565 0 0  2.28 0 0  2.296521739130434 0 0  2.31304347826087 0 0  2.329565217391304 0 0  2.346086956521739 0 0  2.362608695652174 0 0  2.379130434782609 0 0  2.395652173913044 0 0  2.412173913043478 0 0  2.428695652173913 0 0  2.445217391304348 0 0  2.461739130434782 0 0  2.478260869565217 0 0  2.494782608695652 0 0  2.511304347826087 0 0  2.527826086956522 0 0  2.544347826086956 0 0  2.560869565217391 0 0  2.577391304347826 0 0  2.593913043478261 0 0  2.610434782608696 0 0  2.62695652173913 0 0  2.643478260869565 0 0  2.66 0 0  2.676521739130435 0 0  2.693043478260869 0 0  2.709565217391304 0 0  2.726086956521739 0 0  2.742608695652174 0 0  2.759130434782609 0 0  2.775652173913044 0 0  2.792173913043478 0 0  2.808695652173913 0 0  2.825217391304347 0 0  2.841739130434783 0 0  2.858260869565217 0 0  2.874782608695652 0 0  2.891304347826087 0 0  2.907826086956522 0 0  2.924347826086957 0 0  2.940869565217391 0 0  2.957391304347826 0 0  2.973913043478261 0 0  2.990434782608696 0 0  3.006956521739131 0 0  3.023478260869565 0 0  3.04 0 0  3.056521739130435 0 0  3.073043478260869 0 0  3.089565217391304 0 0  3.106086956521739 0 0  3.122608695652174 0 0  3.139130434782609 0 0  3.155652173913043 0 0  3.172173913043478 0 0  3.188695652173913 0 0  3.205217391304347 0 0  3.221739130434782 0 0  3.238260869565217 0 0  3.254782608695652 0 0  3.271304347826087 0 0  3.287826086956521 0 0  3.304347826086957 0 0  3.320869565217391 0 0  3.337391304347826 0 0  3.353913043478261 0 0  3.370434782608696 0 0  3.386956521739131 0 0  3.403478260869565 0 0  3.419999999999999 0 0  3.436521739130435 0 0  3.453043478260869 0 0  3.469565217391304 0 0  3.486086956521739 0 0  3.502608695652174 0 0  3.519130434782609 0 0  3.535652173913043 0 0  3.552173913043478 0 0  3.568695652173913 0 0  3.585217391304347 0 0  3.601739130434782 0 0  3.618260869565217 0 0  3.634782608695652 0 0  3.651304347826087 0 0  3.667826086956521 0 0  3.684347826086956 0 0  3.700869565217391 0 0  3.717391304347826 0 0  3.733913043478261 0 0  3.750434782608695 0 0  3.766956521739131 0 0  3.783478260869565 0 0  3.8 0 0  0 0.01666666666666667 0  0.01652173913043478 0.01666666666666667 0  0.03304347826086956 0.01666666666666667 0  0.04956521739130434 0.01666666666666667 0  0.06608695652173913 0.01666666666666667 0  0.08260869565217391 0.01666666666666667 0  0.09913043478260869 0.01666666666666667 0  0.1156521739130435 0.01666666666666667 0  0.1321739130434783 0.01666666666666667 0  0.148695652173913 0.01666666666666667 0  0.1652173913043478 0.01666666666666667 0  0.1817391304347826 0.01666666666666667 0  0.1982608695652174 0.01666666666666667 0  0.2147826086956522 0.01666666666666667 0  0.2313043478260869 0.01666666666666667 0  0.2478260869565218 0.01666666666666667 0  0.2643478260869565 0.01666666666666667 0  0.2808695652173913 0.01666666666666667 0  0.2973913043478261 0.01666666666666667 0  0.3139130434782609 0.01666666666666667 0  0.3304347826086956 0.01666666666666667 0  0.3469565217391304 0.01666666666666667 0  0.3634782608695652 0.01666666666666667 0  0.3799999999999999 0.01666666666666667 0  0.3965217391304348 0.01666666666666667 0  0.4130434782608696 0.01666666666666667 0  0.4295652173913043 0.01666666666666667 0  0.4460869565217391 0.01666666666666667 0  0.4626086956521739 0.01666666666666667 0  0.4791304347826086 0.01666666666666667 0  0.4956521739130435 0.01666666666666667 0  0.5121739130434783 0.01666666666666667 0  0.528695652173913 0.01666666666666667 0  0.5452173913043478 0.01666666666666667 0  0.5617391304347825 0.01666666666666667 0  0.5782608695652174 0.01666666666666667 0  0.5947826086956521 0.01666666666666667 0  0.6113043478260869 0.01666666666666667 0  0.6278260869565218 0.01666666666666667 0  0.6443478260869565 0.01666666666666667 0  0.6608695652173913 0.01666666666666667 0  0.677391304347826 0.01666666666666667 0  0.6939130434782609 0.01666666666666667 0  0.7104347826086956 0.01666666666666667 0  0.7269565217391304 0.01666666666666667 0  0.7434782608695653 0.01666666666666667 0  0.7599999999999999 0.01666666666666667 0  0.7765217391304348 0.01666666666666667 0  0.7930434782608695 0.01666666666666667 0  0.8095652173913043 0.01666666666666667 0  0.8260869565217391 0.01666666666666667 0  0.8426086956521739 0.01666666666666667 0  0.8591304347826086 0.01666666666666667 0  0.8756521739130434 0.01666666666666667 0  0.8921739130434783 0.01666666666666667 0  0.908695652173913 0.01666666666666667 0  0.9252173913043478 0.01666666666666667 0  0.9417391304347826 0.01666666666666667 0  0.9582608695652173 0.01666666666666667 0  0.9747826086956521 0.01666666666666667 0  0.991304347826087 0.01666666666666667 0  1.007826086956522 0.01666666666666667 0  1.024347826086957 0.01666666666666667 0  1.040869565217391 0.01666666666666667 0  1.057391304347826 0.01666666666666667 0  1.073913043478261 0.01666666666666667 0  1.090434782608696 0.01666666666666667 0  1.10695652173913 0.01666666666666667 0  1.123478260869565 0.01666666666666667 0  1.14 0.01666666666666667 0  1.156521739130435 0.01666666666666667 0  1.17304347826087 0.01666666666666667 0  1.189565217391304 0.01666666666666667 0  1.206086956521739 0.01666666666666667 0  1.222608695652174 0.01666666666666667 0  1.239130434782609 0.01666666666666667 0  1.255652173913044 0.01666666666666667 0  1.272173913043478 0.01666666666666667 0  1.288695652173913 0.01666666666666667 0  1.305217391304348 0.01666666666666667 0  1.321739130434783 0.01666666666666667 0  1.338260869565217 0.01666666666666667 0  1.354782608695652 0.01666666666666667 0  1.371304347826087 0.01666666666666667 0  1.387826086956522 0.01666666666666667 0  1.404347826086957 0.01666666666666667 0  1.420869565217391 0.01666666666666667 0  1.437391304347826 0.01666666666666667 0  1.453913043478261 0.01666666666666667 0  1.470434782608696 0.01666666666666667 0  1.486956521739131 0.01666666666666667 0  1.503478260869565 0.01666666666666667 0  1.52 0.01666666666666667 0  1.536521739130435 0.01666666666666667 0  1.55304347826087 0.01666666666666667 0  1.569565217391304 0.01666666666666667 0  1.586086956521739 0.01666666666666667 0  1.602608695652174 0.01666666666666667 0  1.619130434782609 0.01666666666666667 0  1.635652173913043 0.01666666666666667 0  1.652173913043478 0.01666666666666667 0  1.668695652173913 0.01666666666666667 0  1.685217391304348 0.01666666666666667 0  1.701739130434782 0.01666666666666667 0  1.718260869565217 0.01666666666666667 0  1.734782608695652 0.01666666666666667 0  1.751304347826087 0.01666666666666667 0  1.767826086956522 0.01666666666666667 0  1.784347826086957 0.01666666666666667 0  1.800869565217391 0.0166666666666666
[...]
<PointData  Vectors="Displacement"> 
<DataArray  type="Float64"  Name="Displacement"  NumberOfComponents="3" format="ascii">0.0000000000000000e+00 0.0000000000000000e+00 0.0000000000000000e+00  6.8393461554875426e-06 4.5414557763731681e-06 0.0000000000000000e+00  1.3184361685473942e-05 9.2279929162590732e-06 0.0000000000000000e+00  1.9517117996556180e-05 1.5780775851359254e-05 0.0000000000000000e+00  2.5895090796920067e-05 2.4481345661795758e-05 0.0000000000000000e+00  3.2323681985303193e-05 3.5427729358818497e-05 0.0000000000000000e+00  3.8800516567957634e-05 4.8669589781407906e-05 0.0000000000000000e+00  4.5321297048689047e-05 6.4234236133533837e-05 0.0000000000000000e+00  5.1870778336832861e-05 8.2125654911920245e-05 0.0000000000000000e+00  5.8404717243754249e-05 1.0230589926715513e-04 0.0000000000000000e+00  6.4838283091966120e-05 1.2466720384847046e-04 0.0000000000000000e+00  7.1054289884591037e-05 1.4901260788844446e-04 0.0000000000000000e+00  7.6925120596350261e-05 1.7505812815633680e-04 0.0000000000000000e+00  8.2334695032611530e-05 2.0245197064170506e-04 0.0000000000000000e+00  8.7193437031180495e-05 2.3080153301974083e-04 0.0000000000000000e+00  9.1447010789088976e-05 2.5970412594251752e-04 0.0000000000000000e+00  9.5081789973697792e-05 2.8878125643378539e-04 0.0000000000000000e+00  9.8126793457561009e-05 3.1771381365258624e-04 0.0000000000000000e+00  1.0064813485015540e-04 3.4626759263785446e-04 0.0000000000000000e+00  1.0273506031954127e-04 3.7429617971661061e-04 0.0000000000000000e+00  1.0448530273565413e-04 4.0172196848680812e-04 0.0000000000000000e+00  1.0599931683142389e-04 4.2851329019561314e-04 0.0000000000000000e+00  1.0738465221344130e-04 4.5467357703392531e-04 0.0000000000000000e+00  1.0876411572573576e-04 4.8024040345390781e-04 0.0000000000000000e+00  1.1027605550416698e-04 5.0527707406897355e-04 0.0000000000000000e+00  1.1204386024132998e-04 5.2984031895737045e-04 0.0000000000000000e+00  1.1411220267173793e-04 5.5394555607172124e-04 0.0000000000000000e+00  1.1643260636727799e-04 5.7758771012789091e-04 0.0000000000000000e+00  1.1894730750489694e-04 6.0079519637362818e-04 0.0000000000000000e+00  1.2164585240322364e-04 6.2363047879634309e-04 0.0000000000000000e+00  1.2454501718945257e-04 6.4616733782808127e-04 0.0000000000000000e+00  1.2766350068511853e-04 6.6848599198590414e-04 0.0000000000000000e+00  1.3100937057448775e-04 6.9067130475925203e-04 0.0000000000000000e+00  1.3457597459454795e-04 7.1281132963118741e-04 0.0000000000000000e+00  1.3834392572666638e-04 7.3499552982368471e-04 0.0000000000000000e+00  1.4228625360023436e-04 7.5731064475210714e-04 0.0000000000000000e+00  1.4637440391828690e-04 7.7983782270670552e-04 0.0000000000000000e+00  1.5058456371405728e-04 8.0265117658993336e-04 0.0000000000000000e+00  1.5490120222037238e-04 8.2581292747868228e-04 0.0000000000000000e+00  1.5931496124094039e-04 8.4936834935248127e-04 0.0000000000000000e+00  1.6381803204462038e-04 8.7334515549831310e-04 0.0000000000000000e+00  1.6840036500053701e-04 8.9775661976472152e-04 0.0000000000000000e+00  1.7304829607107659e-04 9.2260624542838863e-04 0.0000000000000000e+00  1.7774553894988918e-04 9.4789225160582828e-04 0.0000000000000000e+00  1.8247557934285050e-04 9.7361091894780530e-04 0.0000000000000000e+00  1.8722421610541080e-04 9.9975816756527839e-04 0.0000000000000000e+00  1.9198078956724453e-04 1.0263287157099917e-03 0.0000000000000000e+00  1.9673717209199503e-04 1.0533137579764257e-03 0.0000000000000000e+00  2.0148595206386329e-04 1.0807007291395799e-03 0.0000000000000000e+00  2.0622049897944811e-04 1.1084760813804102e-03 0.0000000000000000e+00  2.1093669498973430e-04 1.1366280314809344e-03 0.0000000000000000e+00  2.1563378731918846e-04 1.1651452038450888e-03 0.0000000000000000e+00  2.2031177855764194e-04 1.1940117969948885e-03 0.0000000000000000e+00  2.2496798653986026e-04 1.2232070422613021e-03 0.0000000000000000e+00  2.2959798544027585e-04 1.2527111430570598e-03 0.0000000000000000e+00  2.3419949344283779e-04 1.2825095373638564e-03 0.0000000000000000e+00  2.3877389805408096e-04 1.3125902950723856e-03 0.0000000000000000e+00  2.4332360320020275e-04 1.3429376892527677e-03 0.0000000000000000e+00  2.4784756991609044e-04 1.3735288846052590e-03 0.0000000000000000e+00  2.5234005108000442e-04 1.4043387905232694e-03 0.0000000000000000e+00  2.5679467689409017e-04 1.4353485016172774e-03 0.0000000000000000e+00  2.6120965255002539e-04 1.4665483801833622e-03 0.0000000000000000e+00  2.6558963180699560e-04 1.4979338107150360e-03 0.0000000000000000e+00  2.6994299519921504e-04 1.5294964320016274e-03 0.0000000000000000e+00  2.7427586287846002e-04 1.5612173247713352e-03 0.0000000000000000e+00  2.7858823751806768e-04 1.5930696710329906e-03 0.0000000000000000e+00  2.8287534674155591e-04 1.6250263063015175e-03 0.0000000000000000e+00  2.8713044188817695e-04 1.6570644967805483e-03 0.0000000000000000e+00  2.9134753181590491e-04 1.6891678715582829e-03 0.0000000000000000e+00  2.9552424351557877e-04 1.7213280149279487e-03 0.0000000000000000e+00  2.9966470215005478e-04 1.7535441773407451e-03 0.0000000000000000e+00  3.0377932870174974e-04 1.7858165268315605e-03 0.0000000000000000e+00  3.0787931981706476e-04 1.8181347405468783e-03 0.0000000000000000e+00  3.1196939985904626e-04 1.8504735864366280e-03 0.0000000000000000e+00  3.1604641244274522e-04 1.8828032686951013e-03 0.0000000000000000e+00  3.2010466388980298e-04 1.9151027975605542e-03 0.0000000000000000e+00  3.2414072391828794e-04 1.9473634369920334e-03 0.0000000000000000e+00  3.2815472220282146e-04 1.9795846623812314e-03 0.0000000000000000e+00  3.3214979214596342e-04 2.0117709095478450e-03 0.0000000000000000e+00  3.3613293898902098e-04 2.0439341417511250e-03 0.0000000000000000e+00  3.4011873148563469e-04 2.0760990669546654e-03 0.0000000000000000e+00  3.4413295857988483e-04 2.1083027062674380e-03 0.0000000000000000e+00  3.4821257989317128e-04 2.1405877218519079e-03 0.0000000000000000e+00  3.5240191849278055e-04 2.1729950519835482e-03 0.0000000000000000e+00  3.5674496971633266e-04 2.2055585611993507e-03 0.0000000000000000e+00  3.6127414406261256e-04 2.2383079288932186e-03 0.0000000000000000e+00  3.6600043087022595e-04 2.2712864376981585e-03 0.0000000000000000e+00  3.7090853772986517e-04 2.3045723127033436e-03 0.0000000000000000e+00  3.7595535424818534e-04 2.3382960704313332e-03 0.0000000000000000e+00  3.8107859798974390e-04 2.3726476510780316e-03 0.0000000000000000e+00  3.8621539090885843e-04 2.4078618167713227e-03 0.0000000000000000e+00  3.9132480796147498e-04 2.4441904413627252e-03 0.0000000000000000e+00  3.9640548345096802e-04 2.4818718901482273e-03 0.0000000000000000e+00  4.0149030931317735e-04 2.5211159379414450e-03 0.0000000000000000e+00  4.0662485011413871e-04 2.5621089368458067e-03 0.0000000000000000e+00  4.1185011009503531e-04 2.6050144287320803e-03 0.0000000000000000e+00  4.1718933387444073e-04 2.6499568154179933e-03 0.0000000000000000e+00  4.2262667344018833e-04 2.6969917265146654e-03 0.0000000000000000e+00  4.2808040586688834e-04 2.7460601129671563e-03 0.0000000000000000e+00  4.3339177606833881e-04 2.7969344135497561e-03 0.0000000000000000e+00  4.3835325405406923e-04 2.8491964906363076e-03 0.0000000000000000e+00  4.4277982389196498e-04 2.9022897599618289e-03 0.0000000000000000e+00  4.4658233464399470e-04 2.9556368285544076e-03 0.0000000000000000e+00  4.4979885797331138e-04 3.0087613976625665e-03 0.0000000000000000e+00  4.5257975974036897e-04 3.0613602250350101e-03 0.0000000000000000e+00  4.5514945639925152e-04 3.1133074880221640e-03 0.0000000000000000e+00  4.5776439209103443e-04 3.1646042208366551e-03 0.0000000000000000e+00  4.6066744526769668e-04 3.2153114999429093e-03 0.0000000000000000e+00  4.6403704244658232e-04 3.2655210885634859e-03 0.0000000000000000e+00  4.6795497507248507e-04 3.3153784318036964e-03 0.0000000000000000e+00  4.7241508642744372e-04 3.3650976077406400e-03 0.0000000000000000e+00  4.7734404712605262e-04 3.4149290866191387e-03 0.0000000000000000e+00  4.8262070244788866e-04 3.4651194321340807e-03 0.0000000000000000e+00  4.8811344843833891e-04 3.5158908641346994e-03 0.0000000000000000e+00  4.9372577398897641e-04 3.5674271157354444e-03 0.0000000000000000e+00  4.9940785446089949e-04 3.6198605891198531e-03 0.0000000000000000e+00  5.0514110769352822e-04 3.6732750052073573e-03 0.0000000000000000e+00  5.1092334063574394e-04 3.7277163656338399e-03 0.0000000000000000e+00  5.1675424573687672e-04 3.7831995798956585e-03 0.0000000000000000e+00  5.2262638398667719e-04 3.8397147342398717e-03 0.0000000000000000e+00  5.2852800926082573e-04 3.8972336812518101e-03 0.0000000000000000e+00  5.3444486078996570e-04 3.9557109838885369e-03 0.0000000000000000e+00  5.4035466573247061e-04 4.0150811935374458e-03 0.0000000000000000e+00  5.4622470008302085e-04 4.0752615327368453e-03 0.0000000000000000e+00  5.5202040533752523e-04 4.1361596297781085e-03 0.0000000000000000e+00  5.5771223793288848e-04 4.1976774782156194e-03 0.0000000000000000e+00  5.6327665375103641e-04 4.2597125290050990e-03 0.0000000000000000e+00  5.6869688903530777e-04 4.3221609299892248e-03 0.0000000000000000e+00  5.7396887166294343e-04 4.3849235919533247e-03 0.0000000000000000e+00  5.7910217771730351e-04 4.4479034338246624e-03 0.0000000000000000e+00  5.8410370127584522e-04 4.5109926187543743e-03 0.0000000000000000e+00  5.8896695763284229e-04 4.5740722747088670e-03 0.0000000000000000e+00  5.9368194617357871e-04 4.6370263339809616e-03 0.0000000000000000e+00  5.9824511144716819e-04 4.6997468733959115e-03 0.0000000000000000e+00  6.0265512224181759e-04 4.7621264939891406e-03 0.0000000000000000e+00  6.0690754631290839e-04 4.8240562814624004e-03 0.0000000000000000e+00  6.1099935307742893e-04 4.8854327062883458e-03 0.0000000000000000e+00  6.1493125829976654e-04 4.9461586852806005e-03 0.0000000000000000e+00  6.1870475291719265e-04 5.0061400133015544e-03 0.0000000000000000e+00  6.2232121626712845e-04 5.0652866767031271e-03 0.0000000000000000e+00  6.2578433115953740e-04 5.1235168562360957e-03 0.0000000000000000e+00  6.2910084368698004e-04 5.1807580689950724e-03 0.0000000000000000e+00  6.3228134781601010e-04 5.2369486855617020e-03 0.0000000000000000e+00  6.3534234779060936e-04 5.2920408955125023e-03 0.0000000000000000e+00  6.3830892563114809e-04 5.3460032916313703e-03 0.0000000000000000e+00  6.4121679872467701e-04 5.3988215093949037e-03 0.0000000000000000e+00  6.4411355456017456e-04 5.4504980098766878e-03 0.0000000000000000e+00  6.4705904401978907e-04 5.5010526256903391e-03 0.0000000000000000e+00  6.5012323473080690e-04 5.5505243662278183e-03 0.0000000000000000e+00  6.5337901239190287e-04 5.5989754929312739e-03 0.0000000000000000e+00  6.5689258862805294e-04 5.6465066902276493e-03 0.0000000000000000e+00  6.6072110938209840e-04 5.6932842470265223e-03 0.0000000000000000e+00  6.6491027985602583e-04 5.7395495680959601e-03 0.0000000000000000e+00  6.6948414245594421e-04 5.7856057259824487e-03 0.0000000000000000e+00  6.7444402844646606e-04 5.8318015430288347e-03 0.0000000000000000e+00  6.7978162424598473e-04 5.8785156467321366e-03 0.0000000000000000e+00  6.8549092604889878e-04 5.9261375936508253e-03 0.0000000000000000e+00  6.9156003072120089e-04 5.9750520161724096e-03 0.0000000000000000e+00  6.9795975491208971e-04 6.0256331784919320e-03 0.0000000000000000e+00  7.0465403682146361e-04 6.0782387040060988e-03 0.0000000000000000e+00  7.1161814495430346e-04 6.1331924993689542e-03 0.0000000000000000e+00  7.1884298322276365e-04 6.1907684218986264e-03 0.0000000000000000e+00  7.2632934872132076e-04 6.2511834738919452e-03 0.0000000000000000e+00  7.3407704026509874e-04 6.3145957974148625e-03 0.0000000000000000e+00  7.4207350939920977e-04 6.3811023277971692e-03 0.0000000000000000e+00  7.5028758438689476e-04 6.4507341662627844e-03 0.0000000000000000e+00  7.5866680867416503e-04 6.5234500816460901e-03 0.0000000000000000e+00  7.6713778047700679e-04 6.5991303699688385e-03 0.0000000000000000e+00  7.7560860820235610e-04 6.6775728157998102e-03 0.0000000000000000e+00  7.8397204013416820e-04 6.7584921041817549e-03 0.0000000000000000e+00  7.9211090781056430e-04 6.8415249239521881e-03 0.0000000000000000e+00  7.9990711390449519e-04 6.9262427414721779e-03 0.0000000000000000e+00  8.0725392544851976e-04 7.0121727971181368e-03 0.0000000000000000e+00  8.1406879094737404e-04 7.0988248841349589e-03 0.0000000000000000e+00  8.2030304949191999e-04 7.1857196375234595e-03 0.0000000000000000e+00  8.2594829871235613e-04 7.2724151751018635e-03 0.0000000000000000e+00  8.3103952402121032e-04 7.3585282810079483e-03 0.0000000000000000e+00  8.3565296854495982e-04 7.4437439934345959e-03 0.0000000000000000e+00  8.3989482505773198e-04 7.5278061892677514e-03 0.0000000000000000e+00  8.4388041273862581e-04 7.6104925731743317e-03 0.0000000000000000e+00  8.4772537026687122e-04 7.6916099043490872e-03 0.0000000000000000e+00  8.5155868486513203e-04 7.7710268696543844e-03 0.0000000000000000e+00  8.5552641952288454e-04 7.8487082316074479e-03 0.0000000000000000e+00  8.5977056091692948e-04 7.9247411856279253e-03 0.0000000000000000e+00  8.6439667248393802e-04 7.9993767519428143e-03 0.0000000000000000e+00  8.6945046103663976e-04 8.0730659444897684e-03 0.0000000000000000e+00  8.7491065147699909e-04 8.1464219107518360e-03 0.0000000000000000e+00  8.8067823382002842e-04 8.2200861929763690e-03 0.0000000000000000e+00  8.8660338608013392e-04 8.2945861677735950e-03 0.0000000000000000e+00  8.9253767222076050e-04 8.3702495415255446e-03 0.0000000000000000e+00  8.9837628820849103e-04 8.4472098232045208e-03 0.0000000000000000e+00  9.0412685557981988e-04 8.5255276624945399e-03 0.0000000000000000e+00  9.0991215089225607e-04 8.6053189389250287e-03 0.0000000000000000e+00  9.1584644433915228e-04 8.6867184112965536e-03 0.0000000000000000e+00  9.2190707115350336e-04 8.7697136268667982e-03 0.0000000000000000e+00  9.2793935028965668e-04 8.8540492660697193e-03 0.0000000000000000e+00  9.3375255638500799e-04 8.9392904187046655e-03 0.0000000000000000e+00  9.3920200128476709e-04 9.0249672720176272e-03 0.0000000000000000e+00  9.4422396659645620e-04 9.1106734066559499e-03 0.0000000000000000e+00  9.4885103960130554e-04 9.1961156988337664e-03 0.0000000000000000e+00  9.5322285952359996e-04 9.2811675578912331e-03 0.0000000000000000e+00  9.5759722934319843e-04 9.3659017715756604e-03 0.0000000000000000e+00  9.6237194348789247e-04 9.4505772333739121e-03 0.0000000000000000e+00  9.6807527410984928e-04 9.5355634588592097e-03 0.0000000000000000e+00  9.7516684253652814e-04 9.6211191411386381e-03 0.0000000000000000e+00  9.8361072393664305e-04 9.7070654992284355e-03 0.0000000000000000e+00  9.9277627157995244e-04 9.7928285491367170e-03 0.0000000000000000e+00  1.0019596739795317e-03 9.8779321947284424e-03 0.0000000000000000e+00  1.0107691193356567e-03 9.9622372067724452e-03 0.0000000000000000e+00  1.0190774555169386e-03 1.0045815004464588e-02 0.0000000000000000e+00  1.0268727351992460e-03 1.0128797079583673e-02 0.0000000000000000e+00  1.0341718923736138e-03 1.0211307297930055e-02 0.0000000000000000e+00  1.0409885359348818e-03 1.0293443615526494e-02 0.0000000000000000e+00  1.0473247234422903e-03 1.0375277140891840e-02 0.0000000000000000e+00  1.0531710523410524e-03 1.0456854968624201e-02 0.0000000000000000e+00  1.0585093060924073e-03 1.0538202703509315e-02 0.0000000000000000e+00  1.0633159000766508e-03 1.0619326134428760e-02 0.0000000000000000e+00  1.0675656644783347e-03 1.0700212483481754e-02 0.0000000000000000e+00  1.0712358468417712e-03 1.0780831749059812e-02 0.0000000000000000e+00  1.0743102696862126e-03 1.0861138578975809e-02 0.0000000000000000e+00  1.0767835376642785e-03 1.0941075032478587e-02 0.0000000000000000e+00  1.0786651148695216e-03 1.1020574528075410e-02 0.0000000000000000e+00  1.0799830047316396e-03 1.1099567220115415e-02 0.0000000000000000e+00  1.0807866632131045e-03 1.1177986995662708e-02 0.0000000000000000e+00  1.0811486510688331e-03 1.1255780224586487e-02 0.0000000000000000e+00  1.0811643620232566e-03 1.1332916309455248e-02 0.0000000000000000e+00  1.0809489078248014e-03 1.1409399918133042e-02 0.0000000000000000e+00  1.0806297999608726e-03 1.1485284391373512e-02 0.0000000000000000e+00  1.0803331825791698e-03 1.1560684649167822e-02 0.0000000000000000e+00  1.0801590761551853e-03 1.1635783524120974e-02 0.0000000000000000e+00  1.0801310507775345e-03 1.1710803061524149e-02 0.0000000000000000e+00  0.0000000000000000e+00 0.0000000000000000e+00 0.0000000000000000e+00  3.4263799616254474e-06 2.0056445467821667e-06 0.0000000000000000e+00  7.7444161384421891e-06 6.6119219315940134e-06 0.0000000000000000e+00  1.1999874568759343e-05 1.3150950262390090e-05 0.0000000000000000e+00  1.6212932472857789e-05 2.1835452791676091e-05 0.0000000000000000e+00  2.0417279825844433e-05 3.2761684212789121e-05 0.0000000000000000e+00  2.4636492884968299e-05 4.5978437096441790e-05 0.0000000000000000e+00  2.8891872793928264e-05 6.1512880994661761e-05 0.0000000000000000e+00  3.3203491594319912e-05 7.9375330411853915e-05 0.0000000000000000e+00  3.7579772275215647e-05 9.9543057137262619e-05 0.0000000000000000e+00  4.2004900806783461e-05 1.2192633694114602e-04 0.0000000000000000e+00  4.6437367603834670e-05 1.4634054033950731e-04 0.0000000000000000e+00  5.0818361670723596e-05 1.7250519301980374e-04 0.0000000000000000e+00  5.5082062309132130e-05 2.0006489153516653e-04 0.0000000000000000e+00  5.9162990675675826e-05 2.2861897460055324e-04 0.0000000000000000e+00  6.3000391494715633e-05 2.5775332155285194e-04 0.0000000000000000e+00  6.6542769133071428e-05 2.8707412373194955e-04 0.0000000000000000e+00  6.9755607783368026e-05 3.1624378942673580e-04 0.0000000000000000e+00  7.2630424544113393e-05 3.4501106735369418e-04 0.0000000000000000e+00  7.5187663829916150e-05 3.7321914556421557e-04 0.0000000000000000e+00  7.7470287494020549e-05 4.0078618544163826e-04 0.0000000000000000e+00  7.9535834080329994e-05 4.2767678647086656e-04 0.0000000000000000e+00  8.1455831713026384e-05 4.5388636981245775e-04 0.0000000000000000e+00  8.3323224759811052e-05 4.7944042887543487e-04 0.0000000000000000e+00  8.5259277669229519e-05 5.0439439588294201e-04 0.0000000000000000e+00  8.7397640639151297e-05 5.2882013236157357e-04 0.0000000000000000e+00  8.9822801119485116e-05 5.5277981161378094e-04 0.0000000000000000e+00  9.2513008557260206e-05 5.7630848713551518e-04 0.0000000000000000e+00  9.5388912869170963e-05 5.9942958474317690e-04 0.0000000000000000e+00  9.8406472541565101e-05 6.2218305457989453e-04 0.0000000000000000e+00  1.0156350328947308e-04 6.4463214289370795e-04 0.0000000000000000e+00  1.0486852069995700e-04 6.6685773295900087e-04 0.0000000000000000e+00  1.0832375036461926e-04 6.8895041077570492e-04 0.0000000000000000e+00  1.1191884906427994e-04 7.1100445869090817e-04 0.0000000000000000e+00  1.1563314646754703e-04 7.3311375952558519e-04 0.0000000000000000e+00  1.1944168842655594e-04 7.5536675260741892e-04 0.0000000000000000e+00  1.2332057306339508e-04 7.7784295402472396e-04 0.0000000000000000e+00  1.2725337207909000e-04 8.0061235000259648e-04 0.0000000000000000e+00  1.3123593798988794e-04 8.2373317530164451e-04 0.0000000000000000e+00  1.3527317979976545e-04 8.4724888825586913e-04 0.0000000000000000e+00  1.3937165764510803e-04 8.7118781938782738e-04 0.0000000000000000e+00  1.4353353062682245e-04 8.9556531845839450e-04 0.0000000000000000e+00  1.4775407854399484e-04 9.2038706160515278e-04 0.0000000000000000e+00  1.5202268488638884e-04 9.4565245537959087e-04 0.0000000000000000e+00  1.5632598593362090e-04 9.7135748424445156e-04 0.0000000000000000e+00  1.6065170981784951e-04 9.9749657186103775e-04 0.0000000000000000e+00  1.6499146954976763e-04 1.0240629194871783e-03 0.0000000000000000e+00  1.6934023512074097e-04 1.0510471642020786e-03 0.0000000000000000e+00  1.7369314951337582e-04 1.0784366676775475e-03 0.0000000000000000e+00  1.7804438638891813e-04 1.1062170991786640e-03 0.0000000000000000e+00  1.8238954163575158e-04 1.1343748643026180e-03 0.0000000000000000e+00  1.8672893576997639e-04 1.1628973981845884e-03 0.0000000000000000e+00  1.9106579423286586e-04 1.1917698575606578e-03 0.0000000000000000e+