<?xml version="1.0"?>
<VTKFile type="UnstructuredGrid"  version="0.1"  >
<UnstructuredGrid>
<Piece  NumberOfPoints="7161" NumberOfCells="13800">
<Points>
<DataArray  type="Float64"  NumberOfComponents="3"  format="ascii">0 0 0  0.01652173913043478 0 0  0.03304347826086956 0 0  0.04956521739130434 0 0  0.06608695652173913 0 0  0.08260869565217391 0 0  0.09913043478260869 0 0  0.1156521739130435 0 0  0.1321739130434783 0 0  0.148695652173913 0 0  0.1652173913043478 0 0  0.1817391304347826 0 0  0.1982608695652174 0 0  0.2147826086956522 0 0  0.2313043478260869 0 0  0.2478260869565218 0 0  0.2643478260869565 0 0  0.2808695652173913 0 0  0.2973913043478261 0 0  0.3139130434782609 0 0  0.3304347826086956 0 0  0.3469565217391304 0 0  0.3634782608695652 0 0  0.3799999999999999 0 0  0.3965217391304348 0 0  0.4130434782608696 0 0  0.4295652173913043 0 0  0.4460869565217391 0 0  0.4626086956521739 0 0  0.4791304347826086 0 0  0.4956521739130435 0 0  0.5121739130434783 0 0  0.528695652173913 0 0  0.5452173913043478 0 0  0.5617391304347825 0 0  0.5782608695652174 0 0  0.5947826086956521 0 0  0.6113043478260869 0 0  0.6278260869565218 0 0  0.6443478260869565 0 0  0.6608695652173913 0 0  0.677391304347826 0 0  0.6939130434782609 0 0  0.7104347826086956 0 0  0.7269565217391304 0 0  0.7434782608695653 0 0  0.7599999999999999 0 0  0.7765217391304348 0 0  0.7930434782608695 0 0  0.8095652173913043 0 0  0.8260869565217391 0 0  0.8426086956521739 0 0  0.8591304347826086 0 0  0.8756521739130434 0 0  0.8921739130434783 0 0  0.908695652173913 0 0  0.9252173913043478 0 0  0.9417391304347826 0 0  0.9582608695652173 0 0  0.9747826086956521 0 0  0.991304347826087 0 0  1.007826086956522 0 0  1.024347826086957 0 0  1.040869565217391 0 0  1.057391304347826 0 0  1.073913043478261 0 0  1.090434782608696 0 0  1.10695652173913 0 0  1.123478260869565 0 0  1.14 0 0  1.156521739130435 0 0  1.17304347826087 0 0  1.189565217391304 0 0  1.206086956521739 0 0  1.222608695652174 0 0  1.239130434782609 0 0  1.255652173913044 0 0  1.272173913043478 0 0  1.288695652173913 0 0  1.305217391304348 0 0  1.321739130434783 0 0  1.338260869565217 0 0  1.354782608695652 0 0  1.371304347826087 0 0  1.387826086956522 0 0  1.404347826086957 0 0  1.420869565217391 0 0  1.437391304347826 0 0  1.453913043478261 0 0  1.470434782608696 0 0  1.486956521739131 0 0  1.503478260869565 0 0  1.52 0 0  1.536521739130435 0 0  1.55304347826087 0 0  1.569565217391304 0 0  1.586086956521739 0 0  1.602608695652174 0 0  1.619130434782609 0 0  1.635652173913043 0 0  1.652173913043478 0 0  1.668695652173913 0 0  1.685217391304348 0 0  1.701739130434782 0 0  1.718260869565217 0 0  1.734782608695652 0 0  1.751304347826087 0 0  1.767826086956522 0 0  1.784347826086957 0 0  1.800869565217391 0 0  1.817391304347826 0 0  1.833913043478261 0 0  1.850434782608696 0 0  1.86695652173913 0 0  1.883478260869565 0 0  1.9 0 0  1.916521739130435 0 0  1.933043478260869 0 0  1.949565217391304 0 0  1.966086956521739 0 0  1.982608695652174 0 0  1.999130434782608 0 0  2.015652173913043 0 0  2.032173913043478 0 0  2.048695652173913 0 0  2.065217391304348 0 0  2.081739130434782 0 0  2.098260869565217 0 0  2.114782608695652 0 0  2.131304347826087 0 0  2.147826086956522 0 0  2.164347826086956 0 0  2.180869565217391 0 0  2.197391304347826 0 0  2.213913043478261 0 0  2.230434782608695 0 0  2.24695652173913 0 0  2.263478260869565 0 0  2.28 0 0  2.296521739130434 0 0  2.31304347826087 0 0  2.329565217391304 0 0  2.346086956521739 0 0  2.362608695652174 0 0  2.379130434782609 0 0  2.395652173913044 0 0  2.412173913043478 0 0  2.428695652173913 0 0  2.445217391304348 0 0  2.461739130434782 0 0  2.478260869565217 0 0  2.494782608695652 0 0  2.511304347826087 0 0  2.527826086956522 0 0  2.544347826086956 0 0  2.560869565217391 0 0  2.577391304347826 0 0  2.593913043478261 0 0  2.610434782608696 0 0  2.62695652173913 0 0  2.643478260869565 0 0  2.66 0 0  2.676521739130435 0 0  2.693043478260869 0 0  2.709565217391304 0 0  2.726086956521739 0 0  2.742608695652174 0 0  2.759130434782609 0 0  2.775652173913044 0 0  2.792173913043478 0 0  2.808695652173913 0 0  2.825217391304347 0 0  2.841739130434783 0 0  2.858260869565217 0 0  2.874782608695652 0 0  2.891304347826087 0 0  2.907826086956522 0 0  2.924347826086957 0 0  2.940869565217391 0 0  2.957391304347826 0 0  2.973913043478261 0 0  2.990434782608696 0 0  3.006956521739131 0 0  3.023478260869565 0 0  3.04 0 0  3.056521739130435 0 0  3.073043478260869 0 0  3.089565217391304 0 0  3.106086956521739 0 0  3.122608695652174 0 0  3.139130434782609 0 0  3.155652173913043 0 0  3.172173913043478 0 0  3.188695652173913 0 0  3.205217391304347 0 0  3.221739130434782 0 0  3.238260869565217 0 0  3.254782608695652 0 0  3.271304347826087 0 0  3.287826086956521 0 0  3.304347826086957 0 0  3.320869565217391 0 0  3.337391304347826 0 0  3.353913043478261 0 0  3.370434782608696 0 0  3.386956521739131 0 0  3.403478260869565 0 0  3.419999999999999 0 0  3.436521739130435 0 0  3.453043478260869 0 0  3.469565217391304 0 0  3.486086956521739 0 0  3.502608695652174 0 0  3.519130434782609 0 0  3.535652173913043 0 0  3.552173913043478 0 0  3.568695652173913 0 0  3.585217391304347 0 0  3.601739130434782 0 0  3.618260869565217 0 0  3.634782608695652 0 0  3.651304347826087 0 0  3.667826086956521 0 0  3.684347826086956 0 0  3.700869565217391 0 0  3.717391304347826 0 0  3.733913043478261 0 0  3.750434782608695 0 0  3.766956521739131 0 0  3.783478260869565 0 0  3.8 0 0  0 0.01666666666666667 0  0.01652173913043478 0.01666666666666667 0  0.03304347826086956 0.01666666666666667 0  0.04956521739130434 0.01666666666666667 0  0.06608695652173913 0.01666666666666667 0  0.08260869565217391 0.01666666666666667 0  0.09913043478260869 0.01666666666666667 0  0.1156521739130435 0.01666666666666667 0  0.1321739130434783 0.01666666666666667 0  0.148695652173913 0.01666666666666667 0  0.1652173913043478 0.01666666666666667 0  0.1817391304347826 0.01666666666666667 0  0.1982608695652174 0.01666666666666667 0  0.2147826086956522 0.01666666666666667 0  0.2313043478260869 0.01666666666666667 0  0.2478260869565218 0.01666666666666667 0  0.2643478260869565 0.01666666666666667 0  0.2808695652173913 0.01666666666666667 0  0.2973913043478261 0.01666666666666667 0  0.3139130434782609 0.01666666666666667 0  0.3304347826086956 0.01666666666666667 0  0.3469565217391304 0.01666666666666667 0  0.3634782608695652 0.01666666666666667 0  0.3799999999999999 0.01666666666666667 0  0.3965217391304348 0.01666666666666667 0  0.4130434782608696 0.01666666666666667 0  0.4295652173913043 0.01666666666666667 0  0.4460869565217391 0.01666666666666667 0  0.4626086956521739 0.01666666666666667 0  0.4791304347826086 0.01666666666666667 0  0.4956521739130435 0.01666666666666667 0  0.5121739130434783 0.01666666666666667 0  0.528695652173913 0.01666666666666667 0  0.5452173913043478 0.01666666666666667 0  0.5617391304347825 0.01666666666666667 0  0.5782608695652174 0.01666666666666667 0  0.5947826086956521 0.01666666666666667 0  0.6113043478260869 0.01666666666666667 0  0.6278260869565218 0.01666666666666667 0  0.6443478260869565 0.01666666666666667 0  0.6608695652173913 0.01666666666666667 0  0.677391304347826 0.01666666666666667 0  0.6939130434782609 0.01666666666666667 0  0.7104347826086956 0.01666666666666667 0  0.7269565217391304 0.01666666666666667 0  0.7434782608695653 0.01666666666666667 0  0.7599999999999999 0.01666666666666667 0  0.7765217391304348 0.01666666666666667 0  0.7930434782608695 0.01666666666666667 0  0.8095652173913043 0.01666666666666667 0  0.8260869565217391 0.01666666666666667 0  0.8426086956521739 0.01666666666666667 0  0.8591304347826086 0.01666666666666667 0  0.8756521739130434 0.01666666666666667 0  0.8921739130434783 0.01666666666666667 0  0.908695652173913 0.01666666666666667 0  0.9252173913043478 0.01666666666666667 0  0.9417391304347826 0.01666666666666667 0  0.9582608695652173 0.01666666666666667 0  0.9747826086956521 0.01666666666666667 0  0.991304347826087 0.01666666666666667 0  1.007826086956522 0.01666666666666667 0  1.024347826086957 0.01666666666666667 0  1.040869565217391 0.01666666666666667 0  1.057391304347826 0.01666666666666667 0  1.073913043478261 0.01666666666666667 0  1.090434782608696 0.01666666666666667 0  1.10695652173913 0.01666666666666667 0  1.123478260869565 0.01666666666666667 0  1.14 0.01666666666666667 0  1.156521739130435 0.01666666666666667 0  1.17304347826087 0.01666666666666667 0  1.189565217391304 0.01666666666666667 0  1.206086956521739 0.01666666666666667 0  1.222608695652174 0.01666666666666667 0  1.239130434782609 0.01666666666666667 0  1.255652173913044 0.01666666666666667 0  1.272173913043478 0.01666666666666667 0  1.288695652173913 0.01666666666666667 0  1.305217391304348 0.01666666666666667 0  1.321739130434783 0.01666666666666667 0  1.338260869565217 0.01666666666666667 0  1.354782608695652 0.01666666666666667 0  1.371304347826087 0.01666666666666667 0  1.387826086956522 0.01666666666666667 0  1.404347826086957 0.01666666666666667 0  1.420869565217391 0.01666666666666667 0  1.437391304347826 0.01666666666666667 0  1.453913043478261 0.01666666666666667 0  1.470434782608696 0.01666666666666667 0  1.486956521739131 0.01666666666666667 0  1.503478260869565 0.01666666666666667 0  1.52 0.01666666666666667 0  1.536521739130435 0.01666666666666667 0  1.55304347826087 0.01666666666666667 0  1.569565217391304 0.01666666666666667 0  1.586086956521739 0.01666666666666667 0  1.602608695652174 0.01666666666666667 0  1.619130434782609 0.01666666666666667 0  1.635652173913043 0.01666666666666667 0  1.652173913043478 0.01666666666666667 0  1.668695652173913 0.01666666666666667 0  1.685217391304348 0.01666666666666667 0  1.701739130434782 0.01666666666666667 0  1.718260869565217 0.01666666666666667 0  1.734782608695652 0.01666666666666667 0  1.751304347826087 0.01666666666666667 0  1.767826086956522 0.01666666666666667 0  1.784347826086957 0.01666666666666667 0  1.800869565217391 0.0166666666666666
[...]
<PointData  Scalars="rho_bar"> 
<DataArray  type="Float64"  Name="rho_bar"  format="ascii">8.1918665932621659e-01  8.1648241575717229e-01  8.1520524174360798e-01  8.1405007941169449e-01  8.1253870638900094e-01  8.1054283777774905e-01  8.0811415241867257e-01  8.0538871090785691e-01  8.0252012976671172e-01  7.9963411717273092e-01  7.9680740709108633e-01  7.9408019945226327e-01  7.9149595676767848e-01  7.8910867365080828e-01  7.8693518182826150e-01  7.8491911292279848e-01  7.8292816090506068e-01  7.8079970483591965e-01  7.7841533746277425e-01  7.7567546579337632e-01  7.7250805011072432e-01  7.6892624397051612e-01  7.6502743945608576e-01  7.6093415478383630e-01  7.5676098853654672e-01  7.5260705393226268e-01  7.4855727983433162e-01  7.4468363966441109e-01  7.4104517532577585e-01  7.3768732857317476e-01  7.3464235523471688e-01  7.3193003864417117e-01  7.2955734838088038e-01  7.2751747951802315e-01  7.2579309535726322e-01  7.2436129340382582e-01  7.2319496917476567e-01  7.2226306668664508e-01  7.2153150697933199e-01  7.2096406247127354e-01  7.2052340908014167e-01  7.2017173342685203e-01  7.1987141903047314e-01  7.1958542514722235e-01  7.1927798922567254e-01  7.1891516144892464e-01  7.1846571969493156e-01  7.1790176410884288e-01  7.1719916261408001e-01  7.1633690372905112e-01  7.1529588362618679e-01  7.1405836016663216e-01  7.1261106874446234e-01  7.1094905065237024e-01  7.0907633600662556e-01  7.0700415479219825e-01  7.0474940217280035e-01  7.0233400423476144e-01  6.9978468123261428e-01  6.9712980261877910e-01  6.9439552559538620e-01  6.9160483446213250e-01  6.8877832867443700e-01  6.8593476821030064e-01  6.8309150058301593e-01  6.8026432046557195e-01  6.7746737411614377e-01  6.7471270886410717e-01  6.7201003266630321e-01  6.6936625422741813e-01  6.6678548850792241e-01  6.6426915838788569e-01  6.6181667726068116e-01  6.5942611026702247e-01  6.5709509159120716e-01  6.5482140078126916e-01  6.5260357482151321e-01  6.5044106008328306e-01  6.4833447347332307e-01  6.4628548812679698e-01  6.4429681068464706e-01  6.4237160204014898e-01  6.4051268543392470e-01  6.3872104305464650e-01  6.3699425380226726e-01  6.3532551992184860e-01  6.3370527512249797e-01  6.3212332337496457e-01  6.3056915937992175e-01  6.2903118425973048e-01  6.2749645290111677e-01  6.2595077499343299e-01  6.2437951765694255e-01  6.2276840478685103e-01  6.2110456447898088e-01  6.1937719361135735e-01  6.1757820698202870e-01  6.1570230923033953e-01  6.1374706241077248e-01  6.1171258207143320e-01  6.0960146924205250e-01  6.0741858783653691e-01  6.0517115143376599e-01  6.0286855600356215e-01  6.0052227609848063e-01  5.9814517986370763e-01  5.9575074974705600e-01  5.9335181952631300e-01  5.9095947890356126e-01  5.8858191715035302e-01  5.8622390359569720e-01  5.8388661439273015e-01  5.8156829682213007e-01  5.7926514000746043e-01  5.7697261103865272e-01  5.7468647694288688e-01  5.7240367602369324e-01  5.7012239247319174e-01  5.6784176563948219e-01  5.6556094487450459e-01  5.6327824044969743e-01  5.6099024011905463e-01  5.5869170652834432e-01  5.5637593810425712e-01  5.5403592224930598e-01  5.5166551219790705e-01  5.4926064746803516e-01  5.4681986669550253e-01  5.4434442914955639e-01  5.4183764573513127e-01  5.3930395757726268e-01  5.3674749350307271e-01  5.3417096696963029e-01  5.3157496561364004e-01  5.2895840644667058e-01  5.2631965424500549e-01  5.2365821663971657e-01  5.2097576853993144e-01  5.1827606249710667e-01  5.1556289510966880e-01  5.1283796118240543e-01  5.1010140221624034e-01  5.0735425109099463e-01  5.0459844893399586e-01  5.0183651908109439e-01  4.9907139210316509e-01  4.9630624878548801e-01  4.9354329257867852e-01  4.9078238415471398e-01  4.8802062837687349e-01  4.8525370855581496e-01  4.8247805072029770e-01  4.7969311195337860e-01  4.7689968099738700e-01  4.7409654873330481e-01  4.7128073879487897e-01  4.6844986480582440e-01  4.6560505026358984e-01  4.6275373673556652e-01  4.5990936836777152e-01  4.5708527614547295e-01  4.5428298086764513e-01  4.5148312288355874e-01  4.4864721961143972e-01  4.4572829700382494e-01  4.4268153580693331e-01  4.3947227453143412e-01  4.3608162255439153e-01  4.3251291728644453e-01  4.2880009599928215e-01  4.2501046489741690e-01  4.2123048284127923e-01  4.1753415998380583e-01  4.1393936214101290e-01  4.1036094517258592e-01  4.0657445567308609e-01  4.0220846629254287e-01  3.9677583417028278e-01  3.8980092561887764e-01  3.8119684387155106e-01  3.7175851583853264e-01  3.6280598054227498e-01  3.5518880051917290e-01  3.4868899743830406e-01  3.4271494406837572e-01  3.3677341922434184e-01  3.3054961732747951e-01  3.2387205007604741e-01  3.1665950673478549e-01  3.0887735474793682e-01  3.0050993657919550e-01  2.9154868444221782e-01  2.8199291704776214e-01  2.7185713037929610e-01  2.6117043318614291e-01  2.4995321655110417e-01  2.3820793321293735e-01  2.2594330334482571e-01  2.1319003357869831e-01  1.9997466621878829e-01  1.8622474417836032e-01  1.7150895341299446e-01  1.5532479904311253e-01  1.3801609515890742e-01  1.2022846637509987e-01  1.0268235076431351e-01  8.6159596355419810e-02  7.1344842664813640e-02  5.8628277615518261e-02  4.8043102544902620e-02  3.9355879903914974e-02  3.2248383792680635e-02  2.6418246758416638e-02  2.1613735888679177e-02  1.7637303513624591e-02  1.4334991805959540e-02  1.1587915853782311e-02  9.3051475028455080e-03  7.4159805483860301e-03  5.8631069883114664e-03  4.5977001622866040e-03  3.5766524300236001e-03  2.7615119049938541e-03  2.1182840020641997e-03  1.6174800226430638e-03  1.2341158953577778e-03  9.4762361950786458e-04  7.4172339861265982e-04  6.0439070320971887e-04  5.2822337518150129e-04  5.1246437821383494e-04  7.9938787923179644e-01  7.9877732709543503e-01  7.9808535061240360e-01  7.9708832553652964e-01  7.9555554179840426e-01  7.9343828615860068e-01  7.9083231265046350e-01  7.8790814465160175e-01  7.8484738804501941e-01  7.8179680963268727e-01  7.7884515555767897e-01  7.7603341617118604e-01  7.7340378010319655e-01  7.7101961433465160e-01  7.6890804096628629e-01  7.6702208787788917e-01  7.6524050106664532e-01  7.6340408689960304e-01  7.6137523506022375e-01  7.5903913083670860e-01  7.5630571485419495e-01  7.5316335764119358e-01  7.4968917182267558e-01  7.4599110493970300e-01  7.4217142601503827e-01  7.3831986937958893e-01  7.3451532322763369e-01  7.3082705088153588e-01  7.2731390359961912e-01  7.2402325889551755e-01  7.2099072981541856e-01  7.1824118367432277e-01  7.1578809340786920e-01  7.1363155428371117e-01  7.1175928710182101e-01  7.1015274145272278e-01  7.0878965788257742e-01  7.0764410596767313e-01  7.0668676523552798e-01  7.0588588157702770e-01  7.0520802743117117e-01  7.0461893702986511e-01  7.0408395545519198e-01  7.0356870800104687e-01  7.0303959260318583e-01  7.0246465709601325e-01  7.0181433308260699e-01  7.0106240681418863e-01  7.0018633267794217e-01  6.9916677059137899e-01  6.9798548161995366e-01  6.9662421993129453e-01  6.9506854879332469e-01  6.9331376367553121e-01  6.9136497582421352e-01  6.8923472516224671e-01  6.8694065710915597e-01  6.8450525131603768e-01  6.8195611674388446e-01  6.7932273528679221e-01  6.7663096524660726e-01  6.7390278190236830e-01  6.7115728946322384e-01  6.6841168640045590e-01  6.6568147936487931e-01  6.6298058062423448e-01  6.6032097891199959e-01  6.5771255039992893e-01  6.5516256798603134e-01  6.5267547339317022e-01  6.5025261218140795e-01  6.4789261110388063e-01  6.4559195145237536e-01  6.4334600059338232e-01  6.4114984700235200e-01  6.3899920968476265e-01  6.3689088432578267e-01  6.3482317092140006e-01  6.3279587721831498e-01  6.3081045573066385e-01  6.2886973199845952e-01  6.2697753884538232e-01  6.2513762758320601e-01  6.2335224045989623e-01  6.2162005396188003e-01  6.1993506641226526e-01  6.1828846820501826e-01  6.1667192077229260e-01  6.1507723710110818e-01  6.1349535296576019e-01  6.1191557532303364e-01  6.1032581840094657e-01  6.0871316115527263e-01  6.0706487663039665e-01  6.0536926580329986e-01  6.0361659322287153e-01  6.0179952335905307e-01  5.9991345090771298e-01  5.9795629172806830e-01  5.9592836684238726e-01  5.9383207271950789e-01  5.9167187443928948e-01  5.8945419214407568e-01  5.8718754435360110e-01  5.8488229954434146e-01  5.8255032913362936e-01  5.8020404916704149e-01  5.7785542584581595e-01  5.7551467084868202e-01  5.7318929087420489e-01  5.7088331179846097e-01  5.6859731802307767e-01  5.6632888308756846e-01  5.6407370794415901e-01  5.6182675949081595e-01  5.5958357186159935e-01  5.5734095250361615e-01  5.5509729979073419e-01  5.5285207702265327e-01  5.5060504589617809e-01  5.4835510869627369e-01  5.4609957584550339e-01  5.4383376155720997e-01  5.4155152705466203e-01  5.3924621243643478e-01  5.3691201427060919e-01  5.3454497705578985e-01  5.3214369850473153e-01  5.2970927110718702e-01  5.2724497358817368e-01  5.2475527378521858e-01  5.2224461780935982e-01  5.1971601625901154e-01  5.1717042741527852e-01  5.1460691281226667e-01  5.1202396033632736e-01  5.0942104611070704e-01  5.0679994836921671e-01  5.0416451011915209e-01  5.0151851167408046e-01  4.9886255682164005e-01  4.9619528933238549e-01  4.9351707564670239e-01  4.9082991867897929e-01  4.8813658311072328e-01  4.8544054303531931e-01  4.8274550628112445e-01  4.8005393652187767e-01  4.7736489775186414e-01  4.7467399033065910e-01  4.7197510817439586e-01  4.6926344200144404e-01  4.6653893935999424e-01  4.6380455538530152e-01  4.6106077182112820e-01  4.5830598262093186e-01  4.5553857702732481e-01  4.5276028701171883e-01  4.4997964746831143e-01  4.4721272082627683e-01  4.4447600180834829e-01  4.4177149721180675e-01  4.3907470416838662e-01  4.3633927390840144e-01  4.3351298615776834e-01  4.3055124641488363e-01  4.2742468295143032e-01  4.2412241230881903e-01  4.2065506834890065e-01  4.1706274080768957e-01  4.1341821460901435e-01  4.0981073320305239e-01  4.0631148502598829e-01  4.0292953757118566e-01  3.9956732592392036e-01  3.9599277448061471e-01  3.9184865849474304e-01  3.8670299703514038e-01  3.8014678043972860e-01  3.7214468274793044e-01  3.6342005760646184e-01  3.5519805605430377e-01  3.4816413344298652e-01  3.4214293220080250e-01  3.3658820934139294e-01  3.3103932735829183e-01  3.2520444414780852e-01  3.1892660183959914e-01  3.1213368933063690e-01  3.0479706612240764e-01  2.9690446380571034e-01  2.8844772661831408e-01  2.7942201908803432e-01  2.6983192344516965e-01  2.5969329267899199e-01  2.4901768246428868e-01  2.3780129686975715e-01  2.2604634572950164e-01  2.1377113580761767e-01  2.0098671537346724e-01  1.8763466877330692e-01  1.7339111271702648e-01  1.5772434257923354e-01  1.4081555721069769e-01  1.2332128767361536e-01  1.0595915981469003e-01  8.9496449471831968e-02  7.4613310202029909e-02  6.1715327478823571e-02  5.0860520387354259e-02  4.1862992998717638e-02  3.4441044650918427e-02  2.8309245969742432e-02  2.3224063410686852e-02  1.8992976930694020e-02  1.5462910993210274e-02  1.2514319268230437e-02  1.0055866763018700e-02  8.0163006317462253e-03  6.3372019856232174e-03  4.9678478453176137e-03  3.8626160218954144e-03  2.9802908707146579e-03  2.2841996444311159e-03  1.7424364569105552e-03  1.3279327459101945e-03  1.0183680753079463e-03  7.9601326919528036e-04  6.4755740629569771e-04  5.6389351357503015e-04  5.3932563321258957e-04  7.4560361140122189e-01  7.4591499234760050e-01  7.4589201200567967e-01  7.4514913774585345e-01  7.4352980109916034e-01  7.4108196846524710e-01  7.3799963674818103e-01  7.3454404196185008e-01  7.3097483762862403e-01  7.2750022952329563e-01  7.2425087732098059e-01  7.2128585945227208e-01  7.1864501781930012e-01  7.1640331890162201e-01  7.1460293748349335e-01  7.1320719254264753e-01  7.1210428291252881e-01  7.1113755960657488e-01  7.1014624271948845e-01  7.0898174562931926e-01  7.0752005171049193e-01  7.0569839715014004e-01  7.0352980290811751e-01  7.0106666326080780e-01  6.9836748897227963e-01  6.9548979159723656e-01  6.9249204642946116e-01  6.8943329031988587e-01  6.8637054712239842e-01  6.8335581386709843e-01  6.8043428656189098e-01  6.7764441956653232e-01  6.7501728341837641e-01  6.7257248853836737e-01  6.7031476691905667e-01  6.6823821260626615e-01  6.6633459770407943e-01  6.6459277553491169e-01  6.6299782408889874e-01  6.6153122570315870e-01  6.6017157323044096e-01  6.5889517860951075e-01  6.5767672737824423e-01  6.5648983955497098e-01  6.5530788673837725e-01  6.5410490761193096e-01  6.5285681050814459e-01  6.5154251035887145e-01  6.5014482325161382e-01  6.4864987722810419e-01  6.4704327770060699e-01  6.4530523573571996e-01  6.4341759723655967e-01  6.4137673186669197e-01  6.3919199592427600e-01  6.3688019080149150e-01  6.3446178351174065e-01  6.3196035566020248e-01  6.2940572603853295e-01  6.2683042705814362e-01  6.2425946044742864e-01  6.2171145142149253e-01  6.1920143128148386e-01  6.1674197963994781e-01  6.1434360327787763e-01  6.1201466923169334e-01  6.0976129516943700e-01  6.0758701960145223e-01  6.0549244576719352e-01  6.0347474438314808e-01  6.0152746189365658e-01  5.9964081288411020e-01  5.9780274931610322e-01  5.9600034160486748e-01  5.9422122535563981e-01  5.9245467283917452e-01  5.9069237252276552e-01  5.8892878435916629e-01  5.8716133155053829e-01  5.8539034739710483e-01  5.8361894726619712e-01  5.8185245247459338e-01  5.8009721221076582e-01  5.7835848646048427e-01  5.7663790060013842e-01  5.7493125603672335e-01  5.7323172619341889e-01  5.7153611145777816e-01  5.6984322593540715e-01  5.6815116187760373e-01  5.6645604309426190e-01  5.6475183282764929e-01  5.6303096251457752e-01  5.6128520524298842e-01  5.5950672355733122e-01  5.5768890756613221e-01  5.5582706552249306e-01  5.5391863491855697e-01  5.5196307628620400e-01  5.4996142431234074e-01  5.4791597428908556e-01  5.4583008056380544e-01  5.4370829930944453e-01  5.4155655573032413e-01  5.3938231876849285e-01  5.3719435993803788e-01  5.3500216802283940e-01  5.3281489456631603e-01  5.3064024286202549e-01  5.2848334969707944e-01  5.2634612501894285e-01  5.2422707922619816e-01  5.2212192597860307e-01  5.2002465169339229e-01  5.1792894919655230e-01  5.1582948125655348e-01  5.1372285273858453e-01  5.1160784085773747e-01  5.0948499284763704e-01  5.0735553620479812e-01  5.0522014236712798e-01  5.0307782374333776e-01  5.0092556215434536e-01  4.9875864363491040e-01  4.9657172288873991e-01  4.9436003167797871e-01  4.9212040548940572e-01  4.8985162529122189e-01  4.8755446801675117e-01  4.8523172736471104e-01  4.8288795031452375e-01  4.8052814185104570e-01  4.7815619573285462e-01  4.7577380468327735e-01  4.7338058777678488e-01  4.7097529180339015e-01  4.6855766124934584e-01  4.6612978793640197e-01  4.6369601932458837e-01  4.6126022242965120e-01  4.5882037506721424e-01  4.5637008879827468e-01  4.5390757311329716e-01  4.5143443592964944e-01  4.4895402296914133e-01  4.4647133546793227e-01  4.4399247276149362e-01  4.4152135044265661e-01  4.3905526650467291e-01  4.3658500410799822e-01  4.3409913859038446e-01  4.3158787672418175e-01  4.2905110743615510e-01  4.2649774838932919e-01  4.2393388260696740e-01  4.2136254964655734e-01  4.1878497447502722e-01  4.1620418296847589e-01  4.1363191049696996e-01  4.1109310432462076e-01  4.0861712165770109e-01  4.0620959125933681e-01  4.0382823828128861e-01  4.0139737269651748e-01  3.9884496137314002e-01  3.9612434729725116e-01  3.9322168308988648e-01  3.9015150213708216e-01  3.8694860854159602e-01  3.8367433662228517e-01  3.8042362864742624e-01  3.7730060012251931e-01  3.7437402913546702e-01  3.7163013211415097e-01  3.6893323950284984e-01  3.6602238989323832e-01  3.6256028402759688e-01  3.5824812232575454e-01  3.5286874432732929e-01  3.4645371690388699e-01  3.3970593579151709e-01  3.3343249749005927e-01  3.2803915399356998e-01  3.2334805993934762e-01  3.1894486206283962e-01  3.1447604298653170e-01  3.0971804232784367e-01  3.0455378827084062e-01  2.9893475176552775e-01  2.9284768569780495e-01  2.8628987327737199e-01  2.7925603310831598e-01  2.7173401826129973e-01  2.6370785103654870e-01  2.5516044540310034e-01  2.4606655772536820e-01  2.3639604259202535e-01  2.2613727816189336e-01  2.1528615031441067e-01  2.0382428932342589e-01  1.9169110445654733e-01  1.7869338829045370e-01  1.6442032270256352e-01  1.4876025827864736e-01  1.3223758239260311e-01  1.1554389453029580e-01  9.9421565792900901e-02  8.4492500173195775e-02  7.1165199481827077e-02  5.9577926238123233e-02  4.9681286296917163e-02  4.1320566071727113e-02  3.4270920176810812e-02  2.8320456797888145e-02  2.3298668924131263e-02  1.9056836042699015e-02  1.5474423074199896e-02  1.2460629918099866e-02  9.9438538924897044e-03  7.8630783662817245e-03  6.1620873530356963e-03  4.7875089237451787e-03  3.6895317543373506e-03  2.8231454847054420e-03  2.1489270368060405e-03  1.6332861256943942e-03  1.2484068389660204e-03  9.7205688456827378e-04  7.8737350612956985e-04  6.8260631669264725e-04  6.5073708960286633e-04  6.5579241010264111e-01  6.5698296247115218e-01  6.5769007810159441e-01  6.5727767876267118e-01  6.5560725790787200e-01  6.5282308818688783e-01  6.4923479937666839e-01  6.4521679358939010e-01  6.4113013261656049e-01  6.3726785509377371e-01  6.3382900062102465e-01  6.3092357764053342e-01  6.2861206763602617e-01  6.2695518249956939e-01  6.2598551377509104e-01  6.2566517782174891e-01  6.2588523551754349e-01  6.2648637661322715e-01  6.2728650395262042e-01  6.2810081345494584e-01  6.2876125712163988e-01  6.2914283693781758e-01  6.2917433834961711e-01  6.2882173333203639e-01  6.2806997066798720e-01  6.2691953965021274e-01  6.2539023776332159e-01  6.2351985524566123e-01  6.2135892883132704e-01  6.1896492341673981e-01  6.1639738909106112e-01  6.1371493521083931e-01  6.1097267566708924e-01  6.0821765489414337e-01  6.0548269131632548e-01  6.0278455071701154e-01  6.0013749843479447e-01  5.9755383743765600e-01  5.9504126764093768e-01  5.9260231446986522e-01  5.9023464612919563e-01  5.8793163446664076e-01  5.8568298425543108e-01  5.8347545035983528e-01  5.8129381921835965e-01  5.7912216465312194e-01  5.7694539474797268e-01  5.7475093552863832e-01  5.7253023827504512e-01  5.7027888918739900e-01  5.6799146804556455e-01  5.6564829449977816e-01  5.6322409860593803e-01  5.6071837205549591e-01  5.5814911522693345e-01  5.5554147838136614e-01  5.5292157212244841e-01  5.5031516133286018e-01  5.4775177684414589e-01  5.4526614906083481e-01  5.4288165011759304e-01  5.4061190814684823e-01  5.3846593140494448e-01  5.3644972657608547e-01  5.3456655726304791e-01  5.3281693728311941e-01  5.3119859604709085e-01  5.2970625182354625e-01  5.2833110399205874e-01  5.2705999310426366e-01  5.2587480866939451e-01  5.2475284925562438e-01  5.2366850492127448e-01  5.2259560807130023e-01  5.2150971703516802e-01  5.2038976081198585e-01  5.1921906370200865e-01  5.1798579946865020e-01  5.1668316769556288e-01  5.1530932684294717e-01  5.1386722310902588e-01  5.1236394879931679e-01  5.1080908758827948e-01  5.0921124919818395e-01  5.0757431070305026e-01  5.0589674737820478e-01  5.0417513404007086e-01  5.0241401351118975e-01  5.0062278411552508e-01  4.9881051667471271e-01  4.9698373278221780e-01  4.9514589779870638e-01  4.9329782064826871e-01  4.9143851363243035e-01  4.8956623104279057e-01  4.8767947280356888e-01  4.8577784015913333e-01  4.8386241557445669e-01  4.8193553025859859e-01  4.8000005796575057e-01  4.7805872897722546e-01  4.7611383712837596e-01  4.7416744512428516e-01  4.7222188318080988e-01  4.7028028408579475e-01  4.6834678599441415e-01  4.6642625543862898e-01  4.6452348458440734e-01  4.6264210859161181e-01  4.6078353368316755e-01  4.5894618809045989e-01  4.5712533762213892e-01  4.5531367591763738e-01  4.5350255653368093e-01  4.5168359010557679e-01  4.4985013315978922e-01  4.4799834618737544e-01  4.4612754787344422e-01  4.4423971768138620e-01  4.4233818813269105e-01  4.4042597456805871e-01  4.3850437290822397e-01  4.3657249978538704e-01  4.3462777688309234e-01  4.3266700518685652e-01  4.3068754682854449e-01  4.2868798178892675e-01  4.2666775083143593e-01  4.2462672917883781e-01  4.2256628409593067e-01  4.2049052062015030e-01  4.1840512435117899e-01  4.1631512407256932e-01  4.1422324150182677e-01  4.1212978321417298e-01  4.1003403644596648e-01  4.07936414123