<?xml version="1.0"?>
<VTKFile type="UnstructuredGrid"  version="0.1"  >
<UnstructuredGrid>
<Piece  NumberOfPoints="7161" NumberOfCells="13800">
<Points>
<DataArray  type="Float64"  NumberOfComponents="3"  format="ascii">0 0 0  0.01652173913043478 0 0  0.03304347826086956 0 0  0.04956521739130434 0 0  0.06608695652173913 0 0  0.08260869565217391 0 0  0.09913043478260869 0 0  0.1156521739130435 0 0  0.1321739130434783 0 0  0.148695652173913 0 0  0.1652173913043478 0 0  0.1817391304347826 0 0  0.1982608695652174 0 0  0.2147826086956522 0 0  0.2313043478260869 0 0  0.2478260869565218 0 0  0.2643478260869565 0 0  0.2808695652173913 0 0  0.2973913043478261 0 0  0.3139130434782609 0 0  0.3304347826086956 0 0  0.3469565217391304 0 0  0.3634782608695652 0 0  0.3799999999999999 0 0  0.3965217391304348 0 0  0.4130434782608696 0 0  0.4295652173913043 0 0  0.4460869565217391 0 0  0.4626086956521739 0 0  0.4791304347826086 0 0  0.4956521739130435 0 0  0.5121739130434783 0 0  0.528695652173913 0 0  0.5452173913043478 0 0  0.5617391304347825 0 0  0.5782608695652174 0 0  0.5947826086956521 0 0  0.6113043478260869 0 0  0.6278260869565218 0 0  0.6443478260869565 0 0  0.6608695652173913 0 0  0.677391304347826 0 0  0.6939130434782609 0 0  0.7104347826086956 0 0  0.7269565217391304 0 0  0.7434782608695653 0 0  0.7599999999999999 0 0  0.7765217391304348 0 0  0.7930434782608695 0 0  0.8095652173913043 0 0  0.8260869565217391 0 0  0.8426086956521739 0 0  0.8591304347826086 0 0  0.8756521739130434 0 0  0.8921739130434783 0 0  0.908695652173913 0 0  0.9252173913043478 0 0  0.9417391304347826 0 0  0.9582608695652173 0 0  0.9747826086956521 0 0  0.991304347826087 0 0  1.007826086956522 0 0  1.024347826086957 0 0  1.040869565217391 0 0  1.057391304347826 0 0  1.073913043478261 0 0  1.090434782608696 0 0  1.10695652173913 0 0  1.123478260869565 0 0  1.14 0 0  1.156521739130435 0 0  1.17304347826087 0 0  1.189565217391304 0 0  1.206086956521739 0 0  1.222608695652174 0 0  1.239130434782609 0 0  1.255652173913044 0 0  1.272173913043478 0 0  1.288695652173913 0 0  1.305217391304348 0 0  1.321739130434783 0 0  1.338260869565217 0 0  1.354782608695652 0 0  1.371304347826087 0 0  1.387826086956522 0 0  1.404347826086957 0 0  1.420869565217391 0 0  1.437391304347826 0 0  1.453913043478261 0 0  1.470434782608696 0 0  1.486956521739131 0 0  1.503478260869565 0 0  1.52 0 0  1.536521739130435 0 0  1.55304347826087 0 0  1.569565217391304 0 0  1.586086956521739 0 0  1.602608695652174 0 0  1.619130434782609 0 0  1.635652173913043 0 0  1.652173913043478 0 0  1.668695652173913 0 0  1.685217391304348 0 0  1.701739130434782 0 0  1.718260869565217 0 0  1.734782608695652 0 0  1.751304347826087 0 0  1.767826086956522 0 0  1.784347826086957 0 0  1.800869565217391 0 0  1.817391304347826 0 0  1.833913043478261 0 0  1.850434782608696 0 0  1.86695652173913 0 0  1.883478260869565 0 0  1.9 0 0  1.916521739130435 0 0  1.933043478260869 0 0  1.949565217391304 0 0  1.966086956521739 0 0  1.982608695652174 0 0  1.999130434782608 0 0  2.015652173913043 0 0  2.032173913043478 0 0  2.048695652173913 0 0  2.065217391304348 0 0  2.081739130434782 0 0  2.098260869565217 0 0  2.114782608695652 0 0  2.131304347826087 0 0  2.147826086956522 0 0  2.164347826086956 0 0  2.180869565217391 0 0  2.197391304347826 0 0  2.213913043478261 0 0  2.230434782608695 0 0  2.24695652173913 0 0  2.263478260869565 0 0  2.28 0 0  2.296521739130434 0 0  2.31304347826087 0 0  2.329565217391304 0 0  2.346086956521739 0 0  2.362608695652174 0 0  2.379130434782609 0 0  2.395652173913044 0 0  2.412173913043478 0 0  2.428695652173913 0 0  2.445217391304348 0 0  2.461739130434782 0 0  2.478260869565217 0 0  2.494782608695652 0 0  2.511304347826087 0 0  2.527826086956522 0 0  2.544347826086956 0 0  2.560869565217391 0 0  2.577391304347826 0 0  2.593913043478261 0 0  2.610434782608696 0 0  2.62695652173913 0 0  2.643478260869565 0 0  2.66 0 0  2.676521739130435 0 0  2.693043478260869 0 0  2.709565217391304 0 0  2.726086956521739 0 0  2.742608695652174 0 0  2.759130434782609 0 0  2.775652173913044 0 0  2.792173913043478 0 0  2.808695652173913 0 0  2.825217391304347 0 0  2.841739130434783 0 0  2.858260869565217 0 0  2.874782608695652 0 0  2.891304347826087 0 0  2.907826086956522 0 0  2.924347826086957 0 0  2.940869565217391 0 0  2.957391304347826 0 0  2.973913043478261 0 0  2.990434782608696 0 0  3.006956521739131 0 0  3.023478260869565 0 0  3.04 0 0  3.056521739130435 0 0  3.073043478260869 0 0  3.089565217391304 0 0  3.106086956521739 0 0  3.122608695652174 0 0  3.139130434782609 0 0  3.155652173913043 0 0  3.172173913043478 0 0  3.188695652173913 0 0  3.205217391304347 0 0  3.221739130434782 0 0  3.238260869565217 0 0  3.254782608695652 0 0  3.271304347826087 0 0  3.287826086956521 0 0  3.304347826086957 0 0  3.320869565217391 0 0  3.337391304347826 0 0  3.353913043478261 0 0  3.370434782608696 0 0  3.386956521739131 0 0  3.403478260869565 0 0  3.419999999999999 0 0  3.436521739130435 0 0  3.453043478260869 0 0  3.469565217391304 0 0  3.486086956521739 0 0  3.502608695652174 0 0  3.519130434782609 0 0  3.535652173913043 0 0  3.552173913043478 0 0  3.568695652173913 0 0  3.585217391304347 0 0  3.601739130434782 0 0  3.618260869565217 0 0  3.634782608695652 0 0  3.651304347826087 0 0  3.667826086956521 0 0  3.684347826086956 0 0  3.700869565217391 0 0  3.717391304347826 0 0  3.733913043478261 0 0  3.750434782608695 0 0  3.766956521739131 0 0  3.783478260869565 0 0  3.8 0 0  0 0.01666666666666667 0  0.01652173913043478 0.01666666666666667 0  0.03304347826086956 0.01666666666666667 0  0.04956521739130434 0.01666666666666667 0  0.06608695652173913 0.01666666666666667 0  0.08260869565217391 0.01666666666666667 0  0.09913043478260869 0.01666666666666667 0  0.1156521739130435 0.01666666666666667 0  0.1321739130434783 0.01666666666666667 0  0.148695652173913 0.01666666666666667 0  0.1652173913043478 0.01666666666666667 0  0.1817391304347826 0.01666666666666667 0  0.1982608695652174 0.01666666666666667 0  0.2147826086956522 0.01666666666666667 0  0.2313043478260869 0.01666666666666667 0  0.2478260869565218 0.01666666666666667 0  0.2643478260869565 0.01666666666666667 0  0.2808695652173913 0.01666666666666667 0  0.2973913043478261 0.01666666666666667 0  0.3139130434782609 0.01666666666666667 0  0.3304347826086956 0.01666666666666667 0  0.3469565217391304 0.01666666666666667 0  0.3634782608695652 0.01666666666666667 0  0.3799999999999999 0.01666666666666667 0  0.3965217391304348 0.01666666666666667 0  0.4130434782608696 0.01666666666666667 0  0.4295652173913043 0.01666666666666667 0  0.4460869565217391 0.01666666666666667 0  0.4626086956521739 0.01666666666666667 0  0.4791304347826086 0.01666666666666667 0  0.4956521739130435 0.01666666666666667 0  0.5121739130434783 0.01666666666666667 0  0.528695652173913 0.01666666666666667 0  0.5452173913043478 0.01666666666666667 0  0.5617391304347825 0.01666666666666667 0  0.5782608695652174 0.01666666666666667 0  0.5947826086956521 0.01666666666666667 0  0.6113043478260869 0.01666666666666667 0  0.6278260869565218 0.01666666666666667 0  0.6443478260869565 0.01666666666666667 0  0.6608695652173913 0.01666666666666667 0  0.677391304347826 0.01666666666666667 0  0.6939130434782609 0.01666666666666667 0  0.7104347826086956 0.01666666666666667 0  0.7269565217391304 0.01666666666666667 0  0.7434782608695653 0.01666666666666667 0  0.7599999999999999 0.01666666666666667 0  0.7765217391304348 0.01666666666666667 0  0.7930434782608695 0.01666666666666667 0  0.8095652173913043 0.01666666666666667 0  0.8260869565217391 0.01666666666666667 0  0.8426086956521739 0.01666666666666667 0  0.8591304347826086 0.01666666666666667 0  0.8756521739130434 0.01666666666666667 0  0.8921739130434783 0.01666666666666667 0  0.908695652173913 0.01666666666666667 0  0.9252173913043478 0.01666666666666667 0  0.9417391304347826 0.01666666666666667 0  0.9582608695652173 0.01666666666666667 0  0.9747826086956521 0.01666666666666667 0  0.991304347826087 0.01666666666666667 0  1.007826086956522 0.01666666666666667 0  1.024347826086957 0.01666666666666667 0  1.040869565217391 0.01666666666666667 0  1.057391304347826 0.01666666666666667 0  1.073913043478261 0.01666666666666667 0  1.090434782608696 0.01666666666666667 0  1.10695652173913 0.01666666666666667 0  1.123478260869565 0.01666666666666667 0  1.14 0.01666666666666667 0  1.156521739130435 0.01666666666666667 0  1.17304347826087 0.01666666666666667 0  1.189565217391304 0.01666666666666667 0  1.206086956521739 0.01666666666666667 0  1.222608695652174 0.01666666666666667 0  1.239130434782609 0.01666666666666667 0  1.255652173913044 0.01666666666666667 0  1.272173913043478 0.01666666666666667 0  1.288695652173913 0.01666666666666667 0  1.305217391304348 0.01666666666666667 0  1.321739130434783 0.01666666666666667 0  1.338260869565217 0.01666666666666667 0  1.354782608695652 0.01666666666666667 0  1.371304347826087 0.01666666666666667 0  1.387826086956522 0.01666666666666667 0  1.404347826086957 0.01666666666666667 0  1.420869565217391 0.01666666666666667 0  1.437391304347826 0.01666666666666667 0  1.453913043478261 0.01666666666666667 0  1.470434782608696 0.01666666666666667 0  1.486956521739131 0.01666666666666667 0  1.503478260869565 0.01666666666666667 0  1.52 0.01666666666666667 0  1.536521739130435 0.01666666666666667 0  1.55304347826087 0.01666666666666667 0  1.569565217391304 0.01666666666666667 0  1.586086956521739 0.01666666666666667 0  1.602608695652174 0.01666666666666667 0  1.619130434782609 0.01666666666666667 0  1.635652173913043 0.01666666666666667 0  1.652173913043478 0.01666666666666667 0  1.668695652173913 0.01666666666666667 0  1.685217391304348 0.01666666666666667 0  1.701739130434782 0.01666666666666667 0  1.718260869565217 0.01666666666666667 0  1.734782608695652 0.01666666666666667 0  1.751304347826087 0.01666666666666667 0  1.767826086956522 0.01666666666666667 0  1.784347826086957 0.01666666666666667 0  1.800869565217391 0.0166666666666666
[...]
<PointData  Scalars="rho_bar"> 
<DataArray  type="Float64"  Name="rho_bar"  format="ascii">8.0510165457499272e-01  8.0223749591034543e-01  8.0088586045516541e-01  7.9966317495229788e-01  7.9806380636475183e-01  7.9595244809631405e-01  7.9338433877841441e-01  7.9050388518788162e-01  7.8747379182723465e-01  7.8442697010097440e-01  7.8144438181694997e-01  7.7856830303970337e-01  7.7584437076299262e-01  7.7332922952281424e-01  7.7104030390500988e-01  7.6891796959406788e-01  7.6682282385291878e-01  7.6458382254341350e-01  7.6207667250197009e-01  7.5919709850045980e-01  7.5587005276265451e-01  7.5211017512286760e-01  7.4802048676418187e-01  7.4373008983527800e-01  7.3935942344000394e-01  7.3501235602364112e-01  7.3077760456613938e-01  7.2673008684367202e-01  7.2293101782226044e-01  7.1942728553668911e-01  7.1625195450520884e-01  7.1342507112559528e-01  7.1095335745023980e-01  7.0882925013619880e-01  7.0703430371225562e-01  7.0554436660590969e-01  7.0433099494401430e-01  7.0336170433137912e-01  7.0260092475710045e-01  7.0201089817364726e-01  7.0155276096038555e-01  7.0118716528730241e-01  7.0087498462436892e-01  7.0057770245696260e-01  7.0025813983324303e-01  6.9988101100245270e-01  6.9941387623348450e-01  6.9882776315590645e-01  6.9809763344807030e-01  6.9720171425883348e-01  6.9612024231506320e-01  6.9483490202968068e-01  6.9333206550448889e-01  6.9160676555276335e-01  6.8966339409178024e-01  6.8751383048474435e-01  6.8517583279788608e-01  6.8267236286121413e-01  6.8003132244851006e-01  6.7728227853336143e-01  6.7445245758395933e-01  6.7156575360642412e-01  6.6864354812911786e-01  6.6570527837309068e-01  6.6276888207172291e-01  6.5985065633166495e-01  6.5696516348956890e-01  6.5412477200964159e-01  6.5133941519186533e-01  6.4861612488403975e-01  6.4595904515273617e-01  6.4336954468545626e-01  6.4084692553579026e-01  6.3838910768863943e-01  6.3599357434100456e-01  6.3365796454752210e-01  6.3138070082135211e-01  6.2916114329937234e-01  6.2699985547628645e-01  6.2489848472816745e-01  6.2285973690781871e-01  6.2088678115022966e-01  6.1898243808904330e-01  6.1714764155533175e-01  6.1537984294837555e-01  6.1367202098473883e-01  6.1201433327902433e-01  6.1039630699453740e-01  6.0880716638771959e-01  6.0723503106683629e-01  6.0566665893706650e-01  6.0408755135336001e-01  6.0248277464398359e-01  6.0083777740717370e-01  5.9913945969969717e-01  5.9737685008387853e-01  5.9554176539081116e-01  5.9362888063828134e-01  5.9163579369712849e-01  5.8956271101262547e-01  5.8741237347121156e-01  5.8518982471179970e-01  5.8290249410778550e-01  5.8056002092174752e-01  5.7817414289733404e-01  5.7575799462386523e-01  5.7332531183713353e-01  5.7088914725955842e-01  5.6846076009796642e-01  5.6604844720763481e-01  5.6365702308990484e-01  5.6128765238751765e-01  5.5893853091094881e-01  5.5660577390327026e-01  5.5428477273429844e-01  5.5197123039283802e-01  5.4966204178288369e-01  5.4735536655442241e-01  5.4505033244847978e-01  5.4274607863986279e-01  5.4044089837306164e-01  5.3813134937526330e-01  5.3581215410460714e-01  5.3347656786339492e-01  5.3111754441546610e-01  5.2872892263685001e-01  5.2630665377187646e-01  5.2384931320565653e-01  5.2135821673357585e-01  5.1883674146959524e-01  5.1628939457575662e-01  5.1372036122485443e-01  5.1113239746968364e-01  5.0852612068231839e-01  5.0590047140056471e-01  5.0325383906184751e-01  5.0058576219565376e-01  4.9789795172003032e-01  4.9519419545068266e-01  4.9247831769305944e-01  4.8975203269117368e-01  4.8701549872348027e-01  4.8426976455318654e-01  4.8151678397823205e-01  4.7875908795909178e-01  4.7599960862372792e-01  4.7324152150412324e-01  4.7048702146975463e-01  4.6773596499244208e-01  4.6498546514247707e-01  4.6223122637177061e-01  4.5946970085939187e-01  4.5670036131861119e-01  4.5392400423098483e-01  4.5113944019647029e-01  4.4834372847812487e-01  4.4553452038357755e-01  4.4271295307949149e-01  4.3988642303305381e-01  4.3706825626823459e-01  4.3427163740148289e-01  4.3149803627192229e-01  4.2872826897121336e-01  4.2592428935161192e-01  4.2303974288268870e-01  4.2003050585092711e-01  4.1686258540859478e-01  4.1351763632038152e-01  4.0999928507655148e-01  4.0634130561267789e-01  4.0261023418806646e-01  3.9889126032797567e-01  3.9525709545536514e-01  3.9172510226550228e-01  3.8821148322448917e-01  3.8449600483082402e-01  3.8021499369454986e-01  3.7489275247107023e-01  3.6806723930511132e-01  3.5965962305560228e-01  3.5045251527294641e-01  3.4173435897436655e-01  3.3432783873372429e-01  3.2801578934213932e-01  3.2222075285431379e-01  3.1646342228787327e-01  3.1043918107661816e-01  3.0398327449284124e-01  2.9701893539102997e-01  2.8951481140760060e-01  2.8145814578554240e-01  2.7284324812699889e-01  2.6367221563989846e-01  2.5396184861989041e-01  2.4374296206022517e-01  2.3303798334121215e-01  2.2185225300170527e-01  2.1019717506825555e-01  1.9810501820694268e-01  1.8560394294162855e-01  1.7262857560610401e-01  1.5877690730499758e-01  1.4358522191129744e-01  1.2738680595981522e-01  1.1079259018181827e-01  9.4475511949598259e-02  7.9156946968516467e-02  6.5460290776331351e-02  5.3732207986604802e-02  4.3989941784333728e-02  3.6008063398473761e-02  2.9486717142266559e-02  2.4143468021698877e-02  1.9744307120405893e-02  1.6106170453519982e-02  1.3086736587710104e-02  1.0576312716706711e-02  8.4911206930868063e-03  6.7660967170736315e-03  5.3485761114689572e-03  4.1937520634247813e-03  3.2621200321510170e-03  2.5184833496404678e-03  1.9317542897977324e-03  1.4749849875055321e-03  1.1253563913976490e-03  8.6409038887161501e-04  6.7632822824467611e-04  5.5109714414844173e-04  4.8164288856533574e-04  4.6727293284708888e-04  7.8414331949738791e-01  7.8350233589226093e-01  7.8277299066029515e-01  7.8172100625814467e-01  7.8010388221652138e-01  7.7787083462361517e-01  7.7512366675558775e-01  7.7204281593443536e-01  7.6882002925269799e-01  7.6560995086320727e-01  7.6250584637252905e-01  7.5955059515388945e-01  7.5678828890054672e-01  7.5428517691033425e-01  7.5206934809789006e-01  7.5009115085429601e-01  7.4822316196345329e-01  7.4629839988370383e-01  7.4417271976035371e-01  7.4172607497369669e-01  7.3886461417040217e-01  7.3557682464325802e-01  7.3194407449789789e-01  7.2807979208164264e-01  7.2409120222854506e-01  7.2007216885091374e-01  7.1610498884014806e-01  7.1226170335264349e-01  7.0860332282523186e-01  7.0517877533934048e-01  7.0202466212016301e-01  6.9916637060630871e-01  6.9661744409014836e-01  6.9437755899322218e-01  6.9243359786647596e-01  6.9076600246900388e-01  6.8935143470118643e-01  6.8816281006460700e-01  6.8716958190031352e-01  6.8633872500592130e-01  6.8563551535550737e-01  6.8502438798358056e-01  6.8446939602159729e-01  6.8393489979374267e-01  6.8338607476302726e-01  6.8278982005757516e-01  6.8211552014296650e-01  6.8133605274223596e-01  6.8042811580077311e-01  6.7937174977410131e-01  6.7814815932445127e-01  6.7673856972287150e-01  6.7512818713961487e-01  6.7331232842513600e-01  6.7129649128773661e-01  6.6909386523813152e-01  6.6672291208674872e-01  6.6420707068543039e-01  6.6157504553016311e-01  6.5885742351848864e-01  6.5608099473102810e-01  6.5326849399444475e-01  6.5043965301596285e-01  6.4761220083999982e-01  6.4480208872416434e-01  6.4202359490752414e-01  6.3928899120337235e-01  6.3660835453460818e-01  6.3398906941803634e-01  6.3143560126967258e-01  6.2894923227075961e-01  6.2652845619568631e-01  6.2416957289063379e-01  6.2186775006416484e-01  6.1961788089703007e-01  6.1741551525834781e-01  6.1525731464399946e-01  6.1314148698646653e-01  6.1106778699210385e-01  6.0903765299733803e-01  6.0705392612633735e-01  6.0512047390024903e-01  6.0324107640591917e-01  6.0141796870024233e-01  5.9964974392297277e-01  5.9793022438425147e-01  5.9625037951684212e-01  5.9460167368585348e-01  5.9297573727254560e-01  5.9136331659075125e-01  5.8975350922896419e-01  5.8813400688693562e-01  5.8649166540329656e-01  5.8481355416576064e-01  5.8308780509562008e-01  5.8130456352720339e-01  5.7945642968709232e-01  5.7753879101806227e-01  5.7554960552188850e-01  5.7348927944396177e-01  5.7136032802524894e-01  5.6916736422011205e-01  5.6691697905824479e-01  5.6461788226836485e-01  5.6228064538366862e-01  5.5991734523375414e-01  5.5754058946610741e-01  5.5516250802130795e-01  5.5279343387781366e-01  5.5044094567849400e-01  5.4810908977785577e-01  5.4579842794353006e-01  5.4350648022894799e-01  5.4122888087928633e-01  5.3896053156888446e-01  5.3669691560887189e-01  5.3443480866815418e-01  5.3217259588260024e-01  5.2990973825509935e-01  5.2764599797554201e-01  5.2538027203853754e-01  5.2310985687332368e-01  5.2083004526806931e-01  5.1853467708202727e-01  5.1621707939507977e-01  5.1387145183923089e-01  5.1149386056673174e-01  5.0908294197545079e-01  5.0663983838747439e-01  5.0416788292059478e-01  5.0167159492852131e-01  4.9915546366241320e-01  4.9662253230109599e-01  4.9407378388555007e-01  4.9150830223104414e-01  4.8892459992555115e-01  4.8632218120180709e-01  4.8370285193082962e-01  4.8107047632118888e-01  4.7842884657238272e-01  4.7577857584711059e-01  4.7311832291212630e-01  4.7044846865202966e-01  4.6777102402449816e-01  4.6508875477865308e-01  4.6240512750446155e-01  4.5972383427064856e-01  4.5704732130113840e-01  4.5437464942625921e-01  4.5170144034860887e-01  4.4902163114842153e-01  4.4633046021394518e-01  4.4362789691090770e-01  4.4091689154465352e-01  4.3819793646626271e-01  4.3546945587654601e-01  4.3272987311615518e-01  4.2998092260656462e-01  4.2723106352325513e-01  4.2449617761132613e-01  4.2179253741652029e-01  4.1912206917567368e-01  4.1646052719433890e-01  4.1376216963397999e-01  4.1097557010619312e-01  4.0805693724463565e-01  4.0497758161025493e-01  4.0172709088576747e-01  3.9831625631892026e-01  3.9478480762984358e-01  3.9120448750778930e-01  3.8766298778576957e-01  3.8423003490576629e-01  3.8091426165142817e-01  3.7761980790239597e-01  3.7411936607870716e-01  3.7006384379728563e-01  3.6503232956296017e-01  3.5862842842061021e-01  3.5082302612760374e-01  3.4232648814647892e-01  3.3433222550288866e-01  3.2750265678641988e-01  3.2166310431013834e-01  3.1628139878452788e-01  3.1091061774379647e-01  3.0526875978784446e-01  2.9920522116700998e-01  2.9265195105912600e-01  2.8558320533976189e-01  2.7798926230317317e-01  2.6986456242162360e-01  2.6120692953195790e-01  2.5202338432186272e-01  2.4233183142091219e-01  2.3214610841723682e-01  2.2146550603479606e-01  2.1029518554735441e-01  1.9865566530247541e-01  1.8656056086116227e-01  1.7395798306892035e-01  1.6054699972862871e-01  1.4583535500531244e-01  1.3000381655579638e-01  1.1367462787517733e-01  9.7519366207185126e-02  8.2247334209388720e-02  6.8479232057362713e-02  5.6577015371104433e-02  4.6581295372003700e-02  3.8310380247044480e-02  3.1497674280145868e-02  2.5875928697672097e-02  2.1218341614013102e-02  1.7346208686225956e-02  1.4117828920821550e-02  1.1422765923485583e-02  9.1767669839158544e-03  7.3141921840990075e-03  5.7813051045109386e-03  4.5315256082601365e-03  3.5230239590210281e-03  2.7180605761460393e-03  2.0830901622843697e-03  1.5889505319723657e-03  1.2109153471170316e-03  9.2860444858320842e-04  7.2583498298345209e-04  5.9045972822368729e-04  5.1416907406672159e-04  4.9176656365994059e-04  7.2760169196514168e-01  7.2793529228954246e-01  7.2791123571033611e-01  7.2713500387725960e-01  7.2544243382876339e-01  7.2288496724525197e-01  7.1966660493880497e-01  7.1606114332139981e-01  7.1234005319419502e-01  7.0872044520686550e-01  7.0533811496172183e-01  7.0225408917355048e-01  6.9950932197802873e-01  6.9718117857564055e-01  6.9531284749276168e-01  6.9386566942917405e-01  6.9272317184932541e-01  6.9172253007465989e-01  6.9069676448833062e-01  6.8949165177855809e-01  6.8797862148869571e-01  6.8609280083199153e-01  6.8384797154417765e-01  6.8129872512505740e-01  6.7850596330404200e-01  6.7552950767870823e-01  6.7243010560035310e-01  6.6926898399589663e-01  6.6610516896211580e-01  6.6299237115142595e-01  6.5997716912380888e-01  6.5709909419632972e-01  6.5438999256853270e-01  6.5186985097302930e-01  6.4954330643902192e-01  6.4740405465927064e-01  6.4544343465265508e-01  6.4364981327893966e-01  6.4200770456405376e-01  6.4049795610544491e-01  6.3909847538485665e-01  6.3778485436701815e-01  6.3653104060516275e-01  6.3530991220401245e-01  6.3409411638353197e-01  6.3285700957528590e-01  6.3157389234193206e-01  6.3022317643852821e-01  6.2878730160170093e-01  6.2725212699824062e-01  6.2560298630848743e-01  6.2381968936045318e-01  6.2188376549459579e-01  6.1979168202841917e-01  6.1755322728026352e-01  6.1518580070322948e-01  6.1271052416802141e-01  6.1015166973745294e-01  6.0753984739040234e-01  6.0490837295611977e-01  6.0228279299920018e-01  5.9968209299832975e-01  5.9712155582861237e-01  5.9461393566133414e-01  5.9216985046077519e-01  5.8979771982919038e-01  5.8750365946237348e-01  5.8529115146475230e-01  5.8316068789411890e-01  5.8110927099956555e-01  5.7913022482623966e-01  5.7721349950328360e-01  5.7534676414931762e-01  5.7351681402032739e-01  5.7171104087865254e-01  5.6991851921097614e-01  5.6813079388102272e-01  5.6634223603593670e-01  5.6455023253442049e-01  5.6275512683201367e-01  5.6096008395562436e-01  5.5917050152091741e-01  5.5739281152259923e-01  5.5563233311570959e-01  5.5389069649989542e-01  5.5216363451540607e-01  5.5044423467137926e-01  5.4872926999112359e-01  5.4701755464188351e-01  5.4530717345295776e-01  5.4359422359871545e-01  5.4187262406835468e-01  5.4013475418410106e-01  5.3837233796000905e-01  5.3657750262006343e-01  5.3474362367123507e-01  5.3286601938882128e-01  5.3094216038003073e-01  5.2897155852082411e-01  5.2695531078248259e-01  5.2489578027432759e-01  5.2279639103521258e-01  5.2066176975291989e-01  5.1849791180358118e-01  5.1631235420368726e-01  5.1411393018542961e-01  5.1191217854876536e-01  5.0971628349357434e-01  5.0753396046307242e-01  5.0537033776060847e-01  5.0322730010589101e-01  5.0110332263060964e-01  4.9899408213970203e-01  4.9689353425243860e-01  4.9479535229116400e-01  4.9269419233372086e-01  4.9058666350093305e-01  4.8847155393321523e-01  4.8634942361450362e-01  4.8422151126319013e-01  4.8208849753004923e-01  4.7994940484354481e-01  4.7780123034477673e-01  4.7563928465342720e-01  4.7345825722379647e-01  4.7125342225673011e-01  4.6902165988358613e-01  4.6676179227685372e-01  4.6447462957086161e-01  4.6216298755692536e-01  4.5983142199994786e-01  4.5748493637813442e-01  4.5512742053596472e-01  4.5276057048837054e-01  4.5038402038922820e-01  4.4799654042207793e-01  4.4559789432771846e-01  4.4319017492275914e-01  4.4077770606631461e-01  4.3836432331425768e-01  4.3594801477310019e-01  4.3352245254878086e-01  4.3108587712377555e-01  4.2863989491166343e-01  4.2618782874631161e-01  4.2373463382744792e-01  4.2128634164826329e-01  4.1884681172142352e-01  4.1641335732828488e-01  4.1397686785006998e-01  4.1152607452139722e-01  4.0905134192410342e-01  4.0655260215827410e-01  4.0403868024181777e-01  4.0151559291503169e-01  3.9898635182363884e-01  3.9645217605427790e-01  3.9391605217818959e-01  3.9138952339449290e-01  3.8889709292303010e-01  3.8646754126770066e-01  3.8410628293383381e-01  3.8177171149420708e-01  3.7938955096542876e-01  3.7688928336320227e-01  3.7422541547059568e-01  3.7138469505637445e-01  3.6838168163022006e-01  3.6525072465659103e-01  3.6205202183507373e-01  3.5887843467528963e-01  3.5583151145446129e-01  3.5297805177145819e-01  3.5030419803737289e-01  3.4767736792156051e-01  3.4484329254042095e-01  3.4147410493317432e-01  3.3728053022984567e-01  3.3205389267172680e-01  3.2582823079294304e-01  3.1928816968247259e-01  3.1321543674483387e-01  3.0800009020095703e-01  3.0346762741139000e-01  2.9921648334615691e-01  2.9490519104509227e-01  2.9031857559817548e-01  2.8534470656738931e-01  2.7993803497593422e-01  2.7408717388544729e-01  2.6779099050881539e-01  2.6104600652474097e-01  2.5384230256271823e-01  2.4616647315623441e-01  2.3800426266431857e-01  2.2933387545513029e-01  2.2012916894626472e-01  2.1038194855856968e-01  2.0009137172230809e-01  1.8924330417510843e-01  1.7778408477139879e-01  1.6553587671065612e-01  1.5211855243496880e-01  1.3743683800548226e-01  1.2199110230609332e-01  1.0643192771337817e-01  9.1449374448773477e-02  7.7614175861665718e-02  6.5294473538648298e-02  5.4606980346454753e-02  4.5496244087662042e-02  3.7811897169381298e-02  3.1341381644326212e-02  2.5886014956626242e-02  2.1286504607184585e-02  1.7404529432863376e-02  1.4128286199846249e-02  1.1373661819444263e-02  9.0744296281381233e-03  7.1742768426507914e-03  5.6214554583974155e-03  4.3669512238717848e-03  3.3651028339386877e-03  2.5747051150860323e-03  1.9597034648201118e-03  1.4894003260628736e-03  1.1383891899140084e-03  8.8637168848855420e-04  7.1795635166080644e-04  6.2242003824969372e-04  5.9335910404818891e-04  6.3446656425233783e-01  6.3570217012245200e-01  6.3642704160662400e-01  6.3600285501279263e-01  6.3428481523610769e-01  6.3142352144226455e-01  6.2773885972886789e-01  6.2361668959948668e-01  6.1942808131939842e-01  6.1547325371963191e-01  6.1195535736714912e-01  6.0898606883565432e-01  6.0662635135365617e-01  6.0493736920133812e-01  6.0395160446081841e-01  6.0362981556904804e-01  6.0386049999984792e-01  6.0448090350478223e-01  6.0530501363871381e-01  6.0614395558325551e-01  6.0682587160179735e-01  6.0722281363167574e-01  6.0726174520375642e-01  6.0690766250588124e-01  6.0614507585080868e-01  6.0497453656592559e-01  6.0341647090875239e-01  6.0150978616225315e-01  5.9930644935045330e-01  5.9686548700069608e-01  5.9424799549557683e-01  5.9151402205280312e-01  5.8871994184615051e-01  5.8591379791660114e-01  5.8312905395602210e-01  5.8038278169934254e-01  5.7768947935303661e-01  5.7506162097885594e-01  5.7250698081935558e-01  5.7002806593756661e-01  5.6762245071360662e-01  5.6528335639240135e-01  5.6300029785925254e-01  5.6075981759334581e-01  5.5854648574991161e-01  5.5634417590761165e-01  5.5413763276576189e-01  5.5191417505835316e-01  5.4966521597600515e-01  5.4738636463037249e-01  5.4507220871506168e-01  5.4270290502598517e-01  5.4025302032852829e-01  5.3772220431038653e-01  5.3512878089123173e-01  5.3249823478522706e-01  5.2985695520713794e-01  5.2723092157746188e-01  5.2464984733027331e-01  5.2214860342820957e-01  5.1975056097717143e-01  5.1746925764552953e-01  5.1531357279223744e-01  5.1328936305855755e-01  5.1139972872257955e-01  5.0964501318143507e-01  5.0802277372588578e-01  5.0652755817119499e-01  5.0515039804250850e-01  5.0387796764498449e-01  5.0269199256582719e-01  5.0156961535267608e-01  5.0048508745395826e-01  4.9941212889528508e-01  4.9832621724293030e-01  4.9720623367125188e-01  4.9603548596546215e-01  4.9480215906629549e-01  4.9349948674967609e-01  4.9212567917908923e-01  4.9068374545330745e-01  4.8918084429101455e-01  4.8762662005418361e-01  4.8602972750307405e-01  4.8439407393213496e-01  4.8271817126489208e-01  4.8099865573811307e-01  4.7924013470845883e-01  4.7745205566796561e-01  4.7564352439461394e-01  4.7382108986759514e-01  4.7198824341241968e-01  4.7014582245451236e-01  4.6829287162829081e-01  4.6642768026626669e-01  4.6454878316255910e-01  4.6265581210050377e-01  4.6074987164497155e-01  4.5883330424651714e-01  4.5690898467568936e-01  4.5497963650396028e-01  4.5304754134448649e-01  4.5111474432260834e-01  4.4918355059546455e-01  4.4725705684702849e-01  4.4533935169810057e-01  4.4343523959731090e-01  4.4154944403400354e-01  4.3968553507418900e-01  4.3784486981208282e-01  4.3602585491045148e-01  4.3422376973569021e-01  4.3243135660185522e-01  4.3064004471042527e-01  4.2884153240061240e-01  4.2702925875951936e-01  4.2519944613972060e-01  4.2335144470077196e-01  4.2148723465064736e-01  4.1961012913280643e-01  4.1772312221466185e-01  4.1582750583627986e-01  4.1392242050779970e-01  4.1200533818652846e-01  4.1007312474812591e-01  4.0812320506253991e-01  4.0615420678673025e-01  4.0416560323959566e-01  4.0215729155032970e-01  4.0013063704305618e-01  3.9808969838242864e-01  3.9604008275262836e-01  3.9398674222729763e-01  3.9193235383333663e-01  3.8987721919591867e-01  3.8782064106216879e-01  3.85763030633