<?xml version="1.0"?>
<VTKFile type="UnstructuredGrid"  version="0.1"  >
<UnstructuredGrid>
<Piece  NumberOfPoints="7161" NumberOfCells="13800">
<Points>
<DataArray  type="Float64"  NumberOfComponents="3"  format="ascii">0 0 0  0.01652173913043478 0 0  0.03304347826086956 0 0  0.04956521739130434 0 0  0.06608695652173913 0 0  0.08260869565217391 0 0  0.09913043478260869 0 0  0.1156521739130435 0 0  0.1321739130434783 0 0  0.148695652173913 0 0  0.1652173913043478 0 0  0.1817391304347826 0 0  0.1982608695652174 0 0  0.2147826086956522 0 0  0.2313043478260869 0 0  0.2478260869565218 0 0  0.2643478260869565 0 0  0.2808695652173913 0 0  0.2973913043478261 0 0  0.3139130434782609 0 0  0.3304347826086956 0 0  0.3469565217391304 0 0  0.3634782608695652 0 0  0.3799999999999999 0 0  0.3965217391304348 0 0  0.4130434782608696 0 0  0.4295652173913043 0 0  0.4460869565217391 0 0  0.4626086956521739 0 0  0.4791304347826086 0 0  0.4956521739130435 0 0  0.5121739130434783 0 0  0.528695652173913 0 0  0.5452173913043478 0 0  0.5617391304347825 0 0  0.5782608695652174 0 0  0.5947826086956521 0 0  0.6113043478260869 0 0  0.6278260869565218 0 0  0.6443478260869565 0 0  0.6608695652173913 0 0  0.677391304347826 0 0  0.6939130434782609 0 0  0.7104347826086956 0 0  0.7269565217391304 0 0  0.7434782608695653 0 0  0.7599999999999999 0 0  0.7765217391304348 0 0  0.7930434782608695 0 0  0.8095652173913043 0 0  0.8260869565217391 0 0  0.8426086956521739 0 0  0.8591304347826086 0 0  0.8756521739130434 0 0  0.8921739130434783 0 0  0.908695652173913 0 0  0.9252173913043478 0 0  0.9417391304347826 0 0  0.9582608695652173 0 0  0.9747826086956521 0 0  0.991304347826087 0 0  1.007826086956522 0 0  1.024347826086957 0 0  1.040869565217391 0 0  1.057391304347826 0 0  1.073913043478261 0 0  1.090434782608696 0 0  1.10695652173913 0 0  1.123478260869565 0 0  1.14 0 0  1.156521739130435 0 0  1.17304347826087 0 0  1.189565217391304 0 0  1.206086956521739 0 0  1.222608695652174 0 0  1.239130434782609 0 0  1.255652173913044 0 0  1.272173913043478 0 0  1.288695652173913 0 0  1.305217391304348 0 0  1.321739130434783 0 0  1.338260869565217 0 0  1.354782608695652 0 0  1.371304347826087 0 0  1.387826086956522 0 0  1.404347826086957 0 0  1.420869565217391 0 0  1.437391304347826 0 0  1.453913043478261 0 0  1.470434782608696 0 0  1.486956521739131 0 0  1.503478260869565 0 0  1.52 0 0  1.536521739130435 0 0  1.55304347826087 0 0  1.569565217391304 0 0  1.586086956521739 0 0  1.602608695652174 0 0  1.619130434782609 0 0  1.635652173913043 0 0  1.652173913043478 0 0  1.668695652173913 0 0  1.685217391304348 0 0  1.701739130434782 0 0  1.718260869565217 0 0  1.734782608695652 0 0  1.751304347826087 0 0  1.767826086956522 0 0  1.784347826086957 0 0  1.800869565217391 0 0  1.817391304347826 0 0  1.833913043478261 0 0  1.850434782608696 0 0  1.86695652173913 0 0  1.883478260869565 0 0  1.9 0 0  1.916521739130435 0 0  1.933043478260869 0 0  1.949565217391304 0 0  1.966086956521739 0 0  1.982608695652174 0 0  1.999130434782608 0 0  2.015652173913043 0 0  2.032173913043478 0 0  2.048695652173913 0 0  2.065217391304348 0 0  2.081739130434782 0 0  2.098260869565217 0 0  2.114782608695652 0 0  2.131304347826087 0 0  2.147826086956522 0 0  2.164347826086956 0 0  2.180869565217391 0 0  2.197391304347826 0 0  2.213913043478261 0 0  2.230434782608695 0 0  2.24695652173913 0 0  2.263478260869565 0 0  2.28 0 0  2.296521739130434 0 0  2.31304347826087 0 0  2.329565217391304 0 0  2.346086956521739 0 0  2.362608695652174 0 0  2.379130434782609 0 0  2.395652173913044 0 0  2.412173913043478 0 0  2.428695652173913 0 0  2.445217391304348 0 0  2.461739130434782 0 0  2.478260869565217 0 0  2.494782608695652 0 0  2.511304347826087 0 0  2.527826086956522 0 0  2.544347826086956 0 0  2.560869565217391 0 0  2.577391304347826 0 0  2.593913043478261 0 0  2.610434782608696 0 0  2.62695652173913 0 0  2.643478260869565 0 0  2.66 0 0  2.676521739130435 0 0  2.693043478260869 0 0  2.709565217391304 0 0  2.726086956521739 0 0  2.742608695652174 0 0  2.759130434782609 0 0  2.775652173913044 0 0  2.792173913043478 0 0  2.808695652173913 0 0  2.825217391304347 0 0  2.841739130434783 0 0  2.858260869565217 0 0  2.874782608695652 0 0  2.891304347826087 0 0  2.907826086956522 0 0  2.924347826086957 0 0  2.940869565217391 0 0  2.957391304347826 0 0  2.973913043478261 0 0  2.990434782608696 0 0  3.006956521739131 0 0  3.023478260869565 0 0  3.04 0 0  3.056521739130435 0 0  3.073043478260869 0 0  3.089565217391304 0 0  3.106086956521739 0 0  3.122608695652174 0 0  3.139130434782609 0 0  3.155652173913043 0 0  3.172173913043478 0 0  3.188695652173913 0 0  3.205217391304347 0 0  3.221739130434782 0 0  3.238260869565217 0 0  3.254782608695652 0 0  3.271304347826087 0 0  3.287826086956521 0 0  3.304347826086957 0 0  3.320869565217391 0 0  3.337391304347826 0 0  3.353913043478261 0 0  3.370434782608696 0 0  3.386956521739131 0 0  3.403478260869565 0 0  3.419999999999999 0 0  3.436521739130435 0 0  3.453043478260869 0 0  3.469565217391304 0 0  3.486086956521739 0 0  3.502608695652174 0 0  3.519130434782609 0 0  3.535652173913043 0 0  3.552173913043478 0 0  3.568695652173913 0 0  3.585217391304347 0 0  3.601739130434782 0 0  3.618260869565217 0 0  3.634782608695652 0 0  3.651304347826087 0 0  3.667826086956521 0 0  3.684347826086956 0 0  3.700869565217391 0 0  3.717391304347826 0 0  3.733913043478261 0 0  3.750434782608695 0 0  3.766956521739131 0 0  3.783478260869565 0 0  3.8 0 0  0 0.01666666666666667 0  0.01652173913043478 0.01666666666666667 0  0.03304347826086956 0.01666666666666667 0  0.04956521739130434 0.01666666666666667 0  0.06608695652173913 0.01666666666666667 0  0.08260869565217391 0.01666666666666667 0  0.09913043478260869 0.01666666666666667 0  0.1156521739130435 0.01666666666666667 0  0.1321739130434783 0.01666666666666667 0  0.148695652173913 0.01666666666666667 0  0.1652173913043478 0.01666666666666667 0  0.1817391304347826 0.01666666666666667 0  0.1982608695652174 0.01666666666666667 0  0.2147826086956522 0.01666666666666667 0  0.2313043478260869 0.01666666666666667 0  0.2478260869565218 0.01666666666666667 0  0.2643478260869565 0.01666666666666667 0  0.2808695652173913 0.01666666666666667 0  0.2973913043478261 0.01666666666666667 0  0.3139130434782609 0.01666666666666667 0  0.3304347826086956 0.01666666666666667 0  0.3469565217391304 0.01666666666666667 0  0.3634782608695652 0.01666666666666667 0  0.3799999999999999 0.01666666666666667 0  0.3965217391304348 0.01666666666666667 0  0.4130434782608696 0.01666666666666667 0  0.4295652173913043 0.01666666666666667 0  0.4460869565217391 0.01666666666666667 0  0.4626086956521739 0.01666666666666667 0  0.4791304347826086 0.01666666666666667 0  0.4956521739130435 0.01666666666666667 0  0.5121739130434783 0.01666666666666667 0  0.528695652173913 0.01666666666666667 0  0.5452173913043478 0.01666666666666667 0  0.5617391304347825 0.01666666666666667 0  0.5782608695652174 0.01666666666666667 0  0.5947826086956521 0.01666666666666667 0  0.6113043478260869 0.01666666666666667 0  0.6278260869565218 0.01666666666666667 0  0.6443478260869565 0.01666666666666667 0  0.6608695652173913 0.01666666666666667 0  0.677391304347826 0.01666666666666667 0  0.6939130434782609 0.01666666666666667 0  0.7104347826086956 0.01666666666666667 0  0.7269565217391304 0.01666666666666667 0  0.7434782608695653 0.01666666666666667 0  0.7599999999999999 0.01666666666666667 0  0.7765217391304348 0.01666666666666667 0  0.7930434782608695 0.01666666666666667 0  0.8095652173913043 0.01666666666666667 0  0.8260869565217391 0.01666666666666667 0  0.8426086956521739 0.01666666666666667 0  0.8591304347826086 0.01666666666666667 0  0.8756521739130434 0.01666666666666667 0  0.8921739130434783 0.01666666666666667 0  0.908695652173913 0.01666666666666667 0  0.9252173913043478 0.01666666666666667 0  0.9417391304347826 0.01666666666666667 0  0.9582608695652173 0.01666666666666667 0  0.9747826086956521 0.01666666666666667 0  0.991304347826087 0.01666666666666667 0  1.007826086956522 0.01666666666666667 0  1.024347826086957 0.01666666666666667 0  1.040869565217391 0.01666666666666667 0  1.057391304347826 0.01666666666666667 0  1.073913043478261 0.01666666666666667 0  1.090434782608696 0.01666666666666667 0  1.10695652173913 0.01666666666666667 0  1.123478260869565 0.01666666666666667 0  1.14 0.01666666666666667 0  1.156521739130435 0.01666666666666667 0  1.17304347826087 0.01666666666666667 0  1.189565217391304 0.01666666666666667 0  1.206086956521739 0.01666666666666667 0  1.222608695652174 0.01666666666666667 0  1.239130434782609 0.01666666666666667 0  1.255652173913044 0.01666666666666667 0  1.272173913043478 0.01666666666666667 0  1.288695652173913 0.01666666666666667 0  1.305217391304348 0.01666666666666667 0  1.321739130434783 0.01666666666666667 0  1.338260869565217 0.01666666666666667 0  1.354782608695652 0.01666666666666667 0  1.371304347826087 0.01666666666666667 0  1.387826086956522 0.01666666666666667 0  1.404347826086957 0.01666666666666667 0  1.420869565217391 0.01666666666666667 0  1.437391304347826 0.01666666666666667 0  1.453913043478261 0.01666666666666667 0  1.470434782608696 0.01666666666666667 0  1.486956521739131 0.01666666666666667 0  1.503478260869565 0.01666666666666667 0  1.52 0.01666666666666667 0  1.536521739130435 0.01666666666666667 0  1.55304347826087 0.01666666666666667 0  1.569565217391304 0.01666666666666667 0  1.586086956521739 0.01666666666666667 0  1.602608695652174 0.01666666666666667 0  1.619130434782609 0.01666666666666667 0  1.635652173913043 0.01666666666666667 0  1.652173913043478 0.01666666666666667 0  1.668695652173913 0.01666666666666667 0  1.685217391304348 0.01666666666666667 0  1.701739130434782 0.01666666666666667 0  1.718260869565217 0.01666666666666667 0  1.734782608695652 0.01666666666666667 0  1.751304347826087 0.01666666666666667 0  1.767826086956522 0.01666666666666667 0  1.784347826086957 0.01666666666666667 0  1.800869565217391 0.0166666666666666
[...]
<PointData  Scalars="rho"> 
<DataArray  type="Float64"  Name="rho"  format="ascii">1.0000000000000000e+00  1.0000000000000000e+00  1.0000000000000000e+00  1.0000000000000000e+00  1.0000000000000000e+00  1.0000000000000000e+00  1.0000000000000000e+00  1.0000000000000000e+00  1.0000000000000000e+00  1.0000000000000000e+00  1.0000000000000000e+00  1.0000000000000000e+00  1.0000000000000000e+00  1.0000000000000000e+00  1.0000000000000000e+00  1.0000000000000000e+00  9.9944679430161087e-01  9.9886911720162463e-01  9.9837645883414594e-01  9.9797368925556029e-01  9.9765505735203430e-01  9.9740760668985873e-01  9.9721479539526825e-01  9.9705993888226618e-01  9.9053563318686277e-01  9.7136359769843117e-01  9.8503155737428949e-01  9.6549642787578671e-01  9.7815388420156069e-01  9.9670554651048693e-01  9.9680580693128695e-01  9.9695100324459607e-01  9.9712453671474865e-01  9.9730869049005710e-01  9.9748815250857081e-01  9.9765226616385161e-01  9.9779543179438590e-01  9.9791573157437052e-01  9.9801295155946046e-01  9.9808695269865899e-01  9.9813705930246344e-01  9.9816273018716906e-01  9.9816488466631770e-01  9.9814697858266888e-01  9.9811522833451360e-01  9.9807790395287466e-01  9.9804405976134258e-01  9.9802214471832673e-01  9.9801875596477385e-01  9.9803751855962664e-01  9.9807799677792053e-01  9.9813484541778963e-01  9.9819788157856926e-01  9.9825373708669096e-01  9.9828882593918855e-01  9.9829208415969739e-01  9.9825629969041629e-01  9.9817845742472966e-01  9.9806012185336646e-01  9.9790782514623044e-01  9.9773220207018054e-01  9.9754518788205482e-01  9.9735656508607873e-01  9.9717204581431462e-01  9.9699406450220518e-01  9.9682437621921594e-01  9.9666683023425651e-01  9.9652920218683427e-01  9.9642332407159540e-01  9.9636335591699887e-01  9.9636270363434543e-01  9.9643089921724848e-01  9.9657171909868314e-01  9.9678215160506090e-01  9.9705147678083184e-01  9.9736221680369019e-01  9.9769407867086568e-01  9.9802904942180126e-01  9.9835579215724213e-01  9.9867185371748313e-01  9.9898327218365612e-01  9.9930210944558961e-01  9.9964290422192248e-01  1.0000000000000000e+00  1.0000000000000000e+00  1.0000000000000000e+00  1.0000000000000000e+00  1.0000000000000000e+00  1.0000000000000000e+00  1.0000000000000000e+00  1.0000000000000000e+00  1.0000000000000000e+00  1.0000000000000000e+00  1.0000000000000000e+00  1.0000000000000000e+00  1.0000000000000000e+00  1.0000000000000000e+00  1.0000000000000000e+00  1.0000000000000000e+00  1.0000000000000000e+00  1.0000000000000000e+00  1.0000000000000000e+00  9.9952238557368278e-01  9.9919120864083666e-01  9.9901876105741183e-01  9.9896874034446492e-01  9.9899126014130435e-01  9.9903880812769930e-01  9.9908099090511426e-01  9.9911137916561410e-01  9.9914221716073459e-01  9.9919018827397588e-01  9.9926223880651022e-01  9.9934931042287878e-01  9.9943123796157607e-01  9.9948866220547850e-01  9.9951362079319783e-01  9.9951230405262137e-01  9.9950003655007791e-01  9.9949360276522670e-01  9.9950498311783020e-01  9.9953802884575627e-01  9.9958895533006054e-01  9.9965024796773194e-01  9.9971533635322141e-01  9.9978147114580118e-01  9.9985057242397402e-01  9.9992819345935580e-01  1.0000000000000000e+00  1.0000000000000000e+00  1.0000000000000000e+00  1.0000000000000000e+00  1.0000000000000000e+00  1.0000000000000000e+00  1.0000000000000000e+00  1.0000000000000000e+00  1.0000000000000000e+00  1.0000000000000000e+00  1.0000000000000000e+00  1.0000000000000000e+00  1.0000000000000000e+00  1.0000000000000000e+00  1.0000000000000000e+00  1.0000000000000000e+00  1.0000000000000000e+00  1.0000000000000000e+00  1.0000000000000000e+00  1.0000000000000000e+00  1.0000000000000000e+00  1.0000000000000000e+00  1.0000000000000000e+00  1.0000000000000000e+00  1.0000000000000000e+00  1.0000000000000000e+00  1.0000000000000000e+00  1.0000000000000000e+00  1.0000000000000000e+00  1.0000000000000000e+00  1.0000000000000000e+00  1.0000000000000000e+00  1.0000000000000000e+00  1.0000000000000000e+00  1.0000000000000000e+00  1.0000000000000000e+00  1.0000000000000000e+00  1.0000000000000000e+00  1.0000000000000000e+00  1.0000000000000000e+00  1.0000000000000000e+00  1.0000000000000000e+00  1.0000000000000000e+00  1.0000000000000000e+00  1.0000000000000000e+00  1.0000000000000000e+00  1.0000000000000000e+00  1.0000000000000000e+00  1.0000000000000000e+00  1.0000000000000000e+00  1.0000000000000000e+00  1.0000000000000000e+00  1.0000000000000000e+00  9.9060861455837557e-01  9.6780510370665918e-01  9.6702991643706737e-01  9.5859256222283717e-01  9.5530163503733023e-01  6.0487850795246534e-01  5.8098908825893869e-01  5.3927455644593003e-01  4.2632957335812321e-01  3.7874226109090126e-01  3.4072556536771159e-01  1.1251865964852257e-02  1.0315826647671522e-02  9.0708687540430599e-03  7.5722435517355524e-03  5.8953164276740666e-03  4.1321530002117633e-03  2.3793112338715743e-03  7.2340458419957844e-04  0.0000000000000000e+00  0.0000000000000000e+00  0.0000000000000000e+00  0.0000000000000000e+00  0.0000000000000000e+00  0.0000000000000000e+00  0.0000000000000000e+00  0.0000000000000000e+00  0.0000000000000000e+00  0.0000000000000000e+00  0.0000000000000000e+00  0.0000000000000000e+00  0.0000000000000000e+00  0.0000000000000000e+00  0.0000000000000000e+00  0.0000000000000000e+00  0.0000000000000000e+00  0.0000000000000000e+00  0.0000000000000000e+00  0.0000000000000000e+00  0.0000000000000000e+00  0.0000000000000000e+00  0.0000000000000000e+00  0.0000000000000000e+00  0.0000000000000000e+00  0.0000000000000000e+00  0.0000000000000000e+00  0.0000000000000000e+00  0.0000000000000000e+00  0.0000000000000000e+00  0.0000000000000000e+00  1.0000000000000000e+00  1.0000000000000000e+00  1.0000000000000000e+00  1.0000000000000000e+00  1.0000000000000000e+00  1.0000000000000000e+00  1.0000000000000000e+00  1.0000000000000000e+00  1.0000000000000000e+00  1.0000000000000000e+00  1.0000000000000000e+00  1.0000000000000000e+00  1.0000000000000000e+00  1.0000000000000000e+00  1.0000000000000000e+00  9.9951741492751933e-01  9.9852354981727864e-01  9.9762133607101677e-01  9.9684477932026316e-01  9.9620972256736007e-01  9.9571395899390480e-01  9.9534097585598591e-01  9.9506529110503306e-01  9.9485826503121066e-01  9.9392281530859450e-01  9.6619144261707912e-01  9.8123751566289452e-01  9.6941498484725264e-01  9.8445555520259331e-01  9.9416040973577458e-01  9.9447776321962578e-01  9.9465060738263900e-01  9.9486042078411052e-01  9.9508286975722426e-01  9.9529789331243124e-01  9.9549268410060310e-01  9.9566147183644571e-01  9.9580237507377178e-01  9.9591423717511740e-01  9.9599481504335918e-01  9.9604036805202512e-01  9.9604733400566814e-01  9.9601506742577273e-01  9.9594808898916176e-01  9.9585666569237352e-01  9.9575556494955775e-01  9.9566164239698141e-01  9.9559103748354350e-01  9.9555652722188415e-01  9.9556546078483765e-01  9.9561809102028953e-01  9.9570653142295196e-01  9.9581500701318515e-01  9.9592175555209028e-01  9.9600312966385418e-01  9.9603861405653149e-01  9.9601392381909404e-01  9.9592186351865042e-01  9.9576269977021559e-01  9.9554468859312306e-01  9.9528338106069747e-01  9.9499808446267568e-01  9.9470624061892110e-01  9.9441929883166502e-01  9.9414280888403428e-01  9.9387977221078072e-01  9.9363546384883439e-01  9.9342190512339756e-01  9.9325927603221253e-01  9.9317351847567470e-01  9.9319070634219908e-01  9.9333045394078823e-01  9.9360135179931630e-01  9.9399853927672965e-01  9.9450140743084403e-01  9.9507504898781418e-01  9.9567827327003822e-01  9.9627390156474083e-01  9.9683777261136741e-01  9.9736347837621553e-01  9.9786199739808190e-01  9.9835747271524633e-01  9.9888071704687731e-01  9.9946234063679562e-01  1.0000000000000000e+00  1.0000000000000000e+00  1.0000000000000000e+00  1.0000000000000000e+00  1.0000000000000000e+00  1.0000000000000000e+00  1.0000000000000000e+00  1.0000000000000000e+00  1.0000000000000000e+00  1.0000000000000000e+00  1.0000000000000000e+00  1.0000000000000000e+00  1.0000000000000000e+00  1.0000000000000000e+00  1.0000000000000000e+00  1.0000000000000000e+00  1.0000000000000000e+00  9.9955322627062504e-01  9.9883007513282351e-01  9.9842078120948519e-01  9.9829621170983329e-01  9.9837742290119214e-01  9.9855737211145823e-01  9.9873331961696188e-01  9.9883822110042608e-01  9.9885735902516448e-01  9.9882060690642771e-01  9.9877483985928706e-01  9.9875434152545672e-01  9.9876437441125698e-01  9.9878478922148739e-01  9.9878824061480198e-01  9.9875949980476320e-01  9.9870412725414681e-01  9.9864372503280241e-01  9.9860456062153624e-01  9.9860699394233132e-01  9.9865913402877349e-01  9.9875621122046365e-01  9.9888545045592847e-01  9.9903328546950387e-01  9.9919079899657703e-01  9.9935587670302128e-01  9.9953236461284745e-01  9.9972634078746303e-01  9.9994118125548237e-01  1.0000000000000000e+00  1.0000000000000000e+00  1.0000000000000000e+00  1.0000000000000000e+00  1.0000000000000000e+00  1.0000000000000000e+00  1.0000000000000000e+00  1.0000000000000000e+00  1.0000000000000000e+00  1.0000000000000000e+00  1.0000000000000000e+00  1.0000000000000000e+00  1.0000000000000000e+00  1.0000000000000000e+00  1.0000000000000000e+00  1.0000000000000000e+00  1.0000000000000000e+00  1.0000000000000000e+00  1.0000000000000000e+00  1.0000000000000000e+00  1.0000000000000000e+00  1.0000000000000000e+00  1.0000000000000000e+00  1.0000000000000000e+00  1.0000000000000000e+00  1.0000000000000000e+00  1.0000000000000000e+00  1.0000000000000000e+00  1.0000000000000000e+00  1.0000000000000000e+00  1.0000000000000000e+00  1.0000000000000000e+00  1.0000000000000000e+00  1.0000000000000000e+00  1.0000000000000000e+00  1.0000000000000000e+00  1.0000000000000000e+00  1.0000000000000000e+00  1.0000000000000000e+00  1.0000000000000000e+00  1.0000000000000000e+00  1.0000000000000000e+00  1.0000000000000000e+00  1.0000000000000000e+00  1.0000000000000000e+00  1.0000000000000000e+00  9.3229023784387599e-01  9.2421969040277185e-01  1.0000000000000000e+00  1.0000000000000000e+00  6.8505999376759996e-01  6.6789252414240219e-01  7.6105843204096868e-01  7.0496417641097042e-01  6.6284843966114015e-01  6.3887811817588847e-01  6.2848997640496029e-01  6.1899544381040106e-01  5.9353969476243273e-01  4.6224136157230866e-01  4.1353316135057561e-01  3.6566386381060534e-01  3.1000050470443818e-01  1.7104000743462480e-02  1.5551688165059521e-02  1.3519671394395340e-02  1.1073478561336121e-02  8.3247344617319065e-03  5.4194177627049627e-03  2.5150131307009383e-03  0.0000000000000000e+00  0.0000000000000000e+00  0.0000000000000000e+00  0.0000000000000000e+00  0.0000000000000000e+00  0.0000000000000000e+00  0.0000000000000000e+00  0.0000000000000000e+00  0.0000000000000000e+00  0.0000000000000000e+00  0.0000000000000000e+00  0.0000000000000000e+00  0.0000000000000000e+00  0.0000000000000000e+00  0.0000000000000000e+00  0.0000000000000000e+00  0.0000000000000000e+00  0.0000000000000000e+00  0.0000000000000000e+00  0.0000000000000000e+00  0.0000000000000000e+00  0.0000000000000000e+00  0.0000000000000000e+00  0.0000000000000000e+00  0.0000000000000000e+00  0.0000000000000000e+00  0.0000000000000000e+00  0.0000000000000000e+00  0.0000000000000000e+00  0.0000000000000000e+00  0.0000000000000000e+00  1.0000000000000000e+00  1.0000000000000000e+00  1.0000000000000000e+00  1.0000000000000000e+00  1.0000000000000000e+00  1.0000000000000000e+00  1.0000000000000000e+00  1.0000000000000000e+00  1.0000000000000000e+00  1.0000000000000000e+00  1.0000000000000000e+00  1.0000000000000000e+00  9.9932857725803903e-01  9.9857524376105544e-01  9.9782172028234384e-01  9.9708939395943963e-01  9.9641086628257636e-01  9.9582060580848497e-01  9.9534539489132123e-01  9.9499811111687553e-01  9.9477647167071370e-01  9.9466427925462841e-01  9.9463448673950328e-01  9.9465412779241080e-01  9.9468836224503188e-01  9.9000752942998416e-01  9.5111780801002865e-01  9.4303911460682543e-01  8.9892226510182682e-01  8.8333524774547389e-01  8.7206836116211495e-01  9.9434358110652710e-01  9.9430076761279484e-01  9.9426167319539138e-01  9.9422306762455670e-01  9.9418659710708379e-01  9.9415626795487588e-01  9.9413242367463028e-01  9.9410842035460756e-01  9.9407262109923700e-01  9.9401118534163002e-01  9.9391218777215018e-01  9.9376989021995399e-01  9.9358755274399901e-01  9.9337758518790709e-01  9.9315911905315435e-01  9.9295431865025008e-01  9.9278451706036408e-01  9.9266629392558670e-01  9.9260875905585422e-01  9.9261227383254591e-01  9.9266822925478271e-01  9.9276115373646534e-01  9.9287047775179427e-01  9.9297233122113004e-01  9.9304403878260206e-01  9.9306859119059521e-01  9.9303629859038689e-01  9.9294536262252897e-01  9.9280197003265680e-01  9.9261915843847637e-01  9.9241396277039506e-01  9.9220254544768938e-01  9.9199599664615001e-01  9.9180097000922907e-01  9.9162218722084350e-01  9.9146528510957421e-01  9.9134220120993000e-01  9.9127395841923105e-01  9.9128882340489666e-01  9.9141596361238382e-01  9.9167726364935560e-01  9.9208182265977973e-01  9.9262415339976207e-01  9.9327935762276631e-01  9.9400124161513126e-01  9.9473322499159755e-01  9.9542321595706640e-01  9.9603739776553601e-01  9.9656789599023177e-01  9.9703281926228837e-01  9.9747098919559929e-01  9.9793343984400373e-01  9.9847294172890222e-01  9.9913474529799717e-01  9.9994949394257759e-01  1.0000000000000000e+00  1.0000000000000000e+00  1.0000000000000000e+00  1.0000000000000000e+00  1.0000000000000000e+00  1.0000000000000000e+00  1.0000000000000000e+00  1.0000000000000000e+00  1.0000000000000000e+00  1.0000000000000000e+00  1.0000000000000000e+00  1.0000000000000000e+00  1.0000000000000000e+00  1.0000000000000000e+00  9.9879023874106099e-01  9.9796071223564020e-01  9.9758275425940313e-01  9.9765262120574405e-01  9.9808514293281947e-01  9.9872521098097289e-01  9.9938224263543696e-01  9.9988180193933285e-01  1.0000000000000000e+00  9.2841438347724203e-01  8.9876395243415630e-01  8.5284985044423045e-01  7.6462747888775340e-01  7.7424165672721634e-01  7.8305182725229394e-01  8.2490167647360413e-01  9.2212007246031058e-01  9.9766706679002726e-01  9.9748897462192254e-01  9.9737915721963866e-01  9.9735556355173072e-01  9.9742441766687806e-01  8.8924415766952958e-01  8.9301641454442304e-01  8.9352570803866549e-01  8.8986088159801013e-01  8.8248497027984574e-01  8.7309929293139343e-01  9.9938878323067992e-01  9.9973065188656207e-01  8.5637767156159772e-01  8.5490474251715010e-01  8.5462461109475041e-01  8.5418146099809800e-01  7.1326178425974729e-01  7.0928066193167127e-01  7.0550482349615551e-01  7.0108189248780062e-01  6.5129475002001169e-01  6.9411901308136981e-01  6.9138392518505587e-01  6.8986789425402639e-01  6.8888330740898696e-01  6.8652239859801656e-01  6.8304673366588831e-01  6.2577044003019755e-01  6.1976960445163998e-01  6.1312511981160289e-01  5.8980943209828818e-01  5.9917053434706846e-01  5.9264257219304850e-01  7.4338180106541740e-01  6.2180671074167526e-01  6.1534271268719931e-01  6.0918953686936339e-01  6.9107231535400471e-01  6.7889532299302791e-01  5.9029105947877436e-01  5.8354581125612104e-01  5.6031780573377410e-01  5.4415639729127985e-01  5.3731338076509849e-01  5.3288617699219931e-01  5.2872173639889197e-01  5.2782010859835837e-01  5.2409343443290601e-01  5.2055926680998377e-01  5.1663668066560786e-01  5.1317445643976090e-01  5.0895887311121590e-01  5.0429199361621213e-01  4.9536400514154616e-01  4.9027841848471260e-01  4.8524807926959362e-01  4.8189342762804449e-01  4.8141311877089660e-01  4.8424708289953539e-01  4.9062658696575051e-01  5.0723500457476767e-01  4.1396816993932500e-01  4.3283654817889428e-01  4.3670107254002832e-01  4.4075099700789283e-01  4.4170131261178736e-01  4.5438283725290857e-01  4.5557823066071684e-01  4.5504633308607606e-01  4.5787750558279955e-01  4.5866821286643455e-01  4.5088886377858473e-01  4.2549737657632902e-01  3.6991146357383781e-01  3.4006612491396537e-01  3.1201273543793007e-01  1.8314521396207609e-02  1.6444046845626264e-02  1.4052367768647477e-02  1.1231398187000214e-02  8.1351631685466202e-03  4.9470528536097146e-03  1.8500301224797266e-03  0.0000000000000000e+00  0.0000000000000000e+00  0.0000000000000000e+00  0.0000000000000000e+00  0.0000000000000000e+00  0.0000000000000000e+00  0.0000000000000000e+00  0.0000000000000000e+00  0.0000000000000000e+00  0.0000000000000000e+00  0.0000000000000000e+00  0.0000000000000000e+00  0.0000000000000000e+00  0.0000000000000000e+00  0.0000000000000000e+00  0.0000000000000000e+00  0.0000000000000000e+00  0.0000000000000000e+00  0.0000000000000000e+00  0.0000000000000000e+00  0.0000000000000000e+00  0.0000000000000000e+00  0.0000000000000000e+00  0.0000000000000000e+00  0.0000000000000000e+00  0.0000000000000000e+00  0.0000000000000000e+00  0.0000000000000000e+00  0.0000000000000000e+00  0.0000000000000000e+00  1.0000000000000000e+00  1.0000000000000000e+00  1.0000000000000000e+00  1.0000000000000000e+00  1.0000000000000000e+00  1.0000000000000000e+00  9.9984865202849593e-01  9.9873886768414932e-01  9.9772137857061849e-01  9.9682192569473682e-01  9.9604792645753237e-01  9.9538788455701943e-01  9.9481922980626547e-01  9.9432182415366588e-01  9.9388632629619289e-01  9.9351621095290221e-01  9.9322570493915330e-01  9.9303466971834675e-01  9.9296088383520575e-01  9.9301319601634941e-01  9.9318951509820386e-01  9.9347533116675357e-01  9.9384202841066316e-01  9.9424998475124049e-01  9.9465017988242665e-01  9.9498718492654592e-01  9.5832769979867427e-01  7.2695325109084996e-01  6.7949221471754806e-01  6.5878382482920794e-01  6.4317234476598883e-01  6.4182901107264789e-01  6.1649659046619076e-01  6.1401160802175780e-01  6.4596257632821286e-01  6.6477877224502580e-01  6.8187449919044951e-01  9.1832752480319313e-01  9.5982949633356385e-01  9.9203278871976419e-01  9.9185068366437856e-01  9.9162032508506515e-01  9.9132705157654166e-01  9.9097296921747258e-01  9.9057617453407965e-01  9.9016576363018027e-01  9.7327028579615993e-01  9.1495000488728218e-01  9.1576884488858246e-01  8.6983579422157875e-01  8.9508120340596109e-01  9.0229510129032997e-01  7.8065836325756033e-01  6.4939287115122901e-01  6.6511652878027872e-01  6.7809404801409678e-01  6.9445122946759663e-01  6.9692656507513151e-01  6.1276631763948364e-01  6.0875772589736721e-01  7.0993168564621856e-01  7.6246895340939169e-01  8.2923442855874885e-01  9.1186116418618235e-01  6.9699649236605898e-01  7.1195940183558293e-01  7.4561237232288868e-01  8.0403832879921910e-01  8.2676739582409853e-01  8.6070000957383475e-01  9.2733216824939879e-01  9.8952492211806287e-01  9.3873483088717724e-01  6.3397801379615404e-01  6.3496692883847416e-01  5.8655897078098518e-01  6.2585398774771905e-01  6.0808766222152355e-01  5.8934238177110676e-01  5.6973692006544741e-01  6.6352657383828650e-01  6.1953693428792533e-01  5.7589365261227388e-01  5.0450425958466139e-01  4.8927587907935760e-01  5.0307344681775779e-01  5.1666429050971496e-01  5.4847183339202621e-01  5.9303282235389954e-01  9.9628202674937161e-01  1.0000000000000000e+00  1.0000000000000000e+00  1.0000000000000000e+00  7.3829072921029049e-01  7.4670733224983354e-01  7.2846620140162377e-01  6.8597944000922895e-01  6.2559620403065297e-01  5.5853459654217963e-01  4.9026992584840451e-01  4.4895324546637894e-01  4.2374707517872295e-01  4.1956906786836795e-01  4.2967658750815868e-01  4.4330620431915191e-01  4.4905946360404758e-01  4.2157265261590682e-01  3.8781245989250629e-01  4.3046264370895704e-01  4.1286503703307309e-01  3.7927826617446658e-01  3.4479703137765150e-01  3.2628383105616349e-01  3.1498388678699718e-01  6.3700945303364717e-02  5.8972931790724659e-02  5.6635707521610790e-02  5.2775297841666263e-02  0.0000000000000000e+00  7.8074715340083922e-02  7.8631869981321115e-02  8.3433718867379270e-02  9.6676121895458947e-02  1.1299114258040958e-01  1.2817565479407575e-01  1.3987783413048022e-01  1.4759681336113079e-01  1.5276446425227042e-01  1.5794289312141152e-01  1.6561207166821421e-01  1.7680274890750416e-01  1.9073693709767545e-01  2.0539682198691753e-01  2.1860918761240994e-01  2.2870274777142682e-01  2.3503475437367322e-01  2.3811862793933666e-0