<?xml version="1.0"?>
<VTKFile type="UnstructuredGrid"  version="0.1"  >
<UnstructuredGrid>
<Piece  NumberOfPoints="7161" NumberOfCells="13800">
<Points>
<DataArray  type="Float64"  NumberOfComponents="3"  format="ascii">0 0 0  0.01652173913043478 0 0  0.03304347826086956 0 0  0.04956521739130434 0 0  0.06608695652173913 0 0  0.08260869565217391 0 0  0.09913043478260869 0 0  0.1156521739130435 0 0  0.1321739130434783 0 0  0.148695652173913 0 0  0.1652173913043478 0 0  0.1817391304347826 0 0  0.1982608695652174 0 0  0.2147826086956522 0 0  0.2313043478260869 0 0  0.2478260869565218 0 0  0.2643478260869565 0 0  0.2808695652173913 0 0  0.2973913043478261 0 0  0.3139130434782609 0 0  0.3304347826086956 0 0  0.3469565217391304 0 0  0.3634782608695652 0 0  0.3799999999999999 0 0  0.3965217391304348 0 0  0.4130434782608696 0 0  0.4295652173913043 0 0  0.4460869565217391 0 0  0.4626086956521739 0 0  0.4791304347826086 0 0  0.4956521739130435 0 0  0.5121739130434783 0 0  0.528695652173913 0 0  0.5452173913043478 0 0  0.5617391304347825 0 0  0.5782608695652174 0 0  0.5947826086956521 0 0  0.6113043478260869 0 0  0.6278260869565218 0 0  0.6443478260869565 0 0  0.6608695652173913 0 0  0.677391304347826 0 0  0.6939130434782609 0 0  0.7104347826086956 0 0  0.7269565217391304 0 0  0.7434782608695653 0 0  0.7599999999999999 0 0  0.7765217391304348 0 0  0.7930434782608695 0 0  0.8095652173913043 0 0  0.8260869565217391 0 0  0.8426086956521739 0 0  0.8591304347826086 0 0  0.8756521739130434 0 0  0.8921739130434783 0 0  0.908695652173913 0 0  0.9252173913043478 0 0  0.9417391304347826 0 0  0.9582608695652173 0 0  0.9747826086956521 0 0  0.991304347826087 0 0  1.007826086956522 0 0  1.024347826086957 0 0  1.040869565217391 0 0  1.057391304347826 0 0  1.073913043478261 0 0  1.090434782608696 0 0  1.10695652173913 0 0  1.123478260869565 0 0  1.14 0 0  1.156521739130435 0 0  1.17304347826087 0 0  1.189565217391304 0 0  1.206086956521739 0 0  1.222608695652174 0 0  1.239130434782609 0 0  1.255652173913044 0 0  1.272173913043478 0 0  1.288695652173913 0 0  1.305217391304348 0 0  1.321739130434783 0 0  1.338260869565217 0 0  1.354782608695652 0 0  1.371304347826087 0 0  1.387826086956522 0 0  1.404347826086957 0 0  1.420869565217391 0 0  1.437391304347826 0 0  1.453913043478261 0 0  1.470434782608696 0 0  1.486956521739131 0 0  1.503478260869565 0 0  1.52 0 0  1.536521739130435 0 0  1.55304347826087 0 0  1.569565217391304 0 0  1.586086956521739 0 0  1.602608695652174 0 0  1.619130434782609 0 0  1.635652173913043 0 0  1.652173913043478 0 0  1.668695652173913 0 0  1.685217391304348 0 0  1.701739130434782 0 0  1.718260869565217 0 0  1.734782608695652 0 0  1.751304347826087 0 0  1.767826086956522 0 0  1.784347826086957 0 0  1.800869565217391 0 0  1.817391304347826 0 0  1.833913043478261 0 0  1.850434782608696 0 0  1.86695652173913 0 0  1.883478260869565 0 0  1.9 0 0  1.916521739130435 0 0  1.933043478260869 0 0  1.949565217391304 0 0  1.966086956521739 0 0  1.982608695652174 0 0  1.999130434782608 0 0  2.015652173913043 0 0  2.032173913043478 0 0  2.048695652173913 0 0  2.065217391304348 0 0  2.081739130434782 0 0  2.098260869565217 0 0  2.114782608695652 0 0  2.131304347826087 0 0  2.147826086956522 0 0  2.164347826086956 0 0  2.180869565217391 0 0  2.197391304347826 0 0  2.213913043478261 0 0  2.230434782608695 0 0  2.24695652173913 0 0  2.263478260869565 0 0  2.28 0 0  2.296521739130434 0 0  2.31304347826087 0 0  2.329565217391304 0 0  2.346086956521739 0 0  2.362608695652174 0 0  2.379130434782609 0 0  2.395652173913044 0 0  2.412173913043478 0 0  2.428695652173913 0 0  2.445217391304348 0 0  2.461739130434782 0 0  2.478260869565217 0 0  2.494782608695652 0 0  2.511304347826087 0 0  2.527826086956522 0 0  2.544347826086956 0 0  2.560869565217391 0 0  2.577391304347826 0 0  2.593913043478261 0 0  2.610434782608696 0 0  2.62695652173913 0 0  2.643478260869565 0 0  2.66 0 0  2.676521739130435 0 0  2.693043478260869 0 0  2.709565217391304 0 0  2.726086956521739 0 0  2.742608695652174 0 0  2.759130434782609 0 0  2.775652173913044 0 0  2.792173913043478 0 0  2.808695652173913 0 0  2.825217391304347 0 0  2.841739130434783 0 0  2.858260869565217 0 0  2.874782608695652 0 0  2.891304347826087 0 0  2.907826086956522 0 0  2.924347826086957 0 0  2.940869565217391 0 0  2.957391304347826 0 0  2.973913043478261 0 0  2.990434782608696 0 0  3.006956521739131 0 0  3.023478260869565 0 0  3.04 0 0  3.056521739130435 0 0  3.073043478260869 0 0  3.089565217391304 0 0  3.106086956521739 0 0  3.122608695652174 0 0  3.139130434782609 0 0  3.155652173913043 0 0  3.172173913043478 0 0  3.188695652173913 0 0  3.205217391304347 0 0  3.221739130434782 0 0  3.238260869565217 0 0  3.254782608695652 0 0  3.271304347826087 0 0  3.287826086956521 0 0  3.304347826086957 0 0  3.320869565217391 0 0  3.337391304347826 0 0  3.353913043478261 0 0  3.370434782608696 0 0  3.386956521739131 0 0  3.403478260869565 0 0  3.419999999999999 0 0  3.436521739130435 0 0  3.453043478260869 0 0  3.469565217391304 0 0  3.486086956521739 0 0  3.502608695652174 0 0  3.519130434782609 0 0  3.535652173913043 0 0  3.552173913043478 0 0  3.568695652173913 0 0  3.585217391304347 0 0  3.601739130434782 0 0  3.618260869565217 0 0  3.634782608695652 0 0  3.651304347826087 0 0  3.667826086956521 0 0  3.684347826086956 0 0  3.700869565217391 0 0  3.717391304347826 0 0  3.733913043478261 0 0  3.750434782608695 0 0  3.766956521739131 0 0  3.783478260869565 0 0  3.8 0 0  0 0.01666666666666667 0  0.01652173913043478 0.01666666666666667 0  0.03304347826086956 0.01666666666666667 0  0.04956521739130434 0.01666666666666667 0  0.06608695652173913 0.01666666666666667 0  0.08260869565217391 0.01666666666666667 0  0.09913043478260869 0.01666666666666667 0  0.1156521739130435 0.01666666666666667 0  0.1321739130434783 0.01666666666666667 0  0.148695652173913 0.01666666666666667 0  0.1652173913043478 0.01666666666666667 0  0.1817391304347826 0.01666666666666667 0  0.1982608695652174 0.01666666666666667 0  0.2147826086956522 0.01666666666666667 0  0.2313043478260869 0.01666666666666667 0  0.2478260869565218 0.01666666666666667 0  0.2643478260869565 0.01666666666666667 0  0.2808695652173913 0.01666666666666667 0  0.2973913043478261 0.01666666666666667 0  0.3139130434782609 0.01666666666666667 0  0.3304347826086956 0.01666666666666667 0  0.3469565217391304 0.01666666666666667 0  0.3634782608695652 0.01666666666666667 0  0.3799999999999999 0.01666666666666667 0  0.3965217391304348 0.01666666666666667 0  0.4130434782608696 0.01666666666666667 0  0.4295652173913043 0.01666666666666667 0  0.4460869565217391 0.01666666666666667 0  0.4626086956521739 0.01666666666666667 0  0.4791304347826086 0.01666666666666667 0  0.4956521739130435 0.01666666666666667 0  0.5121739130434783 0.01666666666666667 0  0.528695652173913 0.01666666666666667 0  0.5452173913043478 0.01666666666666667 0  0.5617391304347825 0.01666666666666667 0  0.5782608695652174 0.01666666666666667 0  0.5947826086956521 0.01666666666666667 0  0.6113043478260869 0.01666666666666667 0  0.6278260869565218 0.01666666666666667 0  0.6443478260869565 0.01666666666666667 0  0.6608695652173913 0.01666666666666667 0  0.677391304347826 0.01666666666666667 0  0.6939130434782609 0.01666666666666667 0  0.7104347826086956 0.01666666666666667 0  0.7269565217391304 0.01666666666666667 0  0.7434782608695653 0.01666666666666667 0  0.7599999999999999 0.01666666666666667 0  0.7765217391304348 0.01666666666666667 0  0.7930434782608695 0.01666666666666667 0  0.8095652173913043 0.01666666666666667 0  0.8260869565217391 0.01666666666666667 0  0.8426086956521739 0.01666666666666667 0  0.8591304347826086 0.01666666666666667 0  0.8756521739130434 0.01666666666666667 0  0.8921739130434783 0.01666666666666667 0  0.908695652173913 0.01666666666666667 0  0.9252173913043478 0.01666666666666667 0  0.9417391304347826 0.01666666666666667 0  0.9582608695652173 0.01666666666666667 0  0.9747826086956521 0.01666666666666667 0  0.991304347826087 0.01666666666666667 0  1.007826086956522 0.01666666666666667 0  1.024347826086957 0.01666666666666667 0  1.040869565217391 0.01666666666666667 0  1.057391304347826 0.01666666666666667 0  1.073913043478261 0.01666666666666667 0  1.090434782608696 0.01666666666666667 0  1.10695652173913 0.01666666666666667 0  1.123478260869565 0.01666666666666667 0  1.14 0.01666666666666667 0  1.156521739130435 0.01666666666666667 0  1.17304347826087 0.01666666666666667 0  1.189565217391304 0.01666666666666667 0  1.206086956521739 0.01666666666666667 0  1.222608695652174 0.01666666666666667 0  1.239130434782609 0.01666666666666667 0  1.255652173913044 0.01666666666666667 0  1.272173913043478 0.01666666666666667 0  1.288695652173913 0.01666666666666667 0  1.305217391304348 0.01666666666666667 0  1.321739130434783 0.01666666666666667 0  1.338260869565217 0.01666666666666667 0  1.354782608695652 0.01666666666666667 0  1.371304347826087 0.01666666666666667 0  1.387826086956522 0.01666666666666667 0  1.404347826086957 0.01666666666666667 0  1.420869565217391 0.01666666666666667 0  1.437391304347826 0.01666666666666667 0  1.453913043478261 0.01666666666666667 0  1.470434782608696 0.01666666666666667 0  1.486956521739131 0.01666666666666667 0  1.503478260869565 0.01666666666666667 0  1.52 0.01666666666666667 0  1.536521739130435 0.01666666666666667 0  1.55304347826087 0.01666666666666667 0  1.569565217391304 0.01666666666666667 0  1.586086956521739 0.01666666666666667 0  1.602608695652174 0.01666666666666667 0  1.619130434782609 0.01666666666666667 0  1.635652173913043 0.01666666666666667 0  1.652173913043478 0.01666666666666667 0  1.668695652173913 0.01666666666666667 0  1.685217391304348 0.01666666666666667 0  1.701739130434782 0.01666666666666667 0  1.718260869565217 0.01666666666666667 0  1.734782608695652 0.01666666666666667 0  1.751304347826087 0.01666666666666667 0  1.767826086956522 0.01666666666666667 0  1.784347826086957 0.01666666666666667 0  1.800869565217391 0.0166666666666666
[...]
<PointData  Scalars="rho_bar"> 
<DataArray  type="Float64"  Name="rho_bar"  format="ascii">9.3305323556475572e-01  9.3058699470359674e-01  9.2715516803045617e-01  9.2234596151204118e-01  9.1620753035877978e-01  9.0887724574545070e-01  9.0041215983622291e-01  8.9083023178120158e-01  8.8036236398815215e-01  8.6971187279374595e-01  8.5993520647499855e-01  8.5197987059222335e-01  8.4641485198653788e-01  8.4345981130350201e-01  8.4313249559110126e-01  8.4534205741815671e-01  8.4984521377294364e-01  8.5606257270399067e-01  8.6287132684574241e-01  8.6858986548646544e-01  8.7117190775850728e-01  8.6827762486637106e-01  8.5710473547624177e-01  8.3487948900433917e-01  8.0248242414977655e-01  7.7017522161729135e-01  7.5151268626985079e-01  7.4908171146092761e-01  7.5431978833455759e-01  7.6008490103715243e-01  7.6412328145347408e-01  7.6627131149908523e-01  7.6713747732900217e-01  7.6742761933403203e-01  7.6760905314301597e-01  7.6787061108323507e-01  7.6818260897770207e-01  7.6826150930621206e-01  7.6774240031439478e-01  7.6649756132897862e-01  7.6468778033221230e-01  7.6264556924277460e-01  7.6071355225724346e-01  7.5912670150107220e-01  7.5796378833558453e-01  7.5715837520205376e-01  7.5657620583665197e-01  7.5614326135971999e-01  7.5588696167301250e-01  7.5582076281306365e-01  7.5584757089653498e-01  7.5580105520860918e-01  7.5566155278219871e-01  7.5561574154246436e-01  7.5578632381517119e-01  7.5605798161554183e-01  7.5621784940448034e-01  7.5620019450879516e-01  7.5621359219594342e-01  7.5655665518259108e-01  7.5728384776166724e-01  7.5813490817782447e-01  7.5871961020961265e-01  7.5878905387023010e-01  7.5847922729670247e-01  7.5817909417089191e-01  7.5818244740238183e-01  7.5861606056539033e-01  7.5945143858144337e-01  7.6049537204494622e-01  7.6134829696594264e-01  7.6157669042631093e-01  7.6109649689103731e-01  7.6035975247061749e-01  7.5994928777468029e-01  7.6007585895982899e-01  7.6062486915016214e-01  7.6140317566265758e-01  7.6229490908313036e-01  7.6317613163152487e-01  7.6368717775348705e-01  7.6322415623426354e-01  7.6124559352438936e-01  7.5756591357006020e-01  7.5261085146710638e-01  7.4754552361090787e-01  7.4389332257317586e-01  7.4304863236097785e-01  7.4612605637423224e-01  7.5349616506943151e-01  7.6451708158798815e-01  7.7741649149880498e-01  7.8945693750392332e-01  7.9802721158277790e-01  8.0141651638542188e-01  7.9879624107106595e-01  7.9032867729849399e-01  7.7745276464826552e-01  7.6270653978170966e-01  7.4898618690914076e-01  7.3859844225226146e-01  7.3230842084314474e-01  7.2907712296043137e-01  7.2641689205828408e-01  7.2099671376290841e-01  7.0970973179574459e-01  6.9185438731272664e-01  6.7118196011212472e-01  6.5343714166452860e-01  6.4139859680263289e-01  6.3447175269313205e-01  6.3173528944755575e-01  6.3257813422048870e-01  6.3583759314603960e-01  6.3963594104036603e-01  6.4255395736272680e-01  6.4401001972694483e-01  6.4390157609960086e-01  6.4259273321678378e-01  6.4061634644029408e-01  6.3825466428030364e-01  6.3572688076371986e-01  6.3345149283673508e-01  6.3186110778546012e-01  6.3103076673193881e-01  6.3085818979437747e-01  6.3124301490458168e-01  6.3203507566142669e-01  6.3278844302621884e-01  6.3301349074650493e-01  6.3294659179428858e-01  6.3318866541055674e-01  6.3383208586390294e-01  6.3459120597534513e-01  6.3544723699338013e-01  6.3661202788781845e-01  6.3802079560976388e-01  6.3952936203989341e-01  6.4117273912486916e-01  6.4302732846129174e-01  6.4502921523160883e-01  6.4710648471633425e-01  6.4914616743403708e-01  6.5090751656975709e-01  6.5196924943203793e-01  6.5178578371165685e-01  6.4980817658379342e-01  6.4564114166337250e-01  6.3931924575042909e-01  6.3160237434020172e-01  6.2375775514171572e-01  6.1656216913773987e-01  6.1035911626954786e-01  6.0564139504077874e-01  6.0257890632998257e-01  6.0076025214839579e-01  5.9956374146390157e-01  5.9885438873836039e-01  5.9863135537515177e-01  5.9829255924731117e-01  5.9686719108881203e-01  5.9366124234032436e-01  5.8845041994593716e-01  5.8148743287582161e-01  5.7333113857225992e-01  5.6460154016454600e-01  5.5587976080313406e-01  5.4765019983812546e-01  5.4030356591736561e-01  5.3417489627492365e-01  5.2953840948825615e-01  5.2658061194651884e-01  5.2535468960745968e-01  5.2575068865747099e-01  5.2748840519490425e-01  5.3005392126847006e-01  5.3260621444587919e-01  5.3396866600052451e-01  5.3297198521450684e-01  5.2920580867219325e-01  5.2291164523134859e-01  5.1410916116813721e-01  5.0318245676688733e-01  4.9148395824393593e-01  4.8047997313367158e-01  4.7026290336930893e-01  4.5939023107759591e-01  4.4646345198264920e-01  4.2862016054918667e-01  4.0341795299640631e-01  3.6954185092795333e-01  3.2593591809638850e-01  2.7501782620245535e-01  2.2385525462158518e-01  1.7811020442588288e-01  1.3983679969524054e-01  1.0886244986952343e-01  8.4220571939792502e-02  6.4830238534578116e-02  4.9690348497844872e-02  3.7933916221263964e-02  2.8844957211788258e-02  2.1848649681766034e-02  1.6488244567755543e-02  1.2401206111971123e-02  9.2998134087261403e-03  6.9565246272760596e-03  5.1926454433211004e-03  3.8690620656376636e-03  2.8784334800891816e-03  2.1385874454443649e-03  1.5870323581684532e-03  1.1764920940086077e-03  8.7133674586128789e-04  6.4479956208286305e-04  4.7681490850683003e-04  3.5237516620584947e-04  2.6027397895946101e-04  1.9216125849509430e-04  1.4182411699253226e-04  1.0465003662025686e-04  7.7220027526330698e-05  5.7005690080433776e-05  4.2140979401895562e-05  3.1253925999754476e-05  2.3340569499167534e-05  1.7673882359178732e-05  1.3736738825871646e-05  1.1177920124778920e-05  9.7890233344873581e-06  9.5275254570859698e-06  9.2339863347779827e-01  9.2172933946341140e-01  9.1807127641331643e-01  9.1261142316489186e-01  9.0559710081156497e-01  8.9726688613629757e-01  8.8767828952167083e-01  8.7676717887046030e-01  8.6471135654642517e-01  8.5235078398624187e-01  8.4103633150362311e-01  8.3192047832349780e-01  8.2562242450265921e-01  8.2233088504819707e-01  8.2203102044767784e-01  8.2463923424168128e-01  8.2995677255051026e-01  8.3742948719959531e-01  8.4584392288610200e-01  8.5330980062408868e-01  8.5763229031330090e-01  8.5655918464309522e-01  8.4761908334196812e-01  8.2832524557481846e-01  7.9867792722444420e-01  7.6619178270498922e-01  7.4338734739879697e-01  7.3536651266410902e-01  7.3634058346267039e-01  7.3913318873391376e-01  7.4113080917062024e-01  7.4180479214759487e-01  7.4157188607618285e-01  7.4107831458187678e-01  7.4073354503170963e-01  7.4065859004228118e-01  7.4079860859753344e-01  7.4078053969501167e-01  7.4008969196370167e-01  7.3855289794591861e-01  7.3637058638442698e-01  7.3394987664273148e-01  7.3169762490484314e-01  7.2988307786015771e-01  7.2858742261134135e-01  7.2771541209747603e-01  7.2707968916451138e-01  7.2657996282636950e-01  7.2627777909695523e-01  7.2621883161744250e-01  7.2629114614509305e-01  7.2624830647986949e-01  7.2603761103967279e-01  7.2594042883621401e-01  7.2615295261334323e-01  7.2651408099902115e-01  7.2671716098011174e-01  7.2664341354366546e-01  7.2656527443209984e-01  7.2691333072047770e-01  7.2777843196637193e-01  7.2882572366458109e-01  7.2955064867490926e-01  7.2959995291364255e-01  7.2914789610756459e-01  7.2873014019137250e-01  7.2869393600128840e-01  7.2917399549708817e-01  7.3013896831032532e-01  7.3139558795955695e-01  7.3246599391165412e-01  7.3276337930147029e-01  7.3212176404394158e-01  7.3114290385025349e-01  7.3062956714871108e-01  7.3081036103970076e-01  7.3148598258061481e-01  7.3239279921667755e-01  7.3342275726012773e-01  7.3451305782759657e-01  7.3528859735983165e-01  7.3500434641325418e-01  7.3298392849316296e-01  7.2895864487175588e-01  7.2335629411695390e-01  7.1756309890195913e-01  7.1340143603100425e-01  7.1241412441469143e-01  7.1592756746102248e-01  7.2440843695934309e-01  7.3717194767089189e-01  7.5225212453981871e-01  7.6631141222179666e-01  7.7618162303058014e-01  7.7995518688146115e-01  7.7672791553507414e-01  7.6666607774033857e-01  7.5148254273179171e-01  7.3424976632505323e-01  7.1844307961914333e-01  7.0687248822886828e-01  7.0047482225316249e-01  6.9807546043974367e-01  6.9691477888852693e-01  6.9328411058994199e-01  6.8350940380045511e-01  6.6605682737017391e-01  6.4416165084799837e-01  6.2411876718299175e-01  6.0971049276622757e-01  6.0082932827789060e-01  5.9660397998964698e-01  5.9646406981901523e-01  5.9927351935117346e-01  6.0283628708612513e-01  6.0549491483118412e-01  6.0667724884299767e-01  6.0624272306604265e-01  6.0457017541859515e-01  6.0230147904545273e-01  5.9970635056887311e-01  5.9693456190485594e-01  5.9441349147902356e-01  5.9268143009440433e-01  5.9179417890904784e-01  5.9159967231693833e-01  5.9198301384147123e-01  5.9284419519282616e-01  5.9373498341868269e-01  5.9396486930125902e-01  5.9376783448545745e-01  5.9396236412695591e-01  5.9468343487307718e-01  5.9550001363527127e-01  5.9634134431740615e-01  5.9754994697823716e-01  5.9905191088583221e-01  6.0063019477167734e-01  6.0232750864698881e-01  6.0427998630522628e-01  6.0639796084691744e-01  6.0860806619409524e-01  6.1081449348354933e-01  6.1279254670838856e-01  6.1411402579888463e-01  6.1420996596039856e-01  6.1251073706011450e-01  6.0858297790335913e-01  6.0240112740184770e-01  5.9470003126135285e-01  5.8697248651249878e-01  5.8006242597590629e-01  5.7411008752720694e-01  5.6961302005502779e-01  5.6676295730055770e-01  5.6508413992966278e-01  5.6376503175864434e-01  5.6268297681373403e-01  5.6204605357966020e-01  5.6131010292922034e-01  5.5941079305393915e-01  5.5563658608938560e-01  5.4978495895005208e-01  5.4215916997763303e-01  5.3339155471394495e-01  5.2413724006952533e-01  5.1499175155864918e-01  5.0643681839516197e-01  4.9884406548579435e-01  4.9253555832102369e-01  4.8777678111430417e-01  4.8475195003275767e-01  4.8351445326642123e-01  4.8395075090598649e-01  4.8578993371505613e-01  4.8854466381015238e-01  4.9140050237223409e-01  4.9317836424870432e-01  4.9259681098957020e-01  4.8926513570259467e-01  4.8380397239653800e-01  4.7645746559476332e-01  4.6755970430494492e-01  4.5838642470486451e-01  4.5051966978419128e-01  4.4434452302782335e-01  4.3839137213017637e-01  4.3057940616543805e-01  4.1823300134744490e-01  3.9899035144990458e-01  3.7142247458963645e-01  3.3383885152978415e-01  2.8719754300619110e-01  2.3724783609173752e-01  1.9054121402069898e-01  1.5044799058468147e-01  1.1749081990970306e-01  9.1012560946936896e-02  7.0069269452214797e-02  5.3683012431605323e-02  4.0952053641678365e-02  3.1112345157294181e-02  2.3544271277361146e-02  1.7752752401258991e-02  1.3343158745691960e-02  1.0001560821138801e-02  7.4797029342024953e-03  5.5830243451300563e-03  4.1605378825115159e-03  3.0961240950142135e-03  2.3011548531056930e-03  1.7083866849022147e-03  1.2670253398742518e-03  9.3883125163662874e-04  6.9508183627043155e-04  5.1425059435309805e-04  3.8022894938088053e-04  2.8098731918108273e-04  2.0755563795729406e-04  1.5325945901623631e-04  1.1313968143320381e-04  8.3520097205945631e-05  6.1680068517135886e-05  4.5611725544734584e-05  3.3837396443299346e-05  2.5276014545887220e-05  1.9143405347295757e-05  1.4881511630736064e-05  1.2106531304911161e-05  1.0573236788259377e-05  1.0137811238529087e-05  8.9510399643522609e-01  8.9304349920976533e-01  8.8798849560938165e-01  8.8015054642934154e-01  8.7010562857850460e-01  8.5841912603324022e-01  8.4515818421691125e-01  8.2992593151544558e-01  8.1258116176290007e-01  7.9438910864072920e-01  7.7786113946701596e-01  7.6488968393607348e-01  7.5619620602715676e-01  7.5179445369523912e-01  7.5152676493939263e-01  7.5533619596219470e-01  7.6322266765618696e-01  7.7481378228160458e-01  7.8864483860501255e-01  8.0203105052988433e-01  8.1212003489300733e-01  8.1676472793605226e-01  8.1420489169194221e-01  8.0256591971211388e-01  7.8079222066184562e-01  7.5160126486748291e-01  7.2244548315968748e-01  7.0026451764969422e-01  6.8646637029760205e-01  6.7776799238507812e-01  6.7169699233783697e-01  6.6662564463406482e-01  6.6214549356194130e-01  6.5859417253948682e-01  6.5613977075076213e-01  6.5460782418431884e-01  6.5388655290274711e-01  6.5336611078723927e-01  6.5199886976595911e-01  6.4945962203890395e-01  6.4607169686056465e-01  6.4246464599294406e-01  6.3922844925744815e-01  6.3672067491061046e-01  6.3502267303605930e-01  6.3395670574350593e-01  6.3316655738161731e-01  6.3244576207466918e-01  6.3197829909513148e-01  6.3192053913555102e-01  6.3214449298675990e-01  6.3213825818657232e-01  6.3168520165361253e-01  6.3138747452438160e-01  6.3171979548495105e-01  6.3236962375911687e-01  6.3272837990682240e-01  6.3248080947297403e-01  6.3207316523870960e-01  6.3238960161880065e-01  6.3365457485271481e-01  6.3529027568105845e-01  6.3646593013042874e-01  6.3646592733763585e-01  6.3554285009147482e-01  6.3476147757537993e-01  6.3460476815700784e-01  6.3520933383821543e-01  6.3651747498688138e-01  6.3838139482520573e-01  6.4012997662154514e-01  6.4069573532856672e-01  6.3957041664101577e-01  6.3780227236755849e-01  6.3698242751641132e-01  6.3736263495793222e-01  6.3844566227603827e-01  6.3973507234784455e-01  6.4114522579390887e-01  6.4285130578156546e-01  6.4450234578599996e-01  6.4490435956313463e-01  6.4297378030130448e-01  6.3821994129415782e-01  6.3101000897928905e-01  6.2336921499370113e-01  6.1811163731065755e-01  6.1701707108335324e-01  6.2202305016155990e-01  6.3389757509058975e-01  6.5179094806821114e-01  6.7342047299846142e-01  6.9359521431759796e-01  7.0723042786132650e-01  7.1188591743397234e-01  7.0653514794543359e-01  6.9134688931243271e-01  6.6893041780613294e-01  6.4417538764353532e-01  6.2228447624523953e-01  6.0750599478030987e-01  6.0117129764426169e-01  6.0167491335587309e-01  6.0561101506189974e-01  6.0836707361360132e-01  6.0473032105547220e-01  5.9091741995312486e-01  5.6842345429824803e-01  5.4419860921776553e-01  5.2384597631057150e-01  5.0888107055056087e-01  4.9940725765806354e-01  4.9507103507029709e-01  4.9496446394717986e-01  4.9651088825563416e-01  4.9749499594801433e-01  4.9731780203016751e-01  4.9577000804136107e-01  4.9308888859569022e-01  4.9006912102591577e-01  4.8696217568120359e-01  4.8377669321256123e-01  4.8081684137797309e-01  4.7879568558206309e-01  4.7776894801044500e-01  4.7748113080058624e-01  4.7778353450027572e-01  4.7860865549583759e-01  4.7966310153019648e-01  4.7996838376441564e-01  4.7955393073293584e-01  4.7958038990935070e-01  4.8036174347466160e-01  4.8128713790979294e-01  4.8205037075757334e-01  4.8323132486060910e-01  4.8481719401464674e-01  4.8646979833839976e-01  4.8817327973612501e-01  4.9021214609363500e-01  4.9247105178699241e-01  4.9486525964554157e-01  4.9734640374176148e-01  4.9974846826029989e-01  5.0169941695126907e-01  5.0264315152578276e-01  5.0207797801730214e-01  4.9958408356233186e-01  4.9512789440566640e-01  4.8916256165387323e-01  4.8328964461860785e-01  4.7862375749361691e-01  4.7475097008996708e-01  4.7191236784393792e-01  4.7018878411891829e-01  4.6905915442973728e-01  4.6742792988728188e-01  4.6508653514476872e-01  4.6266226840849745e-01  4.6000401537351565e-01  4.5610687444928982e-01  4.5038684408477903e-01  4.4279733538944632e-01  4.3373167402060514e-01  4.2391539437959308e-01  4.1400105518750724e-01  4.0452287380743412e-01  3.9588711908254470e-01  3.8836507316377994e-01  3.8219456318686590e-01  3.7757799143312737e-01  3.7465735102546388e-01  3.7347672088123929e-01  3.7392644117171753e-01  3.7577413054534814e-01  3.7862991440217469e-01  3.8182727700847391e-01  3.8435896227118854e-01  3.8503436201940361e-01  3.8337290478468061e-01  3.8062736688456289e-01  3.7759822635321161e-01  3.7472855250116582e-01  3.7293902345680369e-01  3.7372207594051837e-01  3.7752061177102952e-01  3.8282928898249985e-01  3.8694394395942572e-01  3.8723258696845342e-01  3.8216579216247937e-01  3.7054672780031989e-01  3.4936108716165126e-01  3.1636190540772141e-01  2.7377798022410821e-01  2.2739209760179432e-01  1.8340615508162109e-01  1.4498473077105373e-01  1.1294237741378646e-01  8.7100700071202061e-02  6.6710810853811142e-02  5.0818032363787666e-02  3.8529695663432999e-02  2.9093206730070282e-02  2.1892880497586229e-02  1.6429816789863220e-02  1.2303828403109049e-02  9.1985133929368672e-03  6.8673988406867366e-03  5.1208431012544362e-03  3.8142474793880572e-03  2.8380495412784310e-03  2.1095747115285469e-03  1.5665969504694735e-03  1.1623499906014590e-03  8.6172935926912366e-04  6.3840765390716855e-04  4.7267007184441563e-04  3.4977162799577888e-04  2.5870712194795055e-04  1.9127447453390418e-04  1.4137475481468872e-04  1.0447925592303492e-04  7.7233676067633731e-05  5.7158368074622339e-05  4.2427107811505483e-05  3.1700912520478537e-05  2.4007721926575902e-05  1.8653161839197164e-05  1.5157863532170645e-05  1.3211482569114986e-05  1.2640104694585757e-05  8.3794119825347868e-01  8.3494824853629512e-01  8.2689275795429307e-01  8.1396583408091383e-01  7.9749913861933497e-01  7.7905995030340081e-01  7.5888719707361085e-01  7.3582979072468035e-01  7.0872281511605051e-01  6.7953520933111056e-01  6.5360290920817277e-01  6.3419604525022533e-01  6.2179569588412398e-01  6.1578004320273982e-01  6.1559983672502361e-01  6.2123066176966002e-01  6.3314460161399422e-01  6.5166038035604767e-01  6.7528349971573054e-01  6.9979762654652156e-01  7.2073818117363841e-01  7.3599439033289504e-01  7.4499827645041805e-01  7.4662802859472710e-01  7.3860220846778868e-01  7.1898762486566181e-01  6.8843675099292301e-01  6.5165466849074094e-01  6.1674411028579723e-01  5.8835641950105566e-01  5.6658777725643383e-01  5.4969488461034266e-01  5.3624393573654228e-01  5.2587800941372165e-01  5.1837891187578222e-01  5.1302324917206887e-01  5.0945242927666479e-01  5.0702139153904846e-01  5.0402332857512822e-01  4.9981251842924379e-01  4.9475638552193607e-01  4.8964175086158074e-01  4.8519109385630821e-01  4.8180276996330346e-01  4.7953924844273338e-01  4.7815130951093726e-01  4.7717322308536742e-01  4.7618743699714094e-01  4.7546694346711810e-01  4.7527953609570855e-01  4.7556872248275256e-01  4.7568076578729396e-01  4.7504976910253133e-01  4.7444370990618678e-01  4.7475848234290341e-01  4.7563994235567608e-01  4.7621260444257668e-01  4.7592092154807580e-01  4.7517147905710638e-01  4.7527180645276390e-01  4.7674252144827683e-01  4.7882155461764381e-01  4.8044431503079371e-01  4.8059853486644522e-01  4.7925591241434923e-01  4.7810433993053975e-01  4.7779178386194437e-01  4.7845367357103086e-01  4.7993306806487146e-01  4.8217393951752430e-01  4.8450779322797055e-01  4.8553471420586164e-01  4.8426396604388905e-01  4.8175645395999223e-01  4.8057228731857388e-01  4.8114884747710202e-01  4.8269523182630109e-01  4.8445263970040148e-01  4.8628601155422202e-01  4.8857843932045542e-01  4.9128627174038247e-01  4.9290848791344621e-01  4.9197357389127933e-01  4.8787052949063414e-01  4.8094191157611504e-01  4.7331855808718437e-01  4.6903135708235222e-01  4.6981103137114932e-01  4.7776927218095522e-01  4.9428446238870560e-01  5.1808142830795378e-01  5.4695929797680221e-01  5.7411255861900623e-01  5.9127303909099971e-01  5.9489455061904073e-01  5.8453128783969488e-01  5.6139332916555107e-01  5.2966676328049633e-01  4.9674962118346366e-01  4.6920405352150313e-01  4.5202276102914501e-01  4.4672165875605485e-01  4.5159968827000335e-01  4.6345528914232809e-01  4.7777079873518502e-01  4.8792992809611369e-01  4.8637074883983050e-01  4.7017590195778275e-01  4.4526528137138666e-01  4.1927709045645989e-01  3.9656197718819042e-01  3.7898618286249552e-01  3.6695558745407036e-01  3.5980633143730778e-01  3.5563664702689141e-01  3.5241604704892876e-01  3.4923333705889159e-01  3.4576759011191033e-01  3.4198891154709021e-01  3.3829049979702691e-01  3.3487458087911676e-01  3.3170277137359855e-01  3.2889319304738773e-01  3.2685373619007102e-01  3.2569750081010518e-01  3.2522020522101452e-01  3.2525650416115526e-01  3.2570146604251288e-01  3.2635580991405200e-01  3.2663844870119663e-01  3.2640192735168000e-01  3.2634116644344480e-01  3.2684181105698090e-01  3.2757661846214875e-01  3.2824898644801070e-01  3.2914600116230980e-01  3.30389485749