<?xml version="1.0"?>
<VTKFile type="UnstructuredGrid"  version="0.1"  >
<UnstructuredGrid>
<Piece  NumberOfPoints="7161" NumberOfCells="13800">
<Points>
<DataArray  type="Float64"  NumberOfComponents="3"  format="ascii">0 0 0  0.01652173913043478 0 0  0.03304347826086956 0 0  0.04956521739130434 0 0  0.06608695652173913 0 0  0.08260869565217391 0 0  0.09913043478260869 0 0  0.1156521739130435 0 0  0.1321739130434783 0 0  0.148695652173913 0 0  0.1652173913043478 0 0  0.1817391304347826 0 0  0.1982608695652174 0 0  0.2147826086956522 0 0  0.2313043478260869 0 0  0.2478260869565218 0 0  0.2643478260869565 0 0  0.2808695652173913 0 0  0.2973913043478261 0 0  0.3139130434782609 0 0  0.3304347826086956 0 0  0.3469565217391304 0 0  0.3634782608695652 0 0  0.3799999999999999 0 0  0.3965217391304348 0 0  0.4130434782608696 0 0  0.4295652173913043 0 0  0.4460869565217391 0 0  0.4626086956521739 0 0  0.4791304347826086 0 0  0.4956521739130435 0 0  0.5121739130434783 0 0  0.528695652173913 0 0  0.5452173913043478 0 0  0.5617391304347825 0 0  0.5782608695652174 0 0  0.5947826086956521 0 0  0.6113043478260869 0 0  0.6278260869565218 0 0  0.6443478260869565 0 0  0.6608695652173913 0 0  0.677391304347826 0 0  0.6939130434782609 0 0  0.7104347826086956 0 0  0.7269565217391304 0 0  0.7434782608695653 0 0  0.7599999999999999 0 0  0.7765217391304348 0 0  0.7930434782608695 0 0  0.8095652173913043 0 0  0.8260869565217391 0 0  0.8426086956521739 0 0  0.8591304347826086 0 0  0.8756521739130434 0 0  0.8921739130434783 0 0  0.908695652173913 0 0  0.9252173913043478 0 0  0.9417391304347826 0 0  0.9582608695652173 0 0  0.9747826086956521 0 0  0.991304347826087 0 0  1.007826086956522 0 0  1.024347826086957 0 0  1.040869565217391 0 0  1.057391304347826 0 0  1.073913043478261 0 0  1.090434782608696 0 0  1.10695652173913 0 0  1.123478260869565 0 0  1.14 0 0  1.156521739130435 0 0  1.17304347826087 0 0  1.189565217391304 0 0  1.206086956521739 0 0  1.222608695652174 0 0  1.239130434782609 0 0  1.255652173913044 0 0  1.272173913043478 0 0  1.288695652173913 0 0  1.305217391304348 0 0  1.321739130434783 0 0  1.338260869565217 0 0  1.354782608695652 0 0  1.371304347826087 0 0  1.387826086956522 0 0  1.404347826086957 0 0  1.420869565217391 0 0  1.437391304347826 0 0  1.453913043478261 0 0  1.470434782608696 0 0  1.486956521739131 0 0  1.503478260869565 0 0  1.52 0 0  1.536521739130435 0 0  1.55304347826087 0 0  1.569565217391304 0 0  1.586086956521739 0 0  1.602608695652174 0 0  1.619130434782609 0 0  1.635652173913043 0 0  1.652173913043478 0 0  1.668695652173913 0 0  1.685217391304348 0 0  1.701739130434782 0 0  1.718260869565217 0 0  1.734782608695652 0 0  1.751304347826087 0 0  1.767826086956522 0 0  1.784347826086957 0 0  1.800869565217391 0 0  1.817391304347826 0 0  1.833913043478261 0 0  1.850434782608696 0 0  1.86695652173913 0 0  1.883478260869565 0 0  1.9 0 0  1.916521739130435 0 0  1.933043478260869 0 0  1.949565217391304 0 0  1.966086956521739 0 0  1.982608695652174 0 0  1.999130434782608 0 0  2.015652173913043 0 0  2.032173913043478 0 0  2.048695652173913 0 0  2.065217391304348 0 0  2.081739130434782 0 0  2.098260869565217 0 0  2.114782608695652 0 0  2.131304347826087 0 0  2.147826086956522 0 0  2.164347826086956 0 0  2.180869565217391 0 0  2.197391304347826 0 0  2.213913043478261 0 0  2.230434782608695 0 0  2.24695652173913 0 0  2.263478260869565 0 0  2.28 0 0  2.296521739130434 0 0  2.31304347826087 0 0  2.329565217391304 0 0  2.346086956521739 0 0  2.362608695652174 0 0  2.379130434782609 0 0  2.395652173913044 0 0  2.412173913043478 0 0  2.428695652173913 0 0  2.445217391304348 0 0  2.461739130434782 0 0  2.478260869565217 0 0  2.494782608695652 0 0  2.511304347826087 0 0  2.527826086956522 0 0  2.544347826086956 0 0  2.560869565217391 0 0  2.577391304347826 0 0  2.593913043478261 0 0  2.610434782608696 0 0  2.62695652173913 0 0  2.643478260869565 0 0  2.66 0 0  2.676521739130435 0 0  2.693043478260869 0 0  2.709565217391304 0 0  2.726086956521739 0 0  2.742608695652174 0 0  2.759130434782609 0 0  2.775652173913044 0 0  2.792173913043478 0 0  2.808695652173913 0 0  2.825217391304347 0 0  2.841739130434783 0 0  2.858260869565217 0 0  2.874782608695652 0 0  2.891304347826087 0 0  2.907826086956522 0 0  2.924347826086957 0 0  2.940869565217391 0 0  2.957391304347826 0 0  2.973913043478261 0 0  2.990434782608696 0 0  3.006956521739131 0 0  3.023478260869565 0 0  3.04 0 0  3.056521739130435 0 0  3.073043478260869 0 0  3.089565217391304 0 0  3.106086956521739 0 0  3.122608695652174 0 0  3.139130434782609 0 0  3.155652173913043 0 0  3.172173913043478 0 0  3.188695652173913 0 0  3.205217391304347 0 0  3.221739130434782 0 0  3.238260869565217 0 0  3.254782608695652 0 0  3.271304347826087 0 0  3.287826086956521 0 0  3.304347826086957 0 0  3.320869565217391 0 0  3.337391304347826 0 0  3.353913043478261 0 0  3.370434782608696 0 0  3.386956521739131 0 0  3.403478260869565 0 0  3.419999999999999 0 0  3.436521739130435 0 0  3.453043478260869 0 0  3.469565217391304 0 0  3.486086956521739 0 0  3.502608695652174 0 0  3.519130434782609 0 0  3.535652173913043 0 0  3.552173913043478 0 0  3.568695652173913 0 0  3.585217391304347 0 0  3.601739130434782 0 0  3.618260869565217 0 0  3.634782608695652 0 0  3.651304347826087 0 0  3.667826086956521 0 0  3.684347826086956 0 0  3.700869565217391 0 0  3.717391304347826 0 0  3.733913043478261 0 0  3.750434782608695 0 0  3.766956521739131 0 0  3.783478260869565 0 0  3.8 0 0  0 0.01666666666666667 0  0.01652173913043478 0.01666666666666667 0  0.03304347826086956 0.01666666666666667 0  0.04956521739130434 0.01666666666666667 0  0.06608695652173913 0.01666666666666667 0  0.08260869565217391 0.01666666666666667 0  0.09913043478260869 0.01666666666666667 0  0.1156521739130435 0.01666666666666667 0  0.1321739130434783 0.01666666666666667 0  0.148695652173913 0.01666666666666667 0  0.1652173913043478 0.01666666666666667 0  0.1817391304347826 0.01666666666666667 0  0.1982608695652174 0.01666666666666667 0  0.2147826086956522 0.01666666666666667 0  0.2313043478260869 0.01666666666666667 0  0.2478260869565218 0.01666666666666667 0  0.2643478260869565 0.01666666666666667 0  0.2808695652173913 0.01666666666666667 0  0.2973913043478261 0.01666666666666667 0  0.3139130434782609 0.01666666666666667 0  0.3304347826086956 0.01666666666666667 0  0.3469565217391304 0.01666666666666667 0  0.3634782608695652 0.01666666666666667 0  0.3799999999999999 0.01666666666666667 0  0.3965217391304348 0.01666666666666667 0  0.4130434782608696 0.01666666666666667 0  0.4295652173913043 0.01666666666666667 0  0.4460869565217391 0.01666666666666667 0  0.4626086956521739 0.01666666666666667 0  0.4791304347826086 0.01666666666666667 0  0.4956521739130435 0.01666666666666667 0  0.5121739130434783 0.01666666666666667 0  0.528695652173913 0.01666666666666667 0  0.5452173913043478 0.01666666666666667 0  0.5617391304347825 0.01666666666666667 0  0.5782608695652174 0.01666666666666667 0  0.5947826086956521 0.01666666666666667 0  0.6113043478260869 0.01666666666666667 0  0.6278260869565218 0.01666666666666667 0  0.6443478260869565 0.01666666666666667 0  0.6608695652173913 0.01666666666666667 0  0.677391304347826 0.01666666666666667 0  0.6939130434782609 0.01666666666666667 0  0.7104347826086956 0.01666666666666667 0  0.7269565217391304 0.01666666666666667 0  0.7434782608695653 0.01666666666666667 0  0.7599999999999999 0.01666666666666667 0  0.7765217391304348 0.01666666666666667 0  0.7930434782608695 0.01666666666666667 0  0.8095652173913043 0.01666666666666667 0  0.8260869565217391 0.01666666666666667 0  0.8426086956521739 0.01666666666666667 0  0.8591304347826086 0.01666666666666667 0  0.8756521739130434 0.01666666666666667 0  0.8921739130434783 0.01666666666666667 0  0.908695652173913 0.01666666666666667 0  0.9252173913043478 0.01666666666666667 0  0.9417391304347826 0.01666666666666667 0  0.9582608695652173 0.01666666666666667 0  0.9747826086956521 0.01666666666666667 0  0.991304347826087 0.01666666666666667 0  1.007826086956522 0.01666666666666667 0  1.024347826086957 0.01666666666666667 0  1.040869565217391 0.01666666666666667 0  1.057391304347826 0.01666666666666667 0  1.073913043478261 0.01666666666666667 0  1.090434782608696 0.01666666666666667 0  1.10695652173913 0.01666666666666667 0  1.123478260869565 0.01666666666666667 0  1.14 0.01666666666666667 0  1.156521739130435 0.01666666666666667 0  1.17304347826087 0.01666666666666667 0  1.189565217391304 0.01666666666666667 0  1.206086956521739 0.01666666666666667 0  1.222608695652174 0.01666666666666667 0  1.239130434782609 0.01666666666666667 0  1.255652173913044 0.01666666666666667 0  1.272173913043478 0.01666666666666667 0  1.288695652173913 0.01666666666666667 0  1.305217391304348 0.01666666666666667 0  1.321739130434783 0.01666666666666667 0  1.338260869565217 0.01666666666666667 0  1.354782608695652 0.01666666666666667 0  1.371304347826087 0.01666666666666667 0  1.387826086956522 0.01666666666666667 0  1.404347826086957 0.01666666666666667 0  1.420869565217391 0.01666666666666667 0  1.437391304347826 0.01666666666666667 0  1.453913043478261 0.01666666666666667 0  1.470434782608696 0.01666666666666667 0  1.486956521739131 0.01666666666666667 0  1.503478260869565 0.01666666666666667 0  1.52 0.01666666666666667 0  1.536521739130435 0.01666666666666667 0  1.55304347826087 0.01666666666666667 0  1.569565217391304 0.01666666666666667 0  1.586086956521739 0.01666666666666667 0  1.602608695652174 0.01666666666666667 0  1.619130434782609 0.01666666666666667 0  1.635652173913043 0.01666666666666667 0  1.652173913043478 0.01666666666666667 0  1.668695652173913 0.01666666666666667 0  1.685217391304348 0.01666666666666667 0  1.701739130434782 0.01666666666666667 0  1.718260869565217 0.01666666666666667 0  1.734782608695652 0.01666666666666667 0  1.751304347826087 0.01666666666666667 0  1.767826086956522 0.01666666666666667 0  1.784347826086957 0.01666666666666667 0  1.800869565217391 0.0166666666666666
[...]
<PointData  Scalars="rho_bar"> 
<DataArray  type="Float64"  Name="rho_bar"  format="ascii">9.1347613260628979e-01  9.1053379145316815e-01  9.0675476893642137e-01  9.0161165632972629e-01  8.9507350719654277e-01  8.8715644139729366e-01  8.7783527657411353e-01  8.6721334508031944e-01  8.5581285968193610e-01  8.4465459202343307e-01  8.3489824405958524e-01  8.2738749552884994e-01  8.2253191881533450e-01  8.2043996076885617e-01  8.2108588862760601e-01  8.2437136067266992e-01  8.3002963949820652e-01  8.3739364581244857e-01  8.4518827545118280e-01  8.5158228351972032e-01  8.5441213423084417e-01  8.5118922471280134e-01  8.3888073688991682e-01  8.1438757940810447e-01  7.7803182093086687e-01  7.3913331536499705e-01  7.1153320766501948e-01  7.0112497680695740e-01  7.0389186707928175e-01  7.1288575458608616e-01  7.2183071503244511e-01  7.2805929319692453e-01  7.3163549533899708e-01  7.3353502770353818e-01  7.3469709313357134e-01  7.3571425386172640e-01  7.3676110898187930e-01  7.3756255141596749e-01  7.3766568793739029e-01  7.3686345904073580e-01  7.3528576982046878e-01  7.3328163552713033e-01  7.3123882143888641e-01  7.2944702070708667e-01  7.2803966437795120e-01  7.2700124076817874e-01  7.2624053757890195e-01  7.2570661146634885e-01  7.2541343584914397e-01  7.2532944839104307e-01  7.2530459905051903e-01  7.2513728617133744e-01  7.2481870026005613e-01  7.2459392647059595e-01  7.2465186819036109e-01  7.2491307698210528e-01  7.2516987121486487e-01  7.2534282694871910e-01  7.2561331752331504e-01  7.2623752749959591e-01  7.2720774621932416e-01  7.2818859058444418e-01  7.2873000865469439e-01  7.2857645923749115e-01  7.2794360872539277e-01  7.2736677731859622e-01  7.2726762059592143e-01  7.2780978564768783e-01  7.2890298616652405e-01  7.3024266220439771e-01  7.3132996696412966e-01  7.3167249783365418e-01  7.3119331790835818e-01  7.3043765711131459e-01  7.3013395090888888e-01  7.3060524858730225e-01  7.3172404421126469e-01  7.3313726120010481e-01  7.3448097894522568e-01  7.3535529680409062e-01  7.3520772199843543e-01  7.3344832179383967e-01  7.2978976400135676e-01  7.2448615665706240e-01  7.1845640341424788e-01  7.1318626490030967e-01  7.1028080992243325e-01  7.1102316889615813e-01  7.1613675479595607e-01  7.2538427702187580e-01  7.3758479907681396e-01  7.5079316471029300e-01  7.6244407159400784e-01  7.7021977603373371e-01  7.7266479387525544e-01  7.6915648052438246e-01  7.6005134092771354e-01  7.4687921278807101e-01  7.3206593086724447e-01  7.1829650583988358e-01  7.0769572621207666e-01  7.0098771135140858e-01  6.9719658441336163e-01  6.9388653774529752e-01  6.8773060485951842e-01  6.7562723107843159e-01  6.5692992795949956e-01  6.3538489426694600e-01  6.1665874243063423e-01  6.0385218367125293e-01  5.9640216095889587e-01  5.9308006917969436e-01  5.9331918224574143e-01  5.9633307199253283e-01  6.0064601076519120e-01  6.0481504476071368e-01  6.0780444011790624e-01  6.0902453053063421e-01  6.0846245368551255e-01  6.0652672961181087e-01  6.0366034596474782e-01  6.0030295251094035e-01  5.9706626077227787e-01  5.9454494152259341e-01  5.9293986070034677e-01  5.9224203507120921e-01  5.9243580957308362e-01  5.9337918411599821e-01  5.9450053615049814e-01  5.9515993582720683e-01  5.9549441400468928e-01  5.9605961087923642e-01  5.9693273398391300e-01  5.9784123796760313e-01  5.9882138689499254e-01  6.0015514454268271e-01  6.0181200171824212e-01  6.0364008408908665e-01  6.0563115138833334e-01  6.0778491174959093e-01  6.0994262653530995e-01  6.1195095279629941e-01  6.1362156745712115e-01  6.1463927566106014e-01  6.1458707563064485e-01  6.1303189504556943e-01  6.0955786046991167e-01  6.0402850009171982e-01  5.9696590154686691e-01  5.8935076583973622e-01  5.8212540528747758e-01  5.7560580184036925e-01  5.6989757476952119e-01  5.6554049598720535e-01  5.6281718314135631e-01  5.6134708747715567e-01  5.6054435761841548e-01  5.6033810968441156e-01  5.6077391499543250e-01  5.6123155260136048e-01  5.6067683586752315e-01  5.5835445499231984e-01  5.5395297368401653e-01  5.4756039833370218e-01  5.3956760974935980e-01  5.3056530979456007e-01  5.2123944417963286e-01  5.1225979105786557e-01  5.0419618446635861e-01  4.9748055184755480e-01  4.9240660273016701e-01  4.8913426223228679e-01  4.8767393186956548e-01  4.8786962428568542e-01  4.8939542213051984e-01  4.9169503273435999e-01  4.9389953374496182e-01  4.9485331303958818e-01  4.9345354307173878e-01  4.8927303599354832e-01  4.8255188695648260e-01  4.7391585174034129e-01  4.6435231015980760e-01  4.5452409382913483e-01  4.4476587243834015e-01  4.3450045521890862e-01  4.2285504493492321e-01  4.0971550326749684e-01  3.9305646237044678e-01  3.7052128181878013e-01  3.4045784377303090e-01  3.0118572810111538e-01  2.5422462140063085e-01  2.0627513168169931e-01  1.6334991566040263e-01  1.2755034409188892e-01  9.8668862441579810e-02  7.5835069758183410e-02  5.8034568750464845e-02  4.4277746482095370e-02  3.3694486505403957e-02  2.5575074999431811e-02  1.9361869684100298e-02  1.4621082362578001e-02  1.1014967025692204e-02  8.2802742394632346e-03  6.2122430771436128e-03  4.6522929719934178e-03  3.4782315635881189e-03  2.5963766790132875e-03  1.9352198175954700e-03  1.4403824143067825e-03  1.0706403882255857e-03  7.9481361112338389e-04  5.8937052046997601e-04  4.3657926880633248e-04  3.2310561562989181e-04  2.3893887486788450e-04  1.7658171948446269e-04  1.3042971199315182e-04  9.6305052094566379e-05  7.1100238035724060e-05  5.2510651982202991e-05  3.8831508467598993e-05  2.8807120794781103e-05  2.1517348340460034e-05  1.6295126217656426e-05  1.2665611869679298e-05  1.0306106931840406e-05  9.0251013521740619e-06  8.7836543789245066e-06  9.0100026777137909e-01  8.9910700716668368e-01  8.9513807237153320e-01  8.8935456154161396e-01  8.8196381243125033e-01  8.7303987567095143e-01  8.6250401171461288e-01  8.5038014251316141e-01  8.3723566275616557e-01  8.2434312625774608e-01  8.1315568987755671e-01  8.0464794407228624e-01  7.9922049118451866e-01  7.9693005623323598e-01  7.9772470799682582e-01  8.0153191215461106e-01  8.0814655837699390e-01  8.1692270060067274e-01  8.2646112658334314e-01  8.3470466902150975e-01  8.3936950082242867e-01  8.3808710445856394e-01  8.2817931002052081e-01  8.0685659756912520e-01  7.7366899407661505e-01  7.3540883612080177e-01  7.0463473855623537e-01  6.8886862582102537e-01  6.8627611457147364e-01  6.9117052832159087e-01  6.9752188056295583e-01  7.0192834351919420e-01  7.0412367322520708e-01  7.0500951268927292e-01  7.0548148042302194e-01  7.0608801054115455e-01  7.0697323211822138e-01  7.0773500743463402e-01  7.0772783327815103e-01  7.0667748804051334e-01  7.0474766010619927e-01  7.0236505402087734e-01  6.9998774606485092e-01  6.9794472519560535e-01  6.9637620824068491e-01  6.9524318874180846e-01  6.9440903288504785e-01  6.9380462010845034e-01  6.9347600122075270e-01  6.9341294172302737e-01  6.9343928993436088e-01  6.9326312123401634e-01  6.9284260055090385e-01  6.9253211570888551e-01  6.9261004965645367e-01  6.9295540740593908e-01  6.9326543719726086e-01  6.9340577001296910e-01  6.9361825708637626e-01  6.9428594710960967e-01  6.9542987265815015e-01  6.9662812852221068e-01  6.9730393864550999e-01  6.9708895820093197e-01  6.9624708588544315e-01  6.9549343950500653e-01  6.9533341735920218e-01  6.9594413387166998e-01  6.9721407848084438e-01  6.9881203896299493e-01  7.0014742485026782e-01  7.0056657135098110e-01  6.9990578304826900e-01  6.9887268511167711e-01  6.9844575330334546e-01  6.9900025616144279e-01  7.0033323713799556e-01  7.0199282954939646e-01  7.0358724103699577e-01  7.0472452761082038e-01  7.0478445694149383e-01  7.0303019321954296e-01  6.9908390688665689e-01  6.9319428197139343e-01  6.8639041316346971e-01  6.8041601292753195e-01  6.7714033672084084e-01  6.7799624020906035e-01  6.8387038559827151e-01  6.9449969486902741e-01  7.0853193312134033e-01  7.2381591626512576e-01  7.3727314267499755e-01  7.4612116731367184e-01  7.4875667498816922e-01  7.4450270257047169e-01  7.3376685812919751e-01  7.1838574735695160e-01  7.0125723519664040e-01  6.8556589876437912e-01  6.7387216895495294e-01  6.6707127451792880e-01  6.6410364644546238e-01  6.6231477877942790e-01  6.5805154268459320e-01  6.4770902091219651e-01  6.2982364397925994e-01  6.0750734334435597e-01  5.8673828007424522e-01  5.7144954555872907e-01  5.6185441991018048e-01  5.5688552956166160e-01  5.5596539594862360e-01  5.5833349827305312e-01  5.6229835647108706e-01  5.6623549341222768e-01  5.6903744879098750e-01  5.7003058152638719e-01  5.6917413026317365e-01  5.6694703855952688e-01  5.6382064922199571e-01  5.6019303143857047e-01  5.5668687149050555e-01  5.5399927230489376e-01  5.5231396462948701e-01  5.5156674245863657e-01  5.5173808424634663e-01  5.5275881055966347e-01  5.5404084658513730e-01  5.5473052424083535e-01  5.5495559503182779e-01  5.5548368340744980e-01  5.5643313895057389e-01  5.5738640180298071e-01  5.5833228218222164e-01  5.5969227723239856e-01  5.6143071409654943e-01  5.6332433129589266e-01  5.6537239055257249e-01  5.6763146341306914e-01  5.6991094256249852e-01  5.7205849831396538e-01  5.7391563598475925e-01  5.7518394454325339e-01  5.7544315483175867e-01  5.7425898120695951e-01  5.7114752490469600e-01  5.6583678502105927e-01  5.5887370297823091e-01  5.5133945002645468e-01  5.4434890647500667e-01  5.3819567494943887e-01  5.3274365212042052e-01  5.2856572694438686e-01  5.2601187627704149e-01  5.2463536814214640e-01  5.2366613304832921e-01  5.2306009065794423e-01  5.2308381172044949e-01  5.2317742047936533e-01  5.2220549765503810e-01  5.1939612916895039e-01  5.1447053335952941e-01  5.0755637375314355e-01  4.9907864685983550e-01  4.8965362053326594e-01  4.7998601374721200e-01  4.7075328890592105e-01  4.6251911050882444e-01  4.5569944432713427e-01  4.5057001219782522e-01  4.4728006033354761e-01  4.4583716251687466e-01  4.4608393567334931e-01  4.4770959177838826e-01  4.5019472583808251e-01  4.5271133402903002e-01  4.5412816438252107e-01  4.5330729628133720e-01  4.4992471124255173e-01  4.4454153553772646e-01  4.3777361228718054e-01  4.3054279121863004e-01  4.2342087754609642e-01  4.1688264892101701e-01  4.1062153179767880e-01  4.0362217076256213e-01  3.9507782385815554e-01  3.8326168750232098e-01  3.6600212725477027e-01  3.4159882074512304e-01  3.0794887898958456e-01  2.6524402111297052e-01  2.1859297137268294e-01  1.7481557165924097e-01  1.3730769892991376e-01  1.0651741172413080e-01  8.1938118138956226e-02  6.2700583346437841e-02  4.7816679855853521e-02  3.6364762865250588e-02  2.7581812536908411e-02  2.0865917119253778e-02  1.5747054287833177e-02  1.1857869321336940e-02  8.9115836829799094e-03  6.6853315986070980e-03  5.0069189175007134e-03  3.7440401122076643e-03  2.7955210985935166e-03  2.0843012555264457e-03  1.5518728793448503e-03  1.1539223988553849e-03  8.5695464013381298e-04  6.3568756406412767e-04  4.7107122440585316e-04  3.4877125814607195e-04  2.5802500647305299e-04  1.9076637360590471e-04  1.4096628560167514e-04  1.0412754996898224e-04  7.6905448008260979e-05  5.6818085967845605e-05  4.2029918968605477e-05  3.1187887575438647e-05  2.3300821826656797e-05  1.7649073003115963e-05  1.3720106096238349e-05  1.1161248774685504e-05  9.7470676895411840e-06  9.3453182185847203e-06  8.6447023275919777e-01  8.6221058537964990e-01  8.5678923176993815e-01  8.4867089149940556e-01  8.3842324817293845e-01  8.2625050406169365e-01  8.1185638143502803e-01  7.9489119120240193e-01  7.7596821708914865e-01  7.5728073796907869e-01  7.4140109600409021e-01  7.2970591930753159e-01  7.2247478085747052e-01  7.1953351091181517e-01  7.2072433513307621e-01  7.2607309571759415e-01  7.3564279338837202e-01  7.4896770802291845e-01  7.6427102502032973e-01  7.7863942318090273e-01  7.8926614396160255e-01  7.9400009922157988e-01  7.9093244057061407e-01  7.7793370346862001e-01  7.5363377594356074e-01  7.2041794699761452e-01  6.8573917286332275e-01  6.5757478393352897e-01  6.3943771684445339e-01  6.3020603926733998e-01  6.2632599299771019e-01  6.2352683692886268e-01  6.2043440818590911e-01  6.1749614882922210e-01  6.1532621928870412e-01  6.1422251525657467e-01  6.1424429272025416e-01  6.1464308338427809e-01  6.1412454360492141e-01  6.1220706107331124e-01  6.0915773750200042e-01  6.0562571738201632e-01  6.0226132981127634e-01  5.9948943550532818e-01  5.9745921312776240e-01  5.9606471906178338e-01  5.9502640971870102e-01  5.9419963597631786e-01  5.9374431018086882e-01  5.9372315400926257e-01  5.9391638631452304e-01  5.9374676479480826e-01  5.9300908177802469e-01  5.9240730573767852e-01  5.9253791509344189e-01  5.9314406853574531e-01  5.9362745560767927e-01  5.9366039322788600e-01  5.9364162981936697e-01  5.9437638221223332e-01  5.9599792315560685e-01  5.9781979232204041e-01  5.9891946835643262e-01  5.9855063478262094e-01  5.9706956657223875e-01  5.9579610639526537e-01  5.9545682543449263e-01  5.9624620326299815e-01  5.9797536781125893e-01  6.0027637176344029e-01  6.0234278226155102e-01  6.0304329698099446e-01  6.0186259938927111e-01  5.9996528635390500e-01  5.9916925618811823e-01  5.9997516328396727e-01  6.0193559849682887e-01  6.0428638420392711e-01  6.0657101816842696e-01  6.0848665397704682e-01  6.0927383536984880e-01  6.0773670330671303e-01  6.0323939432142415e-01  5.9601920129369090e-01  5.8737852844680227e-01  5.7977413449996051e-01  5.7583593949385403e-01  5.7724694111123875e-01  5.8539679165445935e-01  6.0002583114194430e-01  6.1924958967687782e-01  6.4056320084961405e-01  6.5933503927860160e-01  6.7117463641213315e-01  6.7409183462115629e-01  6.6733347245744989e-01  6.5148662372117416e-01  6.2943950921485314e-01  6.0561853787413378e-01  5.8460383493410395e-01  5.7011623441500991e-01  5.6343180462207276e-01  5.6324928915805139e-01  5.6645267283880885e-01  5.6866203049017883e-01  5.6494457146007082e-01  5.5172872615585322e-01  5.3008941877148308e-01  5.0611512538958503e-01  4.8527692556023599e-01  4.6949369034546895e-01  4.5910904553966025e-01  4.5379413353054099e-01  4.5292561363174766e-01  4.5455224841720138e-01  4.5671195096886341e-01  4.5818505140522930e-01  4.5816071506260891e-01  4.5643852694441150e-01  4.5353816647011569e-01  4.4995451942604670e-01  4.4599317837260444e-01  4.4214220313379021e-01  4.3923318086900592e-01  4.3744621719201487e-01  4.3660938036747282e-01  4.3666027837767685e-01  4.3761364334963532e-01  4.3903862370523600e-01  4.3980630528411602e-01  4.3983287410271027e-01  4.4018955291390660e-01  4.4116701911681400e-01  4.4218658478994222e-01  4.4300615045020253e-01  4.4427702704163646e-01  4.4603214498570321e-01  4.4794068009029142e-01  4.4994690228886175e-01  4.5225314878921824e-01  4.5464855556606099e-01  4.5697802114824376e-01  4.5917174681471717e-01  4.6103094454064575e-01  4.6223280519613519e-01  4.6241851648521937e-01  4.6104489492764578e-01  4.5744218502960055e-01  4.5212418193683956e-01  4.4625292766671809e-01  4.4111399615703478e-01  4.3714712768447195e-01  4.3360633317985309e-01  4.3081338684473253e-01  4.2910786448514393e-01  4.2802934013701988e-01  4.2655850703430231e-01  4.2459600046083806e-01  4.2283076642764417e-01  4.2109803988516548e-01  4.1830669725831660e-01  4.1379359334741783e-01  4.0743640168609230e-01  3.9946078246951189e-01  3.9032292445899891e-01  3.8060941638559698e-01  3.7096010580520788e-01  3.6196596390735380e-01  3.5409464777345256e-01  3.4766755177775777e-01  3.4288285043862310e-01  3.3983861526069775e-01  3.3853362416625482e-01  3.3882571756105095e-01  3.4046061694371721e-01  3.4304348096729587e-01  3.4593503778087514e-01  3.4823075097924738e-01  3.4898981229990628e-01  3.4797691075924159e-01  3.4631910181875319e-01  3.4488987591932230e-01  3.4428770706051925e-01  3.4463940593405601e-01  3.4646098758649563e-01  3.4964058705394024e-01  3.5302155869430296e-01  3.5510138831147137e-01  3.5434359362064199e-01  3.4952582469347110e-01  3.3928045589246131e-01  3.2051730198132383e-01  2.9079697107290592e-01  2.5164184043571797e-01  2.0857676504997541e-01  1.6756074373653795e-01  1.3151682588488051e-01  1.0164666935459507e-01  7.7883910730210268e-02  5.9382831013522798e-02  4.5109353325491361e-02  3.4157402085077268e-02  2.5795169253082117e-02  1.9438425149595834e-02  1.4623012697766441e-02  1.0984461954612930e-02  8.2403115695776873e-03  6.1737927475589609e-03  4.6196000180097037e-03  3.4521647018982047e-03  2.5763466721117558e-03  1.9201795201804748e-03  1.4292810826388683e-03  1.0625788273865761e-03  7.8907288572594586e-04  5.8538079121990929e-04  4.3389294342890684e-04  3.2136770470253442e-04  2.3787369559746238e-04  1.7597793632956359e-04  1.3013410168288386e-04  9.6212309455085763e-05  7.1147013376246686e-05  5.2668271338696071e-05  3.9102197014635637e-05  2.9220341597025434e-05  2.2130210649049087e-05  1.7193908961392580e-05  1.3970839831950313e-05  1.2175675444504603e-05  1.1648470916276825e-05  7.9178488651359513e-01  7.8855801508674417e-01  7.7995938144432808e-01  7.6695115990021434e-01  7.5104692056585165e-01  7.3290349272385236e-01  7.1181732592812041e-01  6.8650126846931714e-01  6.5738501404497007e-01  6.2861984087491818e-01  6.0517069274666446e-01  5.8879213526249585e-01  5.7912017178845920e-01  5.7536266403981495e-01  5.7710837192225517e-01  5.8456393743405022e-01  5.9840375817099090e-01  6.1892579635245226e-01  6.4410515515129729e-01  6.6935002414330791e-01  6.9065312534618428e-01  7.0613913021613406e-01  7.1513111602554036e-01  7.1627897223815873e-01  7.0709223464724291e-01  6.8564386696294000e-01  6.5292839520276702e-01  6.1399285827135830e-01  5.7657580518214024e-01  5.4595543430691151e-01  5.2347814565765938e-01  5.0666641081819030e-01  4.9323325931051448e-01  4.8264880495288182e-01  4.7488990724755747e-01  4.6966647352023516e-01  4.6674767969089209e-01  4.6527712232464064e-01  4.6325220182562415e-01  4.5983688571811143e-01  4.5530868491206478e-01  4.5044050971334360e-01  4.4599489577401535e-01  4.4242767102341490e-01  4.3986638551731161e-01  4.3814875874156384e-01  4.3691058495775070e-01  4.3583920741079857e-01  4.3518086560560504e-01  4.3506676375877468e-01  4.3533393623434141e-01  4.3527817536236091e-01  4.3436131124519678e-01  4.3342243066891711e-01  4.3347247811533762e-01  4.3424448872106530e-01  4.3491289376187897e-01  4.3493882211542489e-01  4.3466080262507373e-01  4.3522519225543005e-01  4.3703453273930803e-01  4.3924513420943490e-01  4.4073374987853370e-01  4.4048555360500730e-01  4.3856025350114464e-01  4.3685160071403067e-01  4.3630372458613348e-01  4.3713122647587188e-01  4.3904479009668212e-01  4.4169766558836715e-01  4.4428529449786258e-01  4.4542176401716804e-01  4.4414306230722739e-01  4.4156484024988935e-01  4.4037755430580905e-01  4.4130420848544644e-01  4.4375577732365107e-01  4.4668534044518848e-01  4.4955092302364330e-01  4.5217824943422669e-01  4.5397749820109567e-01  4.5341258475355095e-01  4.4963520093032688e-01  4.4288220381430449e-01  4.3460682130262979e-01  4.2749446040415623e-01  4.2485843147423186e-01  4.2830330141595679e-01  4.3941567398297460e-01  4.5853175915886463e-01  4.8314324393900104e-01  5.1066039788069439e-01  5.3509670299557632e-01  5.4933633761403844e-01  5.5054694355897948e-01  5.3867231594614240e-01  5.1546191403853758e-01  4.8559576852874087e-01  4.5539066800781530e-01  4.3022214045223228e-01  4.1418682488616049e-01  4.0866693265050752e-01  4.1246411672407424e-01  4.2289616687883613e-01  4.3593226725426965e-01  4.4565747275336237e-01  4.4517448106063939e-01  4.3111346339433565e-01  4.0780734294063870e-01  3.8256589376067646e-01  3.6001610876438273e-01  3.4230107694503981e-01  3.2995993653622452e-01  3.2252278998841283e-01  3.1851709517863458e-01  3.1620259667095540e-01  3.1435528694168580e-01  3.1218060422116917e-01  3.0931979706806351e-01  3.0594899803746578e-01  3.0237354759429369e-01  2.9879012416399481e-01  2.9546406550200843e-01  2.9287630641225765e-01  2.9121826847629917e-01  2.9036184066810455e-01  2.9020277155409124e-01  2.9069080437765465e-01  2.9156890627463022e-01  2.9216971641181771e-01  2.9226896288770676e-01  2.9246339807709715e-01  2.9309623289102538e-01  2.9387652130547270e-01  2.9456702124333273e-01  2.9549144643761766e-01  2.96799951225