<?xml version="1.0"?>
<VTKFile type="UnstructuredGrid"  version="0.1"  >
<UnstructuredGrid>
<Piece  NumberOfPoints="7161" NumberOfCells="13800">
<Points>
<DataArray  type="Float64"  NumberOfComponents="3"  format="ascii">0 0 0  0.01652173913043478 0 0  0.03304347826086956 0 0  0.04956521739130434 0 0  0.06608695652173913 0 0  0.08260869565217391 0 0  0.09913043478260869 0 0  0.1156521739130435 0 0  0.1321739130434783 0 0  0.148695652173913 0 0  0.1652173913043478 0 0  0.1817391304347826 0 0  0.1982608695652174 0 0  0.2147826086956522 0 0  0.2313043478260869 0 0  0.2478260869565218 0 0  0.2643478260869565 0 0  0.2808695652173913 0 0  0.2973913043478261 0 0  0.3139130434782609 0 0  0.3304347826086956 0 0  0.3469565217391304 0 0  0.3634782608695652 0 0  0.3799999999999999 0 0  0.3965217391304348 0 0  0.4130434782608696 0 0  0.4295652173913043 0 0  0.4460869565217391 0 0  0.4626086956521739 0 0  0.4791304347826086 0 0  0.4956521739130435 0 0  0.5121739130434783 0 0  0.528695652173913 0 0  0.5452173913043478 0 0  0.5617391304347825 0 0  0.5782608695652174 0 0  0.5947826086956521 0 0  0.6113043478260869 0 0  0.6278260869565218 0 0  0.6443478260869565 0 0  0.6608695652173913 0 0  0.677391304347826 0 0  0.6939130434782609 0 0  0.7104347826086956 0 0  0.7269565217391304 0 0  0.7434782608695653 0 0  0.7599999999999999 0 0  0.7765217391304348 0 0  0.7930434782608695 0 0  0.8095652173913043 0 0  0.8260869565217391 0 0  0.8426086956521739 0 0  0.8591304347826086 0 0  0.8756521739130434 0 0  0.8921739130434783 0 0  0.908695652173913 0 0  0.9252173913043478 0 0  0.9417391304347826 0 0  0.9582608695652173 0 0  0.9747826086956521 0 0  0.991304347826087 0 0  1.007826086956522 0 0  1.024347826086957 0 0  1.040869565217391 0 0  1.057391304347826 0 0  1.073913043478261 0 0  1.090434782608696 0 0  1.10695652173913 0 0  1.123478260869565 0 0  1.14 0 0  1.156521739130435 0 0  1.17304347826087 0 0  1.189565217391304 0 0  1.206086956521739 0 0  1.222608695652174 0 0  1.239130434782609 0 0  1.255652173913044 0 0  1.272173913043478 0 0  1.288695652173913 0 0  1.305217391304348 0 0  1.321739130434783 0 0  1.338260869565217 0 0  1.354782608695652 0 0  1.371304347826087 0 0  1.387826086956522 0 0  1.404347826086957 0 0  1.420869565217391 0 0  1.437391304347826 0 0  1.453913043478261 0 0  1.470434782608696 0 0  1.486956521739131 0 0  1.503478260869565 0 0  1.52 0 0  1.536521739130435 0 0  1.55304347826087 0 0  1.569565217391304 0 0  1.586086956521739 0 0  1.602608695652174 0 0  1.619130434782609 0 0  1.635652173913043 0 0  1.652173913043478 0 0  1.668695652173913 0 0  1.685217391304348 0 0  1.701739130434782 0 0  1.718260869565217 0 0  1.734782608695652 0 0  1.751304347826087 0 0  1.767826086956522 0 0  1.784347826086957 0 0  1.800869565217391 0 0  1.817391304347826 0 0  1.833913043478261 0 0  1.850434782608696 0 0  1.86695652173913 0 0  1.883478260869565 0 0  1.9 0 0  1.916521739130435 0 0  1.933043478260869 0 0  1.949565217391304 0 0  1.966086956521739 0 0  1.982608695652174 0 0  1.999130434782608 0 0  2.015652173913043 0 0  2.032173913043478 0 0  2.048695652173913 0 0  2.065217391304348 0 0  2.081739130434782 0 0  2.098260869565217 0 0  2.114782608695652 0 0  2.131304347826087 0 0  2.147826086956522 0 0  2.164347826086956 0 0  2.180869565217391 0 0  2.197391304347826 0 0  2.213913043478261 0 0  2.230434782608695 0 0  2.24695652173913 0 0  2.263478260869565 0 0  2.28 0 0  2.296521739130434 0 0  2.31304347826087 0 0  2.329565217391304 0 0  2.346086956521739 0 0  2.362608695652174 0 0  2.379130434782609 0 0  2.395652173913044 0 0  2.412173913043478 0 0  2.428695652173913 0 0  2.445217391304348 0 0  2.461739130434782 0 0  2.478260869565217 0 0  2.494782608695652 0 0  2.511304347826087 0 0  2.527826086956522 0 0  2.544347826086956 0 0  2.560869565217391 0 0  2.577391304347826 0 0  2.593913043478261 0 0  2.610434782608696 0 0  2.62695652173913 0 0  2.643478260869565 0 0  2.66 0 0  2.676521739130435 0 0  2.693043478260869 0 0  2.709565217391304 0 0  2.726086956521739 0 0  2.742608695652174 0 0  2.759130434782609 0 0  2.775652173913044 0 0  2.792173913043478 0 0  2.808695652173913 0 0  2.825217391304347 0 0  2.841739130434783 0 0  2.858260869565217 0 0  2.874782608695652 0 0  2.891304347826087 0 0  2.907826086956522 0 0  2.924347826086957 0 0  2.940869565217391 0 0  2.957391304347826 0 0  2.973913043478261 0 0  2.990434782608696 0 0  3.006956521739131 0 0  3.023478260869565 0 0  3.04 0 0  3.056521739130435 0 0  3.073043478260869 0 0  3.089565217391304 0 0  3.106086956521739 0 0  3.122608695652174 0 0  3.139130434782609 0 0  3.155652173913043 0 0  3.172173913043478 0 0  3.188695652173913 0 0  3.205217391304347 0 0  3.221739130434782 0 0  3.238260869565217 0 0  3.254782608695652 0 0  3.271304347826087 0 0  3.287826086956521 0 0  3.304347826086957 0 0  3.320869565217391 0 0  3.337391304347826 0 0  3.353913043478261 0 0  3.370434782608696 0 0  3.386956521739131 0 0  3.403478260869565 0 0  3.419999999999999 0 0  3.436521739130435 0 0  3.453043478260869 0 0  3.469565217391304 0 0  3.486086956521739 0 0  3.502608695652174 0 0  3.519130434782609 0 0  3.535652173913043 0 0  3.552173913043478 0 0  3.568695652173913 0 0  3.585217391304347 0 0  3.601739130434782 0 0  3.618260869565217 0 0  3.634782608695652 0 0  3.651304347826087 0 0  3.667826086956521 0 0  3.684347826086956 0 0  3.700869565217391 0 0  3.717391304347826 0 0  3.733913043478261 0 0  3.750434782608695 0 0  3.766956521739131 0 0  3.783478260869565 0 0  3.8 0 0  0 0.01666666666666667 0  0.01652173913043478 0.01666666666666667 0  0.03304347826086956 0.01666666666666667 0  0.04956521739130434 0.01666666666666667 0  0.06608695652173913 0.01666666666666667 0  0.08260869565217391 0.01666666666666667 0  0.09913043478260869 0.01666666666666667 0  0.1156521739130435 0.01666666666666667 0  0.1321739130434783 0.01666666666666667 0  0.148695652173913 0.01666666666666667 0  0.1652173913043478 0.01666666666666667 0  0.1817391304347826 0.01666666666666667 0  0.1982608695652174 0.01666666666666667 0  0.2147826086956522 0.01666666666666667 0  0.2313043478260869 0.01666666666666667 0  0.2478260869565218 0.01666666666666667 0  0.2643478260869565 0.01666666666666667 0  0.2808695652173913 0.01666666666666667 0  0.2973913043478261 0.01666666666666667 0  0.3139130434782609 0.01666666666666667 0  0.3304347826086956 0.01666666666666667 0  0.3469565217391304 0.01666666666666667 0  0.3634782608695652 0.01666666666666667 0  0.3799999999999999 0.01666666666666667 0  0.3965217391304348 0.01666666666666667 0  0.4130434782608696 0.01666666666666667 0  0.4295652173913043 0.01666666666666667 0  0.4460869565217391 0.01666666666666667 0  0.4626086956521739 0.01666666666666667 0  0.4791304347826086 0.01666666666666667 0  0.4956521739130435 0.01666666666666667 0  0.5121739130434783 0.01666666666666667 0  0.528695652173913 0.01666666666666667 0  0.5452173913043478 0.01666666666666667 0  0.5617391304347825 0.01666666666666667 0  0.5782608695652174 0.01666666666666667 0  0.5947826086956521 0.01666666666666667 0  0.6113043478260869 0.01666666666666667 0  0.6278260869565218 0.01666666666666667 0  0.6443478260869565 0.01666666666666667 0  0.6608695652173913 0.01666666666666667 0  0.677391304347826 0.01666666666666667 0  0.6939130434782609 0.01666666666666667 0  0.7104347826086956 0.01666666666666667 0  0.7269565217391304 0.01666666666666667 0  0.7434782608695653 0.01666666666666667 0  0.7599999999999999 0.01666666666666667 0  0.7765217391304348 0.01666666666666667 0  0.7930434782608695 0.01666666666666667 0  0.8095652173913043 0.01666666666666667 0  0.8260869565217391 0.01666666666666667 0  0.8426086956521739 0.01666666666666667 0  0.8591304347826086 0.01666666666666667 0  0.8756521739130434 0.01666666666666667 0  0.8921739130434783 0.01666666666666667 0  0.908695652173913 0.01666666666666667 0  0.9252173913043478 0.01666666666666667 0  0.9417391304347826 0.01666666666666667 0  0.9582608695652173 0.01666666666666667 0  0.9747826086956521 0.01666666666666667 0  0.991304347826087 0.01666666666666667 0  1.007826086956522 0.01666666666666667 0  1.024347826086957 0.01666666666666667 0  1.040869565217391 0.01666666666666667 0  1.057391304347826 0.01666666666666667 0  1.073913043478261 0.01666666666666667 0  1.090434782608696 0.01666666666666667 0  1.10695652173913 0.01666666666666667 0  1.123478260869565 0.01666666666666667 0  1.14 0.01666666666666667 0  1.156521739130435 0.01666666666666667 0  1.17304347826087 0.01666666666666667 0  1.189565217391304 0.01666666666666667 0  1.206086956521739 0.01666666666666667 0  1.222608695652174 0.01666666666666667 0  1.239130434782609 0.01666666666666667 0  1.255652173913044 0.01666666666666667 0  1.272173913043478 0.01666666666666667 0  1.288695652173913 0.01666666666666667 0  1.305217391304348 0.01666666666666667 0  1.321739130434783 0.01666666666666667 0  1.338260869565217 0.01666666666666667 0  1.354782608695652 0.01666666666666667 0  1.371304347826087 0.01666666666666667 0  1.387826086956522 0.01666666666666667 0  1.404347826086957 0.01666666666666667 0  1.420869565217391 0.01666666666666667 0  1.437391304347826 0.01666666666666667 0  1.453913043478261 0.01666666666666667 0  1.470434782608696 0.01666666666666667 0  1.486956521739131 0.01666666666666667 0  1.503478260869565 0.01666666666666667 0  1.52 0.01666666666666667 0  1.536521739130435 0.01666666666666667 0  1.55304347826087 0.01666666666666667 0  1.569565217391304 0.01666666666666667 0  1.586086956521739 0.01666666666666667 0  1.602608695652174 0.01666666666666667 0  1.619130434782609 0.01666666666666667 0  1.635652173913043 0.01666666666666667 0  1.652173913043478 0.01666666666666667 0  1.668695652173913 0.01666666666666667 0  1.685217391304348 0.01666666666666667 0  1.701739130434782 0.01666666666666667 0  1.718260869565217 0.01666666666666667 0  1.734782608695652 0.01666666666666667 0  1.751304347826087 0.01666666666666667 0  1.767826086956522 0.01666666666666667 0  1.784347826086957 0.01666666666666667 0  1.800869565217391 0.0166666666666666
[...]
<PointData  Scalars="rho_bar"> 
<DataArray  type="Float64"  Name="rho_bar"  format="ascii">3.2172035270983756e-01  3.2185105257076929e-01  3.2214895974075969e-01  3.2246747151233235e-01  3.2272681521224084e-01  3.2291708896475496e-01  3.2302887241244288e-01  3.2308074551700183e-01  3.2307940922936607e-01  3.2303767916512860e-01  3.2295916504640804e-01  3.2285232631752858e-01  3.2271663046670457e-01  3.2255909798587856e-01  3.2237757453956134e-01  3.2217742859222498e-01  3.2195593198391315e-01  3.2171708504440139e-01  3.2145851384029467e-01  3.2118472701671069e-01  3.2089308379641168e-01  3.2058714678221850e-01  3.2026264380274883e-01  3.1992113445998505e-01  3.1955729446554049e-01  3.1917172951535533e-01  3.1876032865214354e-01  3.1832431569723540e-01  3.1785785076745438e-01  3.1735965819074513e-01  3.1682213590346536e-01  3.1624488289649122e-01  3.1562272072621056e-01  3.1495691523174918e-01  3.1424706917387041e-01  3.1350449890850829e-01  3.1273605637279406e-01  3.1195323654804757e-01  3.1115992500324041e-01  3.1036385653880677e-01  3.0956581953284545e-01  3.0877112486569414e-01  3.0797898734540446e-01  3.0719391470174512e-01  3.0641420523047447e-01  3.0564371385156791e-01  3.0488060726935939e-01  3.0412839523988794e-01  3.0338495202917676e-01  3.0265335842562824e-01  3.0193121424414310e-01  3.0122159319829772e-01  3.0052165023386540e-01  2.9983407308650006e-01  2.9915602394205798e-01  2.9848993375750377e-01  2.9783273282513234e-01  2.9718649455926976e-01  2.9654795298735459e-01  2.9591928315182009e-01  2.9529691844849965e-01  2.9468279969172201e-01  2.9407353552421056e-01  2.9347104252136924e-01  2.9287193738597717e-01  2.9227799198080856e-01  2.9168581576612285e-01  2.9109757006964571e-01  2.9050966200241846e-01  2.8992433757773162e-01  2.8933819900667523e-01  2.8875373871958687e-01  2.8816729113102946e-01  2.8758165191336954e-01  2.8699309733885131e-01  2.8640482993746763e-01  2.8581274968320830e-01  2.8522041147764260e-01  2.8462377439487019e-01  2.8402665510617048e-01  2.8342562771344587e-01  2.8282381717403721e-01  2.8221807439559393e-01  2.8161144581045755e-01  2.8100113184841341e-01  2.8038973373555831e-01  2.7977457099593295e-01  2.7915839153743000e-01  2.7853846610331234e-01  2.7791736493805386e-01  2.7729266640958272e-01  2.7666689381932030e-01  2.7603761127625959e-01  2.7540722643572041e-01  2.7477331657599324e-01  2.7413851619526214e-01  2.7350022357187515e-01  2.7286096591185494e-01  2.7221838312521640e-01  2.7157498107542144e-01  2.7092839279587116e-01  2.7028098271064649e-01  2.6963037757531666e-01  2.6897916582678916e-01  2.6832480531626046e-01  2.6766976823812733e-01  2.6701174638895020e-01  2.6635319197380813e-01  2.6569179107147201e-01  2.6502985795450867e-01  2.6436507360698935e-01  2.6369997410923979e-01  2.6303207731640948e-01  2.6236380484205307e-01  2.6169290476993229e-01  2.6102178353417871e-01  2.6034818761615230e-01  2.5967438646800334e-01  2.5899811704368186e-01  2.5832188884631602e-01  2.5764330701252697e-01  2.5696475380179135e-01  2.5628402431019104e-01  2.5560353508799555e-01  2.5492097171123607e-01  2.5423870819632999e-01  2.5355441992248406e-01  2.5287070954627133e-01  2.5218502033758755e-01  2.5149996987717321e-01  2.5081298269577462e-01  2.5012684232759907e-01  2.4943869184673173e-01  2.4875143421652418e-01  2.4806225935954931e-01  2.4737419367295604e-01  2.4668481563385772e-01  2.4599664462398105e-01  2.4530732315227849e-01  2.4461942662024036e-01  2.4393060523514168e-01  2.4324322769252060e-01  2.4255515499324423e-01  2.4186874888989651e-01  2.4118195330441697e-01  2.4049693331244512e-01  2.3981167602498796e-01  2.3912850840474884e-01  2.3844526522817819e-01  2.3776417736089586e-01  2.3708331927479301e-01  2.3640489859251945e-01  2.3572698664820299e-01  2.3505167632659132e-01  2.3437704809752749e-01  2.3370539186883574e-01  2.3303464314057035e-01  2.3236699438128738e-01  2.3170059735453574e-01  2.3103762706085304e-01  2.3037623432269716e-01  2.2971847603732520e-01  2.2906250658801316e-01  2.2841058191262587e-01  2.2776072281501439e-01  2.2711508118459087e-01  2.2647188214421005e-01  2.2583328132269634e-01  2.2519751969339574e-01  2.2456662275869077e-01  2.2393880365470326e-01  2.2331633377528015e-01  2.2269720449509300e-01  2.2208367692854827e-01  2.2147382534217086e-01  2.2087000770387427e-01  2.2027000192642315e-01  2.1967631101298488e-01  2.1908659366737335e-01  2.1850357978458537e-01  2.1792455805928884e-01  2.1735245985404564e-01  2.1678456608717533e-01  2.1622394379422216e-01  2.1566829108953300e-01  2.1512009031592397e-01  2.1457722057834044e-01  2.1404205572383056e-01  2.1351270684954682e-01  2.1299117178709301e-01  2.1247563649819914e-01  2.1196818541838944e-01  2.1146694212062039e-01  2.1097384782162781e-01  2.1048726914935562e-01  2.1000910667983833e-01  2.0953772063363185e-01  2.0907493839203456e-01  2.0861915913209195e-01  2.0817241059507482e-01  2.0773297947435004e-01  2.0730285649913227e-01  2.0688057074572822e-01  2.0646814143029152e-01  2.0606413877192792e-01  2.0567052880339540e-01  2.0528593316066174e-01  2.0491253542239021e-01  2.0454885406497672e-01  2.0419702108164564e-01  2.0385576704038513e-01  2.0352721771510210e-01  2.0321009922045574e-01  2.0290644992439003e-01  2.0261502618400110e-01  2.0233809795706265e-01  2.0207440174921840e-01  2.0182638230061994e-01  2.0159339048113847e-01  2.0137858757720023e-01  2.0118244949793918e-01  2.0100973621754281e-01  2.0086337189443898e-01  2.0075196432127226e-01  2.0068314367374224e-01  2.0066954489537084e-01  2.0072166196805183e-01  2.0085009964370706e-01  2.0104449081765891e-01  2.0124944665478028e-01  2.0132023906284408e-01  3.2136675697679928e-01  3.2150385512029706e-01  3.2183250060758201e-01  3.2217385117097136e-01  3.2246177897797812e-01  3.2266819714377293e-01  3.2280071069217853e-01  3.2286189831339041e-01  3.2287126670673166e-01  3.2283362293669721e-01  3.2276008373083886e-01  3.2265261281429336e-01  3.2251889133725425e-01  3.2235783702438459e-01  3.2217581307726478e-01  3.2197053053181507e-01  3.2174640631732027e-01  3.2150058749563071e-01  3.2123751901651876e-01  3.2095530178361859e-01  3.2065832800263622e-01  3.2034335441777301e-01  3.2001296031445708e-01  3.1966217976173339e-01  3.1929126814046949e-01  3.1889504421623310e-01  3.1847509684484498e-01  3.1802755025877338e-01  3.1755270419727327e-01  3.1704333020202818e-01  3.1649775841146605e-01  3.1591011080746084e-01  3.1528182200911609e-01  3.1460923574600808e-01  3.1389735973550331e-01  3.1315119026595384e-01  3.1238304546796491e-01  3.1159824784866641e-01  3.1080610987880075e-01  3.1000877448879560e-01  3.0921234349018017e-01  3.0841650557677536e-01  3.0762607734899322e-01  3.0683996465204383e-01  3.0606213006025801e-01  3.0529066420347356e-01  3.0452926636830879e-01  3.0377613290935845e-01  3.0303444392908779e-01  3.0230184008908312e-01  3.0158144612832161e-01  3.0087087255241651e-01  3.0017283667496358e-01  2.9948438512236403e-01  2.9880810596364943e-01  2.9814122140176763e-01  2.9748586686889195e-01  2.9683877182604046e-01  2.9620209643958012e-01  2.9557264796073862e-01  2.9495231417207729e-01  2.9433749258177200e-01  2.9373012846153640e-01  2.9312701380321404e-01  2.9252987622245752e-01  2.9193521658616539e-01  2.9134503335093531e-01  2.9075607531115333e-01  2.9017038168507914e-01  2.8958433914774023e-01  2.8900036349683422e-01  2.8841508371440616e-01  2.8783103715718267e-01  2.8724445549888117e-01  2.8665836672097067e-01  2.8606899526185731e-01  2.8547963553603378e-01  2.8488613401653323e-01  2.8429216926319517e-01  2.8369419230029902e-01  2.8309564485783839e-01  2.8249312190405895e-01  2.8188971378648864e-01  2.8128261169255520e-01  2.8067456132364710e-01  2.8006270952568690e-01  2.7944977541211813e-01  2.7883326136709263e-01  2.7821567324387769e-01  2.7759433738790967e-01  2.7697183701319378e-01  2.7634590445067436e-01  2.7571889513278347e-01  2.7508829443110316e-01  2.7445666862157708e-01  2.7382171618898560e-01  2.7318586484765606e-01  2.7254653330373246e-01  2.7190626691877084e-01  2.7126286526974580e-01  2.7061865996746876e-01  2.6997119378408047e-01  2.6932298458380699e-01  2.6867178216724108e-01  2.6801996811569817e-01  2.6736501755218800e-01  2.6670942042287077e-01  2.6605102576529738e-01  2.6539211530124351e-01  2.6473028694118517e-01  2.6406800645827833e-01  2.6340307752490866e-01  2.6273783284738034e-01  2.6206980698347215e-01  2.6140144070572763e-01  2.6073064035475674e-01  2.6005964406533472e-01  2.5938610656517080e-01  2.5871245131572584e-01  2.5803655904792483e-01  2.5736073407748666e-01  2.5668257321263827e-01  2.5600451257641954e-01  2.5532445401339460e-01  2.5464468330685591e-01  2.5396280154617545e-01  2.5328132612045134e-01  2.5259799495222457e-01  2.5191530923375532e-01  2.5123061103441757e-01  2.5054663726001636e-01  2.4986079237737330e-01  2.4917583150084099e-01  2.4848885691485206e-01  2.4780282300053055e-01  2.4711525763622721e-01  2.4642890611766211e-01  2.4574127701479759e-01  2.4505494379015685e-01  2.4436770801712226e-01  2.4368193165791574e-01  2.4299528577827495e-01  2.4231015453604071e-01  2.4162458538678303e-01  2.4094075561586725e-01  2.4025654759483855e-01  2.3957424890803580e-01  2.3889195632272264e-01  2.3821180371341677e-01  2.3753165880913296e-01  2.3685376913075118e-01  2.3617635029803627e-01  2.3550145792906632e-01  2.3482709262995322e-01  2.3415548352397766e-01  2.3348482048869010e-01  2.3281721134221212e-01  2.3215061256274030e-01  2.3148723280534644e-01  2.3082536337762474e-01  2.3016702863741920e-01  2.2951030562269278e-01  2.2885738581217338e-01  2.2820653790533033e-01  2.2755983502798413e-01  2.2691531109500254e-01  2.2627514108034466e-01  2.2563770405612543e-01  2.2500500195705000e-01  2.2437518025598691e-01  2.2375041822682532e-01  2.2312900867936278e-01  2.2251308799561140e-01  2.2190059942805906e-01  2.2129389128113297e-01  2.2069101462568180e-01  2.2009431205021207e-01  2.1950144404838737e-01  2.1891504992315944e-01  2.1833270698876134e-01  2.1775717442417197e-01  2.1718567166111866e-01  2.1662119326113097e-01  2.1606137075882659e-01  2.1550895059273326e-01  2.1496163054503800e-01  2.1442184397395736e-01  2.1388771375944574e-01  2.1336136083618612e-01  2.1284084712912105e-01  2.1232825076846357e-01  2.1182188678507707e-01  2.1132364482937990e-01  2.1083169532233489e-01  2.1034798895884799e-01  2.0987101269771155e-01  2.0940254059383318e-01  2.0894088574693193e-01  2.0848801070868764e-01  2.0804241840890900e-01  2.0760599075372496e-01  2.0717705400433228e-01  2.0675763115645909e-01  2.0634639006023878e-01  2.0594523016301677e-01  2.0555267027147306e-01  2.0517080743496685e-01  2.0479835855928036e-01  2.0443734528712315e-01  2.0408629839866671e-01  2.0374735100489466e-01  2.0341933308491011e-01  2.0310421991020269e-01  2.0280066105588518e-01  2.0251081483083602e-01  2.0223355058275164e-01  2.0197106056235944e-01  2.0172225279130179e-01  2.0148987017017020e-01  2.0127386094761107e-01  2.0107795436361869e-01  2.0090356421644101e-01  2.0075712772057758e-01  2.0064412579448784e-01  2.0057510102496251e-01  2.0055950708405831e-01  2.0061121270144172e-01  2.0073671752721733e-01  2.0093066539096383e-01  2.0113955130832251e-01  2.0124473232812667e-01  3.2020649793554801e-01  3.2038168809144807e-01  3.2076486369891372e-01  3.2117756780578216e-01  3.2152344278444789e-01  3.2178514814401538e-01  3.2195484563006793e-01  3.2204979580225312e-01  3.2207891579623504e-01  3.2205567059049733e-01  3.2198568952194434e-01  3.2187873600398492e-01  3.2173699044907333e-01  3.2156790991252598e-01  3.2137073874585864e-01  3.2115069784253641e-01  3.2090556664014819e-01  3.2063900730113343e-01  3.2034937665480795e-01  3.2004170165655749e-01  3.1971511406012654e-01  3.1937320285615567e-01  3.1901239704798717e-01  3.1863317221614929e-01  3.1822990989643801e-01  3.1780212454826978e-01  3.1734677925046584e-01  3.1686605054824124e-01  3.1635638491425749e-01  3.1581668985233835e-01  3.1524001510989963e-01  3.1462622369494581e-01  3.1397332474440121e-01  3.1328480464038744e-01  3.1256098366946239e-01  3.1181020754067662e-01  3.1103832603288029e-01  3.1025450229924195e-01  3.0946186804532222e-01  3.0866704199297479e-01  3.0787105668665971e-01  3.0707851191911373e-01  3.0628897885687395e-01  3.0550617743356062e-01  3.0472938781272629e-01  3.0396163131901582e-01  3.0320134698019213e-01  3.0245160557363215e-01  3.0171092503336616e-01  3.0098193041976601e-01  3.0026271299179624e-01  2.9955565799263500e-01  2.9885893054369850e-01  2.9817442567464975e-01  2.9749958394061732e-01  2.9683640843718367e-01  2.9618246077425447e-01  2.9553935833682293e-01  2.9490431350767599e-01  2.9427880938049850e-01  2.9366026548289065e-01  2.9304982873099056e-01  2.9244438379521775e-01  2.9184540322950986e-01  2.9125013306518382e-01  2.9065988384570640e-01  2.9007169863691745e-01  2.8948708009242424e-01  2.8890345350229119e-01  2.8832226568011499e-01  2.8774033199770371e-01  2.8715978742433323e-01  2.8657767161335868e-01  2.8599629958004275e-01  2.8541206505612587e-01  2.8482788924014873e-01  2.8424035579632501e-01  2.8365247269559812e-01  2.8306061351468753e-01  2.8246805166614625e-01  2.8187189634392401e-01  2.8127491700703960e-01  2.8067426228646281e-01  2.8007247837340704e-01  2.7946732273747110e-01  2.7886099432743167e-01  2.7825126654855542e-01  2.7764022469922245e-01  2.7702604342865828e-01  2.7641058619787651e-01  2.7579168397348236e-01  2.7517145459592834e-01  2.7454805095660806e-01  2.7392345165156851e-01  2.7329567656114423e-01  2.7266672263509362e-01  2.7203490773696426e-01  2.7140202486047277e-01  2.7076596518633644e-01  2.7012883863923870e-01  2.6948885287131219e-01  2.6884795476893508e-01  2.6820420581048837e-01  2.6755956855801583e-01  2.6691240151162282e-01  2.6626445834915280e-01  2.6561367745873243e-01  2.6496212273658543e-01  2.6430804428166133e-01  2.6365334660142653e-01  2.6299613875588007e-01  2.6233834130166611e-01  2.6167835679922830e-01  2.6101790079304293e-01  2.6035496545235620e-01  2.5969157402622717e-01  2.5902602825428683e-01  2.5836019280928202e-01  2.5769222608086356e-01  2.5702402664101603e-01  2.5635406767694857e-01  2.5568403826471464e-01  2.5501200035846916e-01  2.5433996684724358e-01  2.5366624569717128e-01  2.5299276857725872e-01  2.5231749160101358e-01  2.5164256426426940e-01  2.5096616544442807e-01  2.5029034170299297e-01  2.4961270977079869e-01  2.4893574057776319e-01  2.4825716210302112e-01  2.4757943898574133e-01  2.4690002778488992e-01  2.4622156509551973e-01  2.4554201345173171e-01  2.4486361901202811e-01  2.4418435822159715e-01  2.4350630188619110e-01  2.4282776219459576e-01  2.4215059531720742e-01  2.4147289890963280e-01  2.4079665375835116e-01  2.4012030545379520e-01  2.3944564590193476e-01  2.3877105911638727e-01  2.3809828957410401e-01  2.3742599067217826e-01  2.3675573647258183e-01  2.3608582496552466e-01  2.3541811133771229e-01  2.3475117054921810e-01  2.3408672452525725e-01  2.3342323737737897e-01  2.3276244424212436e-01  2.3210306858154600e-01  2.3144666751141435e-01  2.3079160970676441e-01  2.3013972437256236e-01  2.2948965179225805e-01  2.2884308505402573e-01  2.2819855688596763e-01  2.2755777410515282e-01  2.2691953040293200e-01  2.2628535152978069e-01  2.2565368418549403e-01  2.2502633314736273e-01  2.2440202842867998e-01  2.2378243316634197e-01  2.2316610387973979e-01  2.2255479124680905e-01  2.2194727674783815e-01  2.2134519203998668e-01  2.2074678102860285e-01  2.2015411342851446e-01  2.1956551095897539e-01  2.1898309458548579e-01  2.1840461668363845e-01  2.1783257817586771e-01  2.1726479275316812e-01  2.1670376012671341e-01  2.1614708715426359e-01  2.1559741184932030e-01  2.1505284720906742e-01  2.1451559442815571e-01  2.1398377024743853e-01  2.1345935753066722e-01  2.1294089839708533e-01  2.1243007933191763e-01  2.1192544755840864e-01  2.1142857450966754e-01  2.1093828675118878e-01  2.1045597852073433e-01  2.0998022072583397e-01  2.0951260010324863e-01  2.0905192849308640e-01  2.0859969915679011e-01  2.0815465704930050e-01  2.0771832395334136e-01  2.0728968631527717e-01  2.0687014469764148e-01  2.0645840443233299e-01  2.0605614552555740e-01  2.0566233986882695e-01  2.0527858159488863e-01  2.0490378027871239e-01  2.0453956396511508e-01  2.0418507579500855e-01  2.0384180340183705e-01  2.0350858488388540e-01  2.0318715218393713e-01  2.0287657218466534e-01  2.0257847557169717e-01  2.0229187688562725e-01  2.0201849806422301e-01  2.0175772148883839e-01  2.0151141136868100e-01  2.0127913180806870e-01  2.0106377302468545e-01  2.0086634340470039e-01  2.0069135739063876e-01  2.0054246189021174e-01  2.0042765891473846e-01  2.0035566119881218e-01  2.0033848924724576e-01  2.0038691245244294e-01  2.0051133539346364e-01  2.0070344428814679e-01  2.0091646273472497e-01  2.0102362316646283e-01  3.1803868834897270e-01  3.1826198094767594e-01  3.1874428017261514e-01  3.1925462353276846e-01  3.1969368133847376e-01  3.2002640814416394e-01  3.2025687105565204e-01  3.2039260114720075e-01  3.2044944343692799e-01  3.2043768454554250e-01  3.2036930336570540e-01  3.2025039405659017e-01  3.2009120375043781e-01  3.1989480589158653e-01  3.1966804763951617e-01  3.1941026403600603e-01  3.1912561698321279e-01  3.1881237631844600e-01  3.1847470016151241e-01  3.1811335115532374e-01  3.1773411486784886e-01  3.1733663182464039e-01  3.1692268227273718e-01  3.1648797047704508e-01  3.1603125045445951e-01  3.1554776316596594e-01  3.1503854454264779e-01  3.1450273803671819e-01  3.1394241332134393e-01  3.1335415219038637e-01  3.1273677961534541e-01  3.1208639785062625e-01  3.1140582640483183e-01  3.1069566067381704e-01  3.0996029269588476e-01  3.0920265953859927e-01  3.0843027682561269e-01  3.0764707894219329e-01  3.0685886879638907e-01  3.0606710225992623e-01  3.0527668822924114e-01  3.0448831951142857e-01  3.0370509732673440e-01  3.0292675971175642e-01  3.0215626174998267e-01  3.0139318677638111e-01  3.0063967321662666e-01  2.9989443023356388e-01  2.9916018682088041e-01  2.9843599539745841e-01  2.9772354939764906e-01  2.9702141999317472e-01  2.9633141939766788e-01  2.9565210302843475e-01  2.9498454836105764e-01  2.9432648747930784e-01  2.9367960830116258e-01  2.9304202116637129e-01  2.9241446162481610e-01  2.9179466681921801e-01  2.9118361063675191e-01  2.9057917052408899e-01  2.8998177647801143e-01  2.8938871901259705e-01  2.8880125859594774e-01  2.8821724890287459e-01  2.8763728597618071e-01  2.8705901226439801e-01  2.8648357423900517e-01  2.8590887370734180e-01  2.8533582808053198e-01  2.8476159282598967e-01  2.8418831700822555e-01  2.8361335796471915e-01  2.8303866120421273e-01  2.8246087230634770e-01  2.8188287851790372e-01  2.8130176112418553e-01  2.8071996469953270e-01  2.8013447780609996e-01  2.7954821468886187e-01  2.7895895310262997e-01  2.7836857098163093e-01  2.7777472380473861e-01  2.7717965831388591e-01  2.7658185737284963e-01  2.7598264407945516e-01  2.7538040608144904e-01  2.7477682234459289e-01  2.7417059543107258e-01  2.7356290788251481e-01  2.7295196446172482e-01  2.7233969689651161e-01  2.7172487161647341e-01  2.7110872908764005e-01  2.7048983679681649e-01  2.6986978116372284e-01  2.6924735012095219e-01  2.6862369700010286e-01  2.6799708284838841e-01  2.6736942429588811e-01  2.6673952059001471e-01  2.6610859076630172e-01  2.6547523655243288e-01  2.6484101405072263e-01  2.6420474198070920e-01  2.6356754523109577e-01  2.6292772653073165e-01  2.6228716037704075e-01  2.6164467872929048e-01  2.6100147202980523e-01  2.6035618169364749e-01  2.5971032856808579e-01  2.5906276746422791e-01  2.5841459768276853e-01  2.5776417275900337e-01  2.5711333066136766e-01  2.5646093536900216e-01  2.5580815897542825e-01  2.5515369324734744e-01  2.5449902915140971e-01  2.5384311023924933e-01  2.5318700712197828e-01  2.5252914643715019e-01  2.5187138099043888e-01  2.5121246055663021e-01  2.5055374790943602e-01  2.4989357001084880e-01  2.4923382412046324e-01  2.4857301167441195e-01  2.4791271122275740e-01  2.4725080236299410e-01  2.4658967137957741e-01  2.4592739748486514e-01  2.4526596359118374e-01  2.4460321586908174e-01  2.43941507346