<?xml version="1.0"?>
<VTKFile type="UnstructuredGrid"  version="0.1"  >
<UnstructuredGrid>
<Piece  NumberOfPoints="7161" NumberOfCells="13800">
<Points>
<DataArray  type="Float64"  NumberOfComponents="3"  format="ascii">0 0 0  0.01652173913043478 0 0  0.03304347826086956 0 0  0.04956521739130434 0 0  0.06608695652173913 0 0  0.08260869565217391 0 0  0.09913043478260869 0 0  0.1156521739130435 0 0  0.1321739130434783 0 0  0.148695652173913 0 0  0.1652173913043478 0 0  0.1817391304347826 0 0  0.1982608695652174 0 0  0.2147826086956522 0 0  0.2313043478260869 0 0  0.2478260869565218 0 0  0.2643478260869565 0 0  0.2808695652173913 0 0  0.2973913043478261 0 0  0.3139130434782609 0 0  0.3304347826086956 0 0  0.3469565217391304 0 0  0.3634782608695652 0 0  0.3799999999999999 0 0  0.3965217391304348 0 0  0.4130434782608696 0 0  0.4295652173913043 0 0  0.4460869565217391 0 0  0.4626086956521739 0 0  0.4791304347826086 0 0  0.4956521739130435 0 0  0.5121739130434783 0 0  0.528695652173913 0 0  0.5452173913043478 0 0  0.5617391304347825 0 0  0.5782608695652174 0 0  0.5947826086956521 0 0  0.6113043478260869 0 0  0.6278260869565218 0 0  0.6443478260869565 0 0  0.6608695652173913 0 0  0.677391304347826 0 0  0.6939130434782609 0 0  0.7104347826086956 0 0  0.7269565217391304 0 0  0.7434782608695653 0 0  0.7599999999999999 0 0  0.7765217391304348 0 0  0.7930434782608695 0 0  0.8095652173913043 0 0  0.8260869565217391 0 0  0.8426086956521739 0 0  0.8591304347826086 0 0  0.8756521739130434 0 0  0.8921739130434783 0 0  0.908695652173913 0 0  0.9252173913043478 0 0  0.9417391304347826 0 0  0.9582608695652173 0 0  0.9747826086956521 0 0  0.991304347826087 0 0  1.007826086956522 0 0  1.024347826086957 0 0  1.040869565217391 0 0  1.057391304347826 0 0  1.073913043478261 0 0  1.090434782608696 0 0  1.10695652173913 0 0  1.123478260869565 0 0  1.14 0 0  1.156521739130435 0 0  1.17304347826087 0 0  1.189565217391304 0 0  1.206086956521739 0 0  1.222608695652174 0 0  1.239130434782609 0 0  1.255652173913044 0 0  1.272173913043478 0 0  1.288695652173913 0 0  1.305217391304348 0 0  1.321739130434783 0 0  1.338260869565217 0 0  1.354782608695652 0 0  1.371304347826087 0 0  1.387826086956522 0 0  1.404347826086957 0 0  1.420869565217391 0 0  1.437391304347826 0 0  1.453913043478261 0 0  1.470434782608696 0 0  1.486956521739131 0 0  1.503478260869565 0 0  1.52 0 0  1.536521739130435 0 0  1.55304347826087 0 0  1.569565217391304 0 0  1.586086956521739 0 0  1.602608695652174 0 0  1.619130434782609 0 0  1.635652173913043 0 0  1.652173913043478 0 0  1.668695652173913 0 0  1.685217391304348 0 0  1.701739130434782 0 0  1.718260869565217 0 0  1.734782608695652 0 0  1.751304347826087 0 0  1.767826086956522 0 0  1.784347826086957 0 0  1.800869565217391 0 0  1.817391304347826 0 0  1.833913043478261 0 0  1.850434782608696 0 0  1.86695652173913 0 0  1.883478260869565 0 0  1.9 0 0  1.916521739130435 0 0  1.933043478260869 0 0  1.949565217391304 0 0  1.966086956521739 0 0  1.982608695652174 0 0  1.999130434782608 0 0  2.015652173913043 0 0  2.032173913043478 0 0  2.048695652173913 0 0  2.065217391304348 0 0  2.081739130434782 0 0  2.098260869565217 0 0  2.114782608695652 0 0  2.131304347826087 0 0  2.147826086956522 0 0  2.164347826086956 0 0  2.180869565217391 0 0  2.197391304347826 0 0  2.213913043478261 0 0  2.230434782608695 0 0  2.24695652173913 0 0  2.263478260869565 0 0  2.28 0 0  2.296521739130434 0 0  2.31304347826087 0 0  2.329565217391304 0 0  2.346086956521739 0 0  2.362608695652174 0 0  2.379130434782609 0 0  2.395652173913044 0 0  2.412173913043478 0 0  2.428695652173913 0 0  2.445217391304348 0 0  2.461739130434782 0 0  2.478260869565217 0 0  2.494782608695652 0 0  2.511304347826087 0 0  2.527826086956522 0 0  2.544347826086956 0 0  2.560869565217391 0 0  2.577391304347826 0 0  2.593913043478261 0 0  2.610434782608696 0 0  2.62695652173913 0 0  2.643478260869565 0 0  2.66 0 0  2.676521739130435 0 0  2.693043478260869 0 0  2.709565217391304 0 0  2.726086956521739 0 0  2.742608695652174 0 0  2.759130434782609 0 0  2.775652173913044 0 0  2.792173913043478 0 0  2.808695652173913 0 0  2.825217391304347 0 0  2.841739130434783 0 0  2.858260869565217 0 0  2.874782608695652 0 0  2.891304347826087 0 0  2.907826086956522 0 0  2.924347826086957 0 0  2.940869565217391 0 0  2.957391304347826 0 0  2.973913043478261 0 0  2.990434782608696 0 0  3.006956521739131 0 0  3.023478260869565 0 0  3.04 0 0  3.056521739130435 0 0  3.073043478260869 0 0  3.089565217391304 0 0  3.106086956521739 0 0  3.122608695652174 0 0  3.139130434782609 0 0  3.155652173913043 0 0  3.172173913043478 0 0  3.188695652173913 0 0  3.205217391304347 0 0  3.221739130434782 0 0  3.238260869565217 0 0  3.254782608695652 0 0  3.271304347826087 0 0  3.287826086956521 0 0  3.304347826086957 0 0  3.320869565217391 0 0  3.337391304347826 0 0  3.353913043478261 0 0  3.370434782608696 0 0  3.386956521739131 0 0  3.403478260869565 0 0  3.419999999999999 0 0  3.436521739130435 0 0  3.453043478260869 0 0  3.469565217391304 0 0  3.486086956521739 0 0  3.502608695652174 0 0  3.519130434782609 0 0  3.535652173913043 0 0  3.552173913043478 0 0  3.568695652173913 0 0  3.585217391304347 0 0  3.601739130434782 0 0  3.618260869565217 0 0  3.634782608695652 0 0  3.651304347826087 0 0  3.667826086956521 0 0  3.684347826086956 0 0  3.700869565217391 0 0  3.717391304347826 0 0  3.733913043478261 0 0  3.750434782608695 0 0  3.766956521739131 0 0  3.783478260869565 0 0  3.8 0 0  0 0.01666666666666667 0  0.01652173913043478 0.01666666666666667 0  0.03304347826086956 0.01666666666666667 0  0.04956521739130434 0.01666666666666667 0  0.06608695652173913 0.01666666666666667 0  0.08260869565217391 0.01666666666666667 0  0.09913043478260869 0.01666666666666667 0  0.1156521739130435 0.01666666666666667 0  0.1321739130434783 0.01666666666666667 0  0.148695652173913 0.01666666666666667 0  0.1652173913043478 0.01666666666666667 0  0.1817391304347826 0.01666666666666667 0  0.1982608695652174 0.01666666666666667 0  0.2147826086956522 0.01666666666666667 0  0.2313043478260869 0.01666666666666667 0  0.2478260869565218 0.01666666666666667 0  0.2643478260869565 0.01666666666666667 0  0.2808695652173913 0.01666666666666667 0  0.2973913043478261 0.01666666666666667 0  0.3139130434782609 0.01666666666666667 0  0.3304347826086956 0.01666666666666667 0  0.3469565217391304 0.01666666666666667 0  0.3634782608695652 0.01666666666666667 0  0.3799999999999999 0.01666666666666667 0  0.3965217391304348 0.01666666666666667 0  0.4130434782608696 0.01666666666666667 0  0.4295652173913043 0.01666666666666667 0  0.4460869565217391 0.01666666666666667 0  0.4626086956521739 0.01666666666666667 0  0.4791304347826086 0.01666666666666667 0  0.4956521739130435 0.01666666666666667 0  0.5121739130434783 0.01666666666666667 0  0.528695652173913 0.01666666666666667 0  0.5452173913043478 0.01666666666666667 0  0.5617391304347825 0.01666666666666667 0  0.5782608695652174 0.01666666666666667 0  0.5947826086956521 0.01666666666666667 0  0.6113043478260869 0.01666666666666667 0  0.6278260869565218 0.01666666666666667 0  0.6443478260869565 0.01666666666666667 0  0.6608695652173913 0.01666666666666667 0  0.677391304347826 0.01666666666666667 0  0.6939130434782609 0.01666666666666667 0  0.7104347826086956 0.01666666666666667 0  0.7269565217391304 0.01666666666666667 0  0.7434782608695653 0.01666666666666667 0  0.7599999999999999 0.01666666666666667 0  0.7765217391304348 0.01666666666666667 0  0.7930434782608695 0.01666666666666667 0  0.8095652173913043 0.01666666666666667 0  0.8260869565217391 0.01666666666666667 0  0.8426086956521739 0.01666666666666667 0  0.8591304347826086 0.01666666666666667 0  0.8756521739130434 0.01666666666666667 0  0.8921739130434783 0.01666666666666667 0  0.908695652173913 0.01666666666666667 0  0.9252173913043478 0.01666666666666667 0  0.9417391304347826 0.01666666666666667 0  0.9582608695652173 0.01666666666666667 0  0.9747826086956521 0.01666666666666667 0  0.991304347826087 0.01666666666666667 0  1.007826086956522 0.01666666666666667 0  1.024347826086957 0.01666666666666667 0  1.040869565217391 0.01666666666666667 0  1.057391304347826 0.01666666666666667 0  1.073913043478261 0.01666666666666667 0  1.090434782608696 0.01666666666666667 0  1.10695652173913 0.01666666666666667 0  1.123478260869565 0.01666666666666667 0  1.14 0.01666666666666667 0  1.156521739130435 0.01666666666666667 0  1.17304347826087 0.01666666666666667 0  1.189565217391304 0.01666666666666667 0  1.206086956521739 0.01666666666666667 0  1.222608695652174 0.01666666666666667 0  1.239130434782609 0.01666666666666667 0  1.255652173913044 0.01666666666666667 0  1.272173913043478 0.01666666666666667 0  1.288695652173913 0.01666666666666667 0  1.305217391304348 0.01666666666666667 0  1.321739130434783 0.01666666666666667 0  1.338260869565217 0.01666666666666667 0  1.354782608695652 0.01666666666666667 0  1.371304347826087 0.01666666666666667 0  1.387826086956522 0.01666666666666667 0  1.404347826086957 0.01666666666666667 0  1.420869565217391 0.01666666666666667 0  1.437391304347826 0.01666666666666667 0  1.453913043478261 0.01666666666666667 0  1.470434782608696 0.01666666666666667 0  1.486956521739131 0.01666666666666667 0  1.503478260869565 0.01666666666666667 0  1.52 0.01666666666666667 0  1.536521739130435 0.01666666666666667 0  1.55304347826087 0.01666666666666667 0  1.569565217391304 0.01666666666666667 0  1.586086956521739 0.01666666666666667 0  1.602608695652174 0.01666666666666667 0  1.619130434782609 0.01666666666666667 0  1.635652173913043 0.01666666666666667 0  1.652173913043478 0.01666666666666667 0  1.668695652173913 0.01666666666666667 0  1.685217391304348 0.01666666666666667 0  1.701739130434782 0.01666666666666667 0  1.718260869565217 0.01666666666666667 0  1.734782608695652 0.01666666666666667 0  1.751304347826087 0.01666666666666667 0  1.767826086956522 0.01666666666666667 0  1.784347826086957 0.01666666666666667 0  1.800869565217391 0.0166666666666666
[...]
<PointData  Scalars="rho_bar"> 
<DataArray  type="Float64"  Name="rho_bar"  format="ascii">8.1224567846105955e-01  8.0946171757073115e-01  8.0814740247822370e-01  8.0695856420390599e-01  8.0540329816699707e-01  8.0334980838696191e-01  8.0085153880406212e-01  7.9804870522516680e-01  7.9509945493623346e-01  7.9213309174704205e-01  7.8922846341965314e-01  7.8642681074000342e-01  7.8377268770267905e-01  7.8132141999651283e-01  7.7909014222869200e-01  7.7702086135570314e-01  7.7497772018614630e-01  7.7279387710352687e-01  7.7034797079811634e-01  7.6753805300245770e-01  7.6429056304040555e-01  7.6061938434594445e-01  7.5662471941600640e-01  7.5243238220059327e-01  7.4815990086968531e-01  7.4390877959239277e-01  7.3976585762594782e-01  7.3580459879405724e-01  7.3208515034348776e-01  7.2865369517077860e-01  7.2554290956678680e-01  7.2277272183622598e-01  7.2034998776376880e-01  7.1826752895137991e-01  7.1650745623218814e-01  7.1504624179785692e-01  7.1385610845114278e-01  7.1290528095929384e-01  7.1215892817774762e-01  7.1158004941806807e-01  7.1113054217876914e-01  7.1077181672961265e-01  7.1046549225293887e-01  7.1017378079137361e-01  7.0986020246747250e-01  7.0949013071165601e-01  7.0903172636253653e-01  7.0845654573048200e-01  7.0773999676349286e-01  7.0686068094393006e-01  7.0579915849449015e-01  7.0453739423971740e-01  7.0306193632492320e-01  7.0136781799529169e-01  6.9945924860230235e-01  6.9734778301546729e-01  6.9505074970515490e-01  6.9259059619562069e-01  6.8999463894568513e-01  6.8729185274252635e-01  6.8450893600435558e-01  6.8166933412139763e-01  6.7879404365058282e-01  6.7590216919067958e-01  6.7301135937944812e-01  6.7013766602363301e-01  6.6729544913664041e-01  6.6449692188946763e-01  6.6175190956866570e-01  6.5906738622914396e-01  6.5644748419291366e-01  6.5389360103548022e-01  6.5140509545182002e-01  6.4897996037006933e-01  6.4661575458283038e-01  6.4431018745969137e-01  6.4206173904525110e-01  6.3986981319962610e-01  6.3773500117096571e-01  6.3565896467808369e-01  6.3364441185720677e-01  6.3169450980566655e-01  6.2981208240275677e-01  6.2799808879781438e-01  6.2625004376655191e-01  6.2456103542924934e-01  6.2292135575847796e-01  6.2132066622802307e-01  6.1974832196769170e-01  6.1819257839190500e-01  6.1664033622465209e-01  6.1507724462949953e-01  6.1348851364083601e-01  6.1185972284523382e-01  6.1017788017397556e-01  6.0843209303737589e-01  6.0661422309923718e-01  6.0471895725967895e-01  6.0274387384127537e-01  6.0068913338137764e-01  5.9855740756307674e-01  5.9635365200106283e-01  5.9408519119929781e-01  5.9176154694478800e-01  5.8939433068126146e-01  5.8699654988875849e-01  5.8458182022210403e-01  5.8216309132202571e-01  5.7975154330132994e-01  5.7735542354162772e-01  5.7497952663378049e-01  5.7262502387667391e-01  5.7029013623666869e-01  5.6797101424890417e-01  5.6566308508886154e-01  5.6336208182236813e-01  5.6106491967675587e-01  5.5876976981378945e-01  5.5647576549885025e-01  5.5418205071581506e-01  5.5188692650344162e-01  5.4958696397808116e-01  5.4727690309844246e-01  5.4495001734524728e-01  5.4259927372586669e-01  5.4021851514762098e-01  5.3780368492328745e-01  5.3535333935985918e-01  5.3286876673158545e-01  5.3035331289532983e-01  5.2781145446782862e-01  5.2524735078472862e-01  5.2266373820894418e-01  5.2006121973961994e-01  5.1743872376763456e-01  5.1479462672916454e-01  5.1212845165087284e-01  5.0944189255951444e-01  5.0673872187278912e-01  5.0402275231278226e-01  5.0129568956314630e-01  4.9855768385106214e-01  4.9580977681597599e-01  4.9305391722688302e-01  4.9029263385061977e-01  4.8752885987118244e-01  4.8476577541021615e-01  4.8200558106463992e-01  4.7924813559540258e-01  4.7649054670080671e-01  4.7372850625450341e-01  4.7095845176316387e-01  4.6817984813824792e-01  4.6539348870882985e-01  4.6259817388924196e-01  4.5979094389357522e-01  4.5696943028571557e-01  4.5413476433878058e-01  4.5129436927122812e-01  4.4846163740181127e-01  4.4564983359553256e-01  4.4286045409352504e-01  4.4007421741604386e-01  4.3725284000613968e-01  4.3434963449076197e-01  4.3132010790658842e-01  4.2812991725445115e-01  4.2476043715416778e-01  4.2121515348888211e-01  4.1752794089194434e-01  4.1376575539808702e-01  4.1001446413217879e-01  4.0634746339581612e-01  4.0278237522912241e-01  3.9923468832963599e-01  3.9548195628289518e-01  3.9115646379011598e-01  3.8577658462333503e-01  3.7887330058076846e-01  3.7036376609523441e-01  3.6103715141171971e-01  3.5219825956032169e-01  3.4468351133139580e-01  3.3827520103243647e-01  3.3238853948358010e-01  3.2653708035330958e-01  3.2041101278308687e-01  3.1384217742379206e-01  3.0675158627683285e-01  2.9910626940221968e-01  2.9089205390964773e-01  2.8210185299150742e-01  2.7273642502868051e-01  2.6281147755429590e-01  2.5235703874621407e-01  2.4139458615000650e-01  2.2992808762553890e-01  2.1796768362356378e-01  2.0554494570940393e-01  1.9268731127102989e-01  1.7932596321986322e-01  1.6504442368872521e-01  1.4935991679779748e-01  1.3261122683704171e-01  1.1542668037115222e-01  9.8502792552668125e-02  8.2590732204427031e-02  6.8343879704736890e-02  5.6130038842016415e-02  4.5974015754017085e-02  3.7646222113659721e-02  3.0837628263263164e-02  2.5255918827259308e-02  2.0658329291670479e-02  1.6854655386106521e-02  1.3696847793179902e-02  1.1070694101486679e-02  8.8889035479926236e-03  7.0836423869845792e-03  5.5999681952371132e-03  4.3911038415715828e-03  3.4157800788377833e-03  2.6372069357385505e-03  2.0228746036716665e-03  1.5445926721593681e-03  1.1784836291928100e-03  9.0489448408985430e-04  7.0827199887684724e-04  5.7712944732426911e-04  5.0439598110349319e-04  4.8934750727582443e-04  7.9186863828684972e-01  7.9124279661663155e-01  7.9053212528838357e-01  7.8950762660445339e-01  7.8793267862902427e-01  7.8575752133728771e-01  7.8308091777873001e-01  7.8007833769030432e-01  7.7693645448998183e-01  7.7380597741282620e-01  7.7077791934014295e-01  7.6789422217310321e-01  7.6519803402645969e-01  7.6275417429905512e-01  7.6059025818075543e-01  7.5865797559421055e-01  7.5683297895000734e-01  7.5495216338738980e-01  7.5287463300086210e-01  7.5048293813177402e-01  7.4768510338995608e-01  7.4446954528974796e-01  7.4091550520192395e-01  7.3713368038431848e-01  7.3322883062746025e-01  7.2929276999936332e-01  7.2540610775474390e-01  7.2163951413981853e-01  7.1805293832113604e-01  7.1469455058743281e-01  7.1160047376480728e-01  7.0879584858556532e-01  7.0629419340201494e-01  7.0409540015345407e-01  7.0218677234393045e-01  7.0054925469798890e-01  6.9916004544162869e-01  6.9799263219146590e-01  6.9701707473120478e-01  6.9620097542747739e-01  6.9551024952656859e-01  6.9490997207657113e-01  6.9436483219579392e-01  6.9383981256431360e-01  6.9330068979261139e-01  6.9271492758569042e-01  6.9205242472207351e-01  6.9128650472495312e-01  6.9039423616008777e-01  6.8935596231900986e-01  6.8815315922251952e-01  6.8676730941185860e-01  6.8518379117207251e-01  6.8339790688034896e-01  6.8141496013635205e-01  6.7924781716789562e-01  6.7691453494194864e-01  6.7443807798600364e-01  6.7184661052327510e-01  6.6917017576838422e-01  6.6643510615926271e-01  6.6366376419505757e-01  6.6087557472979586e-01  6.5808800814257118e-01  6.5531679974759316e-01  6.5257605086984816e-01  6.4987789736924040e-01  6.4723232074751169e-01  6.4464665376153152e-01  6.4212535295421724e-01  6.3966973390650339e-01  6.3727835741397809e-01  6.3494761358285623e-01  6.3267276889571600e-01  6.3044881287923682e-01  6.2827137882321982e-01  6.2613719454002537e-01  6.2404451380057702e-01  6.2199311825418502e-01  6.1998445445436234e-01  6.1802135747072617e-01  6.1610767967839108e-01  6.1424718896222141e-01  6.1244212548860000e-01  6.1069112395051484e-01  6.0898809234738249e-01  6.0732410687228600e-01  6.0569072680939717e-01  6.0407967021390774e-01  6.0248177401542213e-01  6.0088623552588882e-01  5.9928085200125536e-01  5.9765258463747017e-01  5.9598859844302587e-01  5.9427710405659895e-01  5.9250830146934119e-01  5.9067481917009212e-01  5.8877204564626173e-01  5.8679791645079193e-01  5.8475279501615285e-01  5.8263913803640310e-01  5.8046148642930107e-01  5.7822634870962863e-01  5.7594234305230640e-01  5.7361994453159415e-01  5.7127113320156808e-01  5.6890842722548485e-01  5.6654388086976282e-01  5.6418777185732916e-01  5.6184764693924871e-01  5.5952754456549336e-01  5.5722803839490032e-01  5.5494667423011490e-01  5.5267911767649447e-01  5.5042030060915792e-01  5.4816572960034915e-01  5.4591219469586716e-01  5.4365808695492457e-01  5.4140286838546836e-01  5.3914630094380278e-01  5.3688728383036322e-01  5.3462311918826955e-01  5.3234910817123537e-01  5.3005909819023855e-01  5.2774641941294076e-01  5.2540526696103584e-01  5.2303169416005757e-01  5.2062431742924287e-01  5.1818425488040887e-01  5.1571481432414035e-01  5.1322049189937091e-01  5.1070575783736050e-01  5.0817364082521854e-01  5.0562511223676077e-01  5.0305924445438144e-01  5.0047453712477186e-01  4.9787048037345705e-01  4.9524886744020064e-01  4.9261355423040182e-01  4.8996832926891504e-01  4.8731380160339782e-01  4.8464862203251996e-01  4.8197316467403428e-01  4.7928943779336103e-01  4.7660020833783984e-01  4.7390894875043510e-01  4.7121936119286989e-01  4.6853390215451640e-01  4.6585163378491917e-01  4.6316816503676778e-01  4.6047740846156143e-01  4.5777457638168284e-01  4.5505962753999707e-01  4.5233551650840603e-01  4.4960273089256364e-01  4.4685967925854536e-01  4.4410476740684734e-01  4.4133972977097069e-01  4.3857306807373314e-01  4.3582076282258692e-01  4.3309920612120878e-01  4.3041036549582473e-01  4.2772985440066263e-01  4.2501160469347560e-01  4.2220376787100727e-01  4.1926213027062503e-01  4.1615764869820526e-01  4.1287967218351568e-01  4.0943892089562339e-01  4.0587532621404537e-01  4.0226118841452685e-01  3.9868501791424799e-01  3.9521730477674882e-01  3.9186690191817375e-01  3.8853705123257853e-01  3.8499795751196902e-01  3.8089630898862203e-01  3.7580548503949768e-01  3.6932263840623852e-01  3.6141558753050429e-01  3.5280154357749594e-01  3.4469028444996391e-01  3.3775597023078802e-01  3.3182347306651300e-01  3.2635336853255298e-01  3.2089171418059276e-01  3.1515150043200268e-01  3.0897891443054465e-01  3.0230387792329144e-01  2.9509922038895742e-01  2.8735397842130989e-01  2.7906133236865571e-01  2.7021782079027140e-01  2.6082929709407254e-01  2.5091269896751467e-01  2.4048078573187445e-01  2.2953137156973030e-01  2.1806821663890003e-01  2.0611081488949243e-01  1.9367158441280907e-01  1.8069547199629368e-01  1.6687023361907669e-01  1.5168419414193740e-01  1.3531860217860803e-01  1.1841291356943666e-01  1.0166158851128011e-01  8.5802520011099559e-02  7.1485544617962457e-02  5.9093836734119345e-02  4.8676297717881407e-02  4.0048946582080844e-02  3.2937610336397166e-02  2.7066011517495266e-02  2.2199072323441555e-02  1.8151269900988268e-02  1.4775299394211202e-02  1.1956241884569995e-02  9.6063628250078938e-03  7.6572649924800951e-03  6.0529137495337077e-03  4.7446975333941734e-03  3.6889286481780084e-03  2.8461657932385260e-03  2.1813334667416381e-03  1.6639275980872693e-03  1.2680766715639391e-03  9.7245209019866403e-04  7.6011525917782017e-04  6.1835028259121967e-04  5.3845792567539701e-04  5.1499767386892713e-04  7.3670202477783875e-01  7.3702441710796407e-01  7.3700090549072805e-01  7.3624121689889699e-01  7.3458497926809563e-01  7.3208188197199453e-01  7.2893093844977186e-01  7.2539969965410589e-01  7.2175377322789769e-01  7.1820586305780287e-01  7.1488923258287784e-01  7.1186395644207912e-01  7.0917045061692097e-01  7.0688490915354329e-01  7.0505003423579848e-01  7.0362815350106211e-01  7.0250510421892431e-01  7.0152110822232516e-01  7.0051224149072422e-01  6.9932705702917197e-01  6.9783922435778190e-01  6.9598490407535729e-01  6.9377749800571664e-01  6.9127051143337304e-01  6.8852366521233721e-01  6.8559564077758905e-01  6.8254606552554287e-01  6.7943508887130344e-01  6.7632075411306058e-01  6.7325593315389953e-01  6.7028653023867024e-01  6.6745155377763421e-01  6.6478247577973115e-01  6.6229910470082165e-01  6.6000612951467141e-01  6.5789744530974237e-01  6.5596460657812550e-01  6.5419622084687601e-01  6.5257707973364687e-01  6.5108834205146027e-01  6.4970825033376811e-01  6.4841274767781709e-01  6.4717614083642860e-01  6.4597166838436237e-01  6.4477232889389358e-01  6.4355180911635534e-01  6.4228570322318979e-01  6.4095266529096506e-01  6.3953531536722996e-01  6.3801964039631331e-01  6.3639110298510893e-01  6.3462970429179943e-01  6.3271712296117155e-01  6.3064977432597025e-01  6.2843723310224686e-01  6.2609660557340185e-01  6.2364869399028910e-01  6.2111743475629766e-01  6.1853305504206091e-01  6.1592849356194967e-01  6.1332903620932444e-01  6.1075349750692776e-01  6.0821704228146234e-01  6.0573234418247690e-01  6.0330997148138066e-01  6.0095832245551495e-01  5.9868351770428851e-01  5.9648907021136277e-01  5.9437552885009404e-01  5.9233997959998930e-01  5.9037585534505210e-01  5.8847323433239795e-01  5.8661992174001953e-01  5.8480284445823050e-01  5.8300951036290660e-01  5.8122908771301407e-01  5.7945318915734356e-01  5.7767622753996439e-01  5.7589560662243389e-01  5.7411166495309973e-01  5.7232754430141008e-01  5.7054860684122144e-01  5.6878124642948369e-01  5.6703075539484127e-01  5.6529876246514388e-01  5.6358103271421034e-01  5.6187069314828075e-01  5.6016452881976830e-01  5.5846135323999802e-01  5.5675925395603243e-01  5.5505433944570171e-01  5.5334054767697960e-01  5.5161028006449897e-01  5.4985528082763002e-01  5.4806769070004269e-01  5.4624088896488698e-01  5.4437018635969781e-01  5.4245303552928714e-01  5.4048892235128787e-01  5.3847891318092245e-01  5.3642533843810858e-01  5.3433158912502954e-01  5.3220225914786745e-01  5.3004331202957067e-01  5.2786225483276172e-01  5.2566789473653275e-01  5.2346975074675794e-01  5.2127699578865916e-01  5.1909734352116310e-01  5.1693592940887712e-01  5.1479465197002916e-01  5.1267200332012219e-01  5.1056367652697898e-01  5.0846363950389240e-01  5.0636557205232613e-01  5.0426413083856991e-01  5.0215592114117358e-01  5.0003972509319317e-01  4.9791609671341253e-01  4.9578626988883734e-01  4.9365092114821724e-01  4.9150906750828499e-01  4.8935769696522974e-01  4.8719210546331082e-01  4.8500696237614044e-01  4.8279751830848827e-01  4.8056062957007001e-01  4.7829509728775021e-01  4.7600171562690835e-01  4.7368329104316087e-01  4.7134437755008751e-01  4.6898998225559158e-01  4.6662399923698950e-01  4.6424812396752846e-01  4.6186198307277831e-01  4.5946433460315284e-01  4.5705493277365605e-01  4.5463587123946447e-01  4.5221148815952422e-01  4.4978563703118302e-01  4.4735629992079845e-01  4.4491711554572061e-01  4.4246630821026450e-01  4.4000548615616109e-01  4.3753798561739188e-01  4.3506878759390788e-01  4.3260396080112573e-01  4.3014739492289061e-01  4.2769639433607726e-01  4.2524179081363556e-01  4.2277223214388826e-01  4.2027799945042449e-01  4.1775900362322799e-01  4.1522412080058213e-01  4.1267940418951993e-01  4.1012788119824267e-01  4.0757077475183756e-01  4.0501109281756709e-01  4.0246048054227562e-01  3.9994367513513740e-01  3.9748975911238327e-01  3.9510425615773059e-01  3.9274520529790835e-01  3.9033758852955136e-01  3.8781009828782120e-01  3.8511664025887454e-01  3.8224366116077024e-01  3.7920571700436367e-01  3.7603740286254084e-01  3.7279951392340860e-01  3.6958599424491040e-01  3.6649971930844749e-01  3.6360850417147172e-01  3.6089851890840297e-01  3.5823557922923693e-01  3.5536196495343553e-01  3.5194496526685343e-01  3.4769044268220600e-01  3.4238542423621082e-01  3.3606276470222085e-01  3.2941651042652398e-01  3.2324135006617383e-01  3.1793529180479313e-01  3.1332207392572992e-01  3.0899359471197629e-01  3.0460225560534843e-01  2.9992863270918008e-01  2.9485820689309583e-01  2.8934394525151297e-01  2.8337354980753643e-01  2.7694512044704422e-01  2.7005430457036722e-01  2.6269009873282395e-01  2.5483784516851782e-01  2.4648191234525196e-01  2.3759882571357718e-01  2.2816049472272185e-01  2.1815707543860471e-01  2.0758616242541628e-01  1.9643158572562414e-01  1.8463631728460336e-01  1.7201497315024433e-01  1.5817231824539721e-01  1.4300517583273420e-01  1.2702605958255284e-01  1.1090600351820522e-01  9.5360941147523900e-02  8.0986749670919983e-02  6.8171265070805939e-02  5.7041582596212545e-02  4.7545021444557869e-02  3.9528910229312139e-02  3.2774534641363803e-02  2.7076644114963747e-02  2.2270385582833487e-02  1.8212298213810874e-02  1.4786271008228158e-02  1.1904894505843156e-02  9.4992944766778727e-03  7.5108447495179521e-03  5.8856033958180412e-03  4.5724193503789423e-03  3.5235984033041672e-03  2.6960727609294261e-03  2.0521398450776191e-03  1.5596874292104692e-03  1.1921310418990291e-03  9.2822701444822528e-04  7.5186482095912326e-04  6.5181932751289819e-04  6.2138658186030855e-04  6.4520217100796418e-01  6.4641569376076735e-01  6.4713200006225835e-01  6.4671353703321155e-01  6.4501863402365400e-01  6.4219475625783073e-01  6.3855677437702663e-01  6.3448496365176643e-01  6.3034554030009182e-01  6.2643526403066141e-01  6.2295532583389912e-01  6.2001662647082645e-01  6.1767992384248582e-01  6.1600619118003708e-01  6.1502798649064050e-01  6.1470673317519042e-01  6.1493216080011082e-01  6.1554316267617026e-01  6.1635559909777304e-01  6.1718254554026009e-01  6.1785397294465183e-01  6.1824335283589926e-01  6.1827852958382745e-01  6.1792497405633329e-01  6.1716741027853617e-01  6.1600635877405652e-01  6.1446193918800363e-01  6.1257251542588431e-01  6.1038935999491328e-01  6.0797074252517014e-01  6.0537701159140234e-01  6.0266752107149912e-01  5.9989804025345217e-01  5.9711613458429369e-01  5.9435496063221549e-01  5.9163144528641931e-01  5.8895997742651174e-01  5.8635295190921288e-01  5.8381811002229278e-01  5.8135796971463316e-01  5.7897015156102694e-01  5.7664794918886231e-01  5.7438096757922585e-01  5.7215584895723215e-01  5.6995726405287417e-01  5.6776917851312436e-01  5.6557641098926048e-01  5.6336632732279790e-01  5.6113035522996546e-01  5.5886408997934012e-01  5.5656211244034159e-01  5.5420465051902279e-01  5.5176633923363416e-01  5.4924674871851731e-01  5.4666405046103572e-01  5.4404357531964165e-01  5.4141158733134787e-01  5.3879397279370855e-01  5.3622037016451696e-01  5.3372559934030783e-01  5.3133304518968427e-01  5.2905629860183823e-01  5.2690430882374095e-01  5.2488301126760761e-01  5.2299559006745755e-01  5.2124247446292460e-01  5.1962130685954844e-01  5.1812671766076290e-01  5.1674981772264694e-01  5.1547735747736301e-01  5.1429113476586286e-01  5.1316835792936288e-01  5.1208333390991267e-01  5.1100982479349333e-01  5.0992333531988765e-01  5.0880275918228623e-01  5.0763140340076396e-01  5.0639744092347971e-01  5.0509408474187856e-01  5.0371951816132376e-01  5.0227672041506377e-01  5.0077282084587382e-01  4.9921743865708074e-01  4.9761921075940502e-01  4.9598203144585429e-01  4.9430439350339961e-01  4.9258290066399518e-01  4.9082213053055090e-01  4.8903151115948917e-01  4.8722013583122031e-01  4.8539454344513877e-01  4.8355821431861173e-01  4.8171197218034356e-01  4.7985484509758558e-01  4.7798510408722483e-01  4.7610126585806739e-01  4.7420294687524289e-01  4.7229124140514539e-01  4.7036848769642986e-01  4.6843756171188439e-01  4.6650119198740486e-01  4.6456166760650924e-01  4.6262104370170481e-01  4.6068163929880518e-01  4.5874657087543208e-01  4.5681995406541287e-01  4.5490662695616219e-01  4.5301134989785696e-01  4.5113772738545932e-01  4.4928714176805662e-01  4.4745800961885512e-01  4.4564560101545453e-01  4.4384263012095454e-01  4.4204048385696115e-01  4.4023081244594736e-01  4.3840701038897412e-01  4.3656526729143647e-01  4.3470491740693495e-01  4.3282794176880679e-01  4.3093766508390990e-01  4.2903709374730920e-01  4.2712752249348751e-01  4.2520807960126800e-01  4.2327621077272853e-01  4.2132874804950482e-01  4.1936308386303212e-01  4.1737782159056974e-01  4.1537241825332571e-01  4.1334676020280547e-01  4.1130221463750805e-01  4.0924286564224754e-01  4.0717436257214124e-01  4.0510169844513161e-01  4.0302757406974982e-01  4.0095229381558439e-01  3.9887515247695160e-01  3.96796562474