<?xml version="1.0"?>
<VTKFile type="UnstructuredGrid"  version="0.1"  >
<UnstructuredGrid>
<Piece  NumberOfPoints="7161" NumberOfCells="13800">
<Points>
<DataArray  type="Float64"  NumberOfComponents="3"  format="ascii">0 0 0  0.01652173913043478 0 0  0.03304347826086956 0 0  0.04956521739130434 0 0  0.06608695652173913 0 0  0.08260869565217391 0 0  0.09913043478260869 0 0  0.1156521739130435 0 0  0.1321739130434783 0 0  0.148695652173913 0 0  0.1652173913043478 0 0  0.1817391304347826 0 0  0.1982608695652174 0 0  0.2147826086956522 0 0  0.2313043478260869 0 0  0.2478260869565218 0 0  0.2643478260869565 0 0  0.2808695652173913 0 0  0.2973913043478261 0 0  0.3139130434782609 0 0  0.3304347826086956 0 0  0.3469565217391304 0 0  0.3634782608695652 0 0  0.3799999999999999 0 0  0.3965217391304348 0 0  0.4130434782608696 0 0  0.4295652173913043 0 0  0.4460869565217391 0 0  0.4626086956521739 0 0  0.4791304347826086 0 0  0.4956521739130435 0 0  0.5121739130434783 0 0  0.528695652173913 0 0  0.5452173913043478 0 0  0.5617391304347825 0 0  0.5782608695652174 0 0  0.5947826086956521 0 0  0.6113043478260869 0 0  0.6278260869565218 0 0  0.6443478260869565 0 0  0.6608695652173913 0 0  0.677391304347826 0 0  0.6939130434782609 0 0  0.7104347826086956 0 0  0.7269565217391304 0 0  0.7434782608695653 0 0  0.7599999999999999 0 0  0.7765217391304348 0 0  0.7930434782608695 0 0  0.8095652173913043 0 0  0.8260869565217391 0 0  0.8426086956521739 0 0  0.8591304347826086 0 0  0.8756521739130434 0 0  0.8921739130434783 0 0  0.908695652173913 0 0  0.9252173913043478 0 0  0.9417391304347826 0 0  0.9582608695652173 0 0  0.9747826086956521 0 0  0.991304347826087 0 0  1.007826086956522 0 0  1.024347826086957 0 0  1.040869565217391 0 0  1.057391304347826 0 0  1.073913043478261 0 0  1.090434782608696 0 0  1.10695652173913 0 0  1.123478260869565 0 0  1.14 0 0  1.156521739130435 0 0  1.17304347826087 0 0  1.189565217391304 0 0  1.206086956521739 0 0  1.222608695652174 0 0  1.239130434782609 0 0  1.255652173913044 0 0  1.272173913043478 0 0  1.288695652173913 0 0  1.305217391304348 0 0  1.321739130434783 0 0  1.338260869565217 0 0  1.354782608695652 0 0  1.371304347826087 0 0  1.387826086956522 0 0  1.404347826086957 0 0  1.420869565217391 0 0  1.437391304347826 0 0  1.453913043478261 0 0  1.470434782608696 0 0  1.486956521739131 0 0  1.503478260869565 0 0  1.52 0 0  1.536521739130435 0 0  1.55304347826087 0 0  1.569565217391304 0 0  1.586086956521739 0 0  1.602608695652174 0 0  1.619130434782609 0 0  1.635652173913043 0 0  1.652173913043478 0 0  1.668695652173913 0 0  1.685217391304348 0 0  1.701739130434782 0 0  1.718260869565217 0 0  1.734782608695652 0 0  1.751304347826087 0 0  1.767826086956522 0 0  1.784347826086957 0 0  1.800869565217391 0 0  1.817391304347826 0 0  1.833913043478261 0 0  1.850434782608696 0 0  1.86695652173913 0 0  1.883478260869565 0 0  1.9 0 0  1.916521739130435 0 0  1.933043478260869 0 0  1.949565217391304 0 0  1.966086956521739 0 0  1.982608695652174 0 0  1.999130434782608 0 0  2.015652173913043 0 0  2.032173913043478 0 0  2.048695652173913 0 0  2.065217391304348 0 0  2.081739130434782 0 0  2.098260869565217 0 0  2.114782608695652 0 0  2.131304347826087 0 0  2.147826086956522 0 0  2.164347826086956 0 0  2.180869565217391 0 0  2.197391304347826 0 0  2.213913043478261 0 0  2.230434782608695 0 0  2.24695652173913 0 0  2.263478260869565 0 0  2.28 0 0  2.296521739130434 0 0  2.31304347826087 0 0  2.329565217391304 0 0  2.346086956521739 0 0  2.362608695652174 0 0  2.379130434782609 0 0  2.395652173913044 0 0  2.412173913043478 0 0  2.428695652173913 0 0  2.445217391304348 0 0  2.461739130434782 0 0  2.478260869565217 0 0  2.494782608695652 0 0  2.511304347826087 0 0  2.527826086956522 0 0  2.544347826086956 0 0  2.560869565217391 0 0  2.577391304347826 0 0  2.593913043478261 0 0  2.610434782608696 0 0  2.62695652173913 0 0  2.643478260869565 0 0  2.66 0 0  2.676521739130435 0 0  2.693043478260869 0 0  2.709565217391304 0 0  2.726086956521739 0 0  2.742608695652174 0 0  2.759130434782609 0 0  2.775652173913044 0 0  2.792173913043478 0 0  2.808695652173913 0 0  2.825217391304347 0 0  2.841739130434783 0 0  2.858260869565217 0 0  2.874782608695652 0 0  2.891304347826087 0 0  2.907826086956522 0 0  2.924347826086957 0 0  2.940869565217391 0 0  2.957391304347826 0 0  2.973913043478261 0 0  2.990434782608696 0 0  3.006956521739131 0 0  3.023478260869565 0 0  3.04 0 0  3.056521739130435 0 0  3.073043478260869 0 0  3.089565217391304 0 0  3.106086956521739 0 0  3.122608695652174 0 0  3.139130434782609 0 0  3.155652173913043 0 0  3.172173913043478 0 0  3.188695652173913 0 0  3.205217391304347 0 0  3.221739130434782 0 0  3.238260869565217 0 0  3.254782608695652 0 0  3.271304347826087 0 0  3.287826086956521 0 0  3.304347826086957 0 0  3.320869565217391 0 0  3.337391304347826 0 0  3.353913043478261 0 0  3.370434782608696 0 0  3.386956521739131 0 0  3.403478260869565 0 0  3.419999999999999 0 0  3.436521739130435 0 0  3.453043478260869 0 0  3.469565217391304 0 0  3.486086956521739 0 0  3.502608695652174 0 0  3.519130434782609 0 0  3.535652173913043 0 0  3.552173913043478 0 0  3.568695652173913 0 0  3.585217391304347 0 0  3.601739130434782 0 0  3.618260869565217 0 0  3.634782608695652 0 0  3.651304347826087 0 0  3.667826086956521 0 0  3.684347826086956 0 0  3.700869565217391 0 0  3.717391304347826 0 0  3.733913043478261 0 0  3.750434782608695 0 0  3.766956521739131 0 0  3.783478260869565 0 0  3.8 0 0  0 0.01666666666666667 0  0.01652173913043478 0.01666666666666667 0  0.03304347826086956 0.01666666666666667 0  0.04956521739130434 0.01666666666666667 0  0.06608695652173913 0.01666666666666667 0  0.08260869565217391 0.01666666666666667 0  0.09913043478260869 0.01666666666666667 0  0.1156521739130435 0.01666666666666667 0  0.1321739130434783 0.01666666666666667 0  0.148695652173913 0.01666666666666667 0  0.1652173913043478 0.01666666666666667 0  0.1817391304347826 0.01666666666666667 0  0.1982608695652174 0.01666666666666667 0  0.2147826086956522 0.01666666666666667 0  0.2313043478260869 0.01666666666666667 0  0.2478260869565218 0.01666666666666667 0  0.2643478260869565 0.01666666666666667 0  0.2808695652173913 0.01666666666666667 0  0.2973913043478261 0.01666666666666667 0  0.3139130434782609 0.01666666666666667 0  0.3304347826086956 0.01666666666666667 0  0.3469565217391304 0.01666666666666667 0  0.3634782608695652 0.01666666666666667 0  0.3799999999999999 0.01666666666666667 0  0.3965217391304348 0.01666666666666667 0  0.4130434782608696 0.01666666666666667 0  0.4295652173913043 0.01666666666666667 0  0.4460869565217391 0.01666666666666667 0  0.4626086956521739 0.01666666666666667 0  0.4791304347826086 0.01666666666666667 0  0.4956521739130435 0.01666666666666667 0  0.5121739130434783 0.01666666666666667 0  0.528695652173913 0.01666666666666667 0  0.5452173913043478 0.01666666666666667 0  0.5617391304347825 0.01666666666666667 0  0.5782608695652174 0.01666666666666667 0  0.5947826086956521 0.01666666666666667 0  0.6113043478260869 0.01666666666666667 0  0.6278260869565218 0.01666666666666667 0  0.6443478260869565 0.01666666666666667 0  0.6608695652173913 0.01666666666666667 0  0.677391304347826 0.01666666666666667 0  0.6939130434782609 0.01666666666666667 0  0.7104347826086956 0.01666666666666667 0  0.7269565217391304 0.01666666666666667 0  0.7434782608695653 0.01666666666666667 0  0.7599999999999999 0.01666666666666667 0  0.7765217391304348 0.01666666666666667 0  0.7930434782608695 0.01666666666666667 0  0.8095652173913043 0.01666666666666667 0  0.8260869565217391 0.01666666666666667 0  0.8426086956521739 0.01666666666666667 0  0.8591304347826086 0.01666666666666667 0  0.8756521739130434 0.01666666666666667 0  0.8921739130434783 0.01666666666666667 0  0.908695652173913 0.01666666666666667 0  0.9252173913043478 0.01666666666666667 0  0.9417391304347826 0.01666666666666667 0  0.9582608695652173 0.01666666666666667 0  0.9747826086956521 0.01666666666666667 0  0.991304347826087 0.01666666666666667 0  1.007826086956522 0.01666666666666667 0  1.024347826086957 0.01666666666666667 0  1.040869565217391 0.01666666666666667 0  1.057391304347826 0.01666666666666667 0  1.073913043478261 0.01666666666666667 0  1.090434782608696 0.01666666666666667 0  1.10695652173913 0.01666666666666667 0  1.123478260869565 0.01666666666666667 0  1.14 0.01666666666666667 0  1.156521739130435 0.01666666666666667 0  1.17304347826087 0.01666666666666667 0  1.189565217391304 0.01666666666666667 0  1.206086956521739 0.01666666666666667 0  1.222608695652174 0.01666666666666667 0  1.239130434782609 0.01666666666666667 0  1.255652173913044 0.01666666666666667 0  1.272173913043478 0.01666666666666667 0  1.288695652173913 0.01666666666666667 0  1.305217391304348 0.01666666666666667 0  1.321739130434783 0.01666666666666667 0  1.338260869565217 0.01666666666666667 0  1.354782608695652 0.01666666666666667 0  1.371304347826087 0.01666666666666667 0  1.387826086956522 0.01666666666666667 0  1.404347826086957 0.01666666666666667 0  1.420869565217391 0.01666666666666667 0  1.437391304347826 0.01666666666666667 0  1.453913043478261 0.01666666666666667 0  1.470434782608696 0.01666666666666667 0  1.486956521739131 0.01666666666666667 0  1.503478260869565 0.01666666666666667 0  1.52 0.01666666666666667 0  1.536521739130435 0.01666666666666667 0  1.55304347826087 0.01666666666666667 0  1.569565217391304 0.01666666666666667 0  1.586086956521739 0.01666666666666667 0  1.602608695652174 0.01666666666666667 0  1.619130434782609 0.01666666666666667 0  1.635652173913043 0.01666666666666667 0  1.652173913043478 0.01666666666666667 0  1.668695652173913 0.01666666666666667 0  1.685217391304348 0.01666666666666667 0  1.701739130434782 0.01666666666666667 0  1.718260869565217 0.01666666666666667 0  1.734782608695652 0.01666666666666667 0  1.751304347826087 0.01666666666666667 0  1.767826086956522 0.01666666666666667 0  1.784347826086957 0.01666666666666667 0  1.800869565217391 0.0166666666666666
[...]
<PointData  Scalars="rho_bar"> 
<DataArray  type="Float64"  Name="rho_bar"  format="ascii">3.4219808723888318e-01  3.4233290889488410e-01  3.4264019579623900e-01  3.4296871661075073e-01  3.4323619521070498e-01  3.4343242913617161e-01  3.4354771083103675e-01  3.4360120660769849e-01  3.4359982860152560e-01  3.4355679337866668e-01  3.4347582259583626e-01  3.4336563900444350e-01  3.4322569160399752e-01  3.4306321893278846e-01  3.4287599694530119e-01  3.4266956045638708e-01  3.4244109319570903e-01  3.4219471894116604e-01  3.4192798632972810e-01  3.4164554373268796e-01  3.4134466422354448e-01  3.4102902055993550e-01  3.4069420206340567e-01  3.4034181460832669e-01  3.3996636036577688e-01  3.3956845972841249e-01  3.3914386483527553e-01  3.3869383276883602e-01  3.3821232886574720e-01  3.3769802793854742e-01  3.3714307173538016e-01  3.3654703388741153e-01  3.3590455315164630e-01  3.3521692066500153e-01  3.3448370895878815e-01  3.3371659101195000e-01  3.3292263258668175e-01  3.3211370142858304e-01  3.3129380704886552e-01  3.3047094041248443e-01  3.2964591533877330e-01  3.2882422263617422e-01  3.2800505176868788e-01  3.2719306652537772e-01  3.2638650967904037e-01  3.2558937219042239e-01  3.2479976105484415e-01  3.2402131199010969e-01  3.2325182941178998e-01  3.2249450647526617e-01  3.2174686309611694e-01  3.2101208615522686e-01  3.2028723431490297e-01  3.1957509546373664e-01  3.1887273477997763e-01  3.1818267463966066e-01  3.1750173890927219e-01  3.1683207969679478e-01  3.1617031615583241e-01  3.1551870571960722e-01  3.1487355458204402e-01  3.1423687727205429e-01  3.1360516017463835e-01  3.1298039257618065e-01  3.1235906786565582e-01  3.1174302512365865e-01  3.1112874883487057e-01  3.1051848199075277e-01  3.0990849790338354e-01  3.0930112743584820e-01  3.0869284508996481e-01  3.0808623761883763e-01  3.0747750044867822e-01  3.0686953531663835e-01  3.0625847613835699e-01  3.0564764746119466e-01  3.0503279136528383e-01  3.0441759881633368e-01  3.0379787212414305e-01  3.0317757485212510e-01  3.0255314731223559e-01  3.0192783532078948e-01  3.0129836592602605e-01  3.0066790404634047e-01  3.0003353927773313e-01  2.9939797450766076e-01  2.9875842239561712e-01  2.9811773894647847e-01  2.9747308547005591e-01  2.9682713384588971e-01  2.9617736464196437e-01  2.9552640157391924e-01  2.9487170982524857e-01  2.9421579341544207e-01  2.9355613060258345e-01  2.9289546209891987e-01  2.9223107931112441e-01  2.9156561191101055e-01  2.9089660220015057e-01  2.9022665831664446e-01  2.8955331486845354e-01  2.8887903335159471e-01  2.8820134121480390e-01  2.8752293393787254e-01  2.8684116245640567e-01  2.8615860178641245e-01  2.8547284599527484e-01  2.8478644995853086e-01  2.8409700125098730e-01  2.8340691162077108e-01  2.8271376271247839e-01  2.8202019819517737e-01  2.8132362905239072e-01  2.8062658022648673e-01  2.7992670220570337e-01  2.7922650479534816e-01  2.7852363628837390e-01  2.7782046421847206e-01  2.7711462632723771e-01  2.7640874135382698e-01  2.7570030891659419e-01  2.7499181559496999e-01  2.7428095873535630e-01  2.7357026144164975e-01  2.7285730615812437e-01  2.7214457223601990e-01  2.7142963085767341e-01  2.7071520096707374e-01  2.6999861065201319e-01  2.6928259517143222e-01  2.6856446235290821e-01  2.6784712169488956e-01  2.6712758610012294e-01  2.6640889069287482e-01  2.6568809660759796e-01  2.6496836891734454e-01  2.6424717461149139e-01  2.6352714931184484e-01  2.6280582638517658e-01  2.6208590084173083e-01  2.6136491356124919e-01  2.6064534394228667e-01  2.5992495293492124e-01  2.5920621340622735e-01  2.5848697267116238e-01  2.5776949835105190e-01  2.5705168247941662e-01  2.5633596294626576e-01  2.5562007174728124e-01  2.5490634675334611e-01  2.5419277062667961e-01  2.5348165759953017e-01  2.5277098664764147e-01  2.5206295239854154e-01  2.5135554294361367e-01  2.5065116018199690e-01  2.4994763977949783e-01  2.4924728210767089e-01  2.4854814922803550e-01  2.4785252389701898e-01  2.4715846683311934e-01  2.4646813752481223e-01  2.4577960000751570e-01  2.4509522335095965e-01  2.4441293101135453e-01  2.4373498347431760e-01  2.4305951831887435e-01  2.4238880064531673e-01  2.4172098437160844e-01  2.4105819856550159e-01  2.4039856752639804e-01  2.3974447930632689e-01  2.3909382485812131e-01  2.3844898206230930e-01  2.3780792858485125e-01  2.3717314478683207e-01  2.3654229639483346e-01  2.3591801687111807e-01  2.3529784611020624e-01  2.3468465684510692e-01  2.3407559930079039e-01  2.3347375877267984e-01  2.3287627671076308e-01  2.3228638188343359e-01  2.3170165426670541e-01  2.3112470814388436e-01  2.3055331349789102e-01  2.2998997101361063e-01  2.2943269450078038e-01  2.2888358933846803e-01  2.2834074774313445e-01  2.2780636672127497e-01  2.2727847243593108e-01  2.2675911146083449e-01  2.2624656557815995e-01  2.2574283895828384e-01  2.2524620633253639e-01  2.2475859511365651e-01  2.2427832075350015e-01  2.2380752215399810e-01  2.2334439596483358e-01  2.2289104243976915e-01  2.2244591342163192e-01  2.2201113958691746e-01  2.2158521595766612e-01  2.2117021751287252e-01  2.2076469328005505e-01  2.2037094798811263e-01  2.1998742172660454e-01  2.1961636516989902e-01  2.1925644189552740e-01  2.1890989635193620e-01  2.1857538726248213e-01  2.1825506714054380e-01  2.1794762640880849e-01  2.1765546211735426e-01  2.1737724356463398e-01  2.1711555240862820e-01  2.1686970602108591e-01  2.1664304241389504e-01  2.1643606614650815e-01  2.1625380267547339e-01  2.1609934040680995e-01  2.1598176602662109e-01  2.1590913461325442e-01  2.1589478265956868e-01  2.1594978571704754e-01  2.1608533346937622e-01  2.1629047933929751e-01  2.1650676560166718e-01  2.1658146954319579e-01  3.4183333623038470e-01  3.4197476416004885e-01  3.4231377722702894e-01  3.4266587405410431e-01  3.4296284873063021e-01  3.4317574281593177e-01  3.4331240951504083e-01  3.4337551368278313e-01  3.4338517557816028e-01  3.4334635298679750e-01  3.4327051003468573e-01  3.4315967042765722e-01  3.4302175431921444e-01  3.4285564332058821e-01  3.4266789827828081e-01  3.4245615586538869e-01  3.4222496960190180e-01  3.4197139392831882e-01  3.4170001135472655e-01  3.4140885989837411e-01  3.4110246812418321e-01  3.4077748701246624e-01  3.4043657485110607e-01  3.4007460410849477e-01  3.3969183428929894e-01  3.3928291349978612e-01  3.3884947592362169e-01  3.3838751492695712e-01  3.3789733286958290e-01  3.3737145919743233e-01  3.3680815954667814e-01  3.3620135225276321e-01  3.3555250458504915e-01  3.3485782484876847e-01  3.3412246883269109e-01  3.3335158216964778e-01  3.3255787898850053e-01  3.3174685023496309e-01  3.3092811432433850e-01  3.3010388320622741e-01  3.2928046363739183e-01  3.2845753401709066e-01  3.2764007638426390e-01  3.2682696130567168e-01  3.2602229043032299e-01  3.2522409172966943e-01  3.2443619643254884e-01  3.2365674210332940e-01  3.2288902437954164e-01  3.2213060546457783e-01  3.2138472482103914e-01  3.2064891295360770e-01  3.1992598840093595e-01  3.1921289690406829e-01  3.1851232359357368e-01  3.1782139506497525e-01  3.1714232788672569e-01  3.1647173688003455e-01  3.1581186424565372e-01  3.1515940410246290e-01  3.1451631632895399e-01  3.1387886885888960e-01  3.1324908094400861e-01  3.1262362813561845e-01  3.1200430390862383e-01  3.1138748050534643e-01  3.1077523214258829e-01  3.1016418695419845e-01  3.0955646148011312e-01  3.0894830688294239e-01  3.0834223047029125e-01  3.0773473368567733e-01  3.0712845026201280e-01  3.0651946807827485e-01  3.0591093047258816e-01  3.0529891668151099e-01  3.0468684720990613e-01  3.0407040764477594e-01  3.0345341800801212e-01  3.0283219084403651e-01  3.0221030100010388e-01  3.0158420973872413e-01  3.0095712750847065e-01  3.0032613438478351e-01  2.9969408337086323e-01  2.9905800774367874e-01  2.9842073345843551e-01  2.9777966278465740e-01  2.9713740061279953e-01  2.9649116550414556e-01  2.9584364334937169e-01  2.9519247440887736e-01  2.9454010831005067e-01  2.9388392777944256e-01  2.9322660239217724e-01  2.9256573609377828e-01  2.9190385495137977e-01  2.9123827109576672e-01  2.9057163362478600e-01  2.8990165064074330e-01  2.8923074939008531e-01  2.8855636995834855e-01  2.8788113415789734e-01  2.8720269717116226e-01  2.8652353954719423e-01  2.8584102968750563e-01  2.8515776162530848e-01  2.8447149287160362e-01  2.8378460115433790e-01  2.8309458162499163e-01  2.8240400447721337e-01  2.8171057885560874e-01  2.8101673690913326e-01  2.8031990652397182e-01  2.7962263313997598e-01  2.7892273192661216e-01  2.7822253763764293e-01  2.7751960232397838e-01  2.7681645473583155e-01  2.7611088227614350e-01  2.7540529006338432e-01  2.7469716852483878e-01  2.7398906099723580e-01  2.7327877589904415e-01  2.7256870030517683e-01  2.7185632791709807e-01  2.7114428838231913e-01  2.7043021780188969e-01  2.6971672968163812e-01  2.6900104581577783e-01  2.6828602674240160e-01  2.6756895881137416e-01  2.6685272240613583e-01  2.6613428718951582e-01  2.6541674266193760e-01  2.6469750295330963e-01  2.6397943981005384e-01  2.6325994659971919e-01  2.6254171607529619e-01  2.6182244764811063e-01  2.6110461352408326e-01  2.6038577594970180e-01  2.5966843101548920e-01  2.5895053452944511e-01  2.5823436673982264e-01  2.5751771008568736e-01  2.5680296097731309e-01  2.5608812598964714e-01  2.5537544123867062e-01  2.5466267283876060e-01  2.5395217659093577e-01  2.5324208278252669e-01  2.5253454681043558e-01  2.5182747312640008e-01  2.5112319965081853e-01  2.5041982890797576e-01  2.4971957233645031e-01  2.4902028723547392e-01  2.4832429141511944e-01  2.4762979305953015e-01  2.4693891733772594e-01  2.4624964719366804e-01  2.4556428379182269e-01  2.4488101089687508e-01  2.4420200614481358e-01  2.4352520641899306e-01  2.4285289687712211e-01  2.4218337652476285e-01  2.4151874949385921e-01  2.4085706907438018e-01  2.4020062628127714e-01  2.3954762888100120e-01  2.3890032351192403e-01  2.3825655022414072e-01  2.3761877896493316e-01  2.3698496272677930e-01  2.3635756613540454e-01  2.3573413109034047e-01  2.3511743480968952e-01  2.3450493122258340e-01  2.3389952431993577e-01  2.3329829102618205e-01  2.3270438358929699e-01  2.3211531199697669e-01  2.3153396822109720e-01  2.3095793153690142e-01  2.3038976505601422e-01  2.2982749506886554e-01  2.2927335640994975e-01  2.2872531081189118e-01  2.2818554847810704e-01  2.2765229728875094e-01  2.2712754942079050e-01  2.2660938009197404e-01  2.2609984611283654e-01  2.2559735580530643e-01  2.2510378030598993e-01  2.2461734445192999e-01  2.2414011830616182e-01  2.2367052646398811e-01  2.2321055439694892e-01  2.2275844023498850e-01  2.2231631847642955e-01  2.2188278709018058e-01  2.2145985073684288e-01  2.2104595005340441e-01  2.2064329836790389e-01  2.2025054502705138e-01  2.1986982422210150e-01  2.1949958883925416e-01  2.1914209091362008e-01  2.1879609872646777e-01  2.1846369813753808e-01  2.1814346694376147e-01  2.1783768429829262e-01  2.1754515966559163e-01  2.1726820823439441e-01  2.1700568010262802e-01  2.1676047166953497e-01  2.1653253060679167e-01  2.1632579450127451e-01  2.1614175773286542e-01  2.1598721615358984e-01  2.1586795669859909e-01  2.1579510830466533e-01  2.1577865026709633e-01  2.1583322011439704e-01  2.1596567533267111e-01  2.1617035773337406e-01  2.1639079628476246e-01  2.1650179079076370e-01  3.4063630858371963e-01  3.4081706450149873e-01  3.4121240498092276e-01  3.4163818199606072e-01  3.4199498793545074e-01  3.4226494923082701e-01  3.4243999306686507e-01  3.4253793243988223e-01  3.4256796898640607e-01  3.4254399267095248e-01  3.4247180927842169e-01  3.4236148798342264e-01  3.4221527553933195e-01  3.4204086160186686e-01  3.4183746387082486e-01  3.4161046537995821e-01  3.4135757217178442e-01  3.4108255919895508e-01  3.4078372760316072e-01  3.4046626067680735e-01  3.4012925908972197e-01  3.3977642316799045e-01  3.3940406433300979e-01  3.3901266966285382e-01  3.3859643559761687e-01  3.3815485534810313e-01  3.3768478738519359e-01  3.3718847167171812e-01  3.3666223170290810e-01  3.3610493077680692e-01  3.3550938112061074e-01  3.3487542873666221e-01  3.3420100339425451e-01  3.3348969217417812e-01  3.3274181141528081e-01  3.3196597117974946e-01  3.3116820604314351e-01  3.3035797929502442e-01  3.2953852345950518e-01  3.2871667888810691e-01  3.2789351237030062e-01  3.2707378143025029e-01  3.2625704393364380e-01  3.2544715032950161e-01  3.2464335865521515e-01  3.2384879874403577e-01  3.2306185874454157e-01  3.2228572116843562e-01  3.2151885592514012e-01  3.2076398544021290e-01  3.2001913769774526e-01  3.1928678763042184e-01  3.1856503924794866e-01  3.1785586029584190e-01  3.1715660338013896e-01  3.1646934835037865e-01  3.1579157220968224e-01  3.1512495519368189e-01  3.1446661123070357e-01  3.1381808117642718e-01  3.1317669248034119e-01  3.1254363721404199e-01  3.1191568688896931e-01  3.1129437090001039e-01  3.1067683425180564e-01  3.1006443810463691e-01  3.0945411571649056e-01  3.0884742733840953e-01  3.0824170173751375e-01  3.0763844116142530e-01  3.0703434025199577e-01  3.0643161548264108e-01  3.0582719325518692e-01  3.0522347723152660e-01  3.0461672208817525e-01  3.0400996123945856e-01  3.0339964555828342e-01  3.0278889911573825e-01  3.0217395358096194e-01  3.0155820935684308e-01  3.0093866163362176e-01  3.0031818787774484e-01  2.9969382361095531e-01  2.9906821477806661e-01  2.9843902913267129e-01  2.9780855221758656e-01  2.9717446785465473e-01  2.9653894387269503e-01  2.9590008087727848e-01  2.9525981648060340e-01  2.9461589329992893e-01  2.9397051399111895e-01  2.9332175561315271e-01  2.9267167649609893e-01  2.9201821486039437e-01  2.9136344862378499e-01  2.9070562576830911e-01  2.9004661241865759e-01  2.8938421183019741e-01  2.8872062056852371e-01  2.8805397099161784e-01  2.8738629044668501e-01  2.8671555861515641e-01  2.8604381966935732e-01  2.8536936235317395e-01  2.8469401371510583e-01  2.8401562419100190e-01  2.8333634459501039e-01  2.8265434982776555e-01  2.8197162512859036e-01  2.8128619792859583e-01  2.8060007070145798e-01  2.7991157657929577e-01  2.7922250474188554e-01  2.7853075972721075e-01  2.7783845218229514e-01  2.7714380921322385e-01  2.7644877658239175e-01  2.7575143137501590e-01  2.7505375524709252e-01  2.7435415355168452e-01  2.7365438977805312e-01  2.7295243940334779e-01  2.7225040455135013e-01  2.7154651722783296e-01  2.7084279534706973e-01  2.7013710285870951e-01  2.6943168582616900e-01  2.6872464055082296e-01  2.6801810618122696e-01  2.6730959083906985e-01  2.6660167787834738e-01  2.6589199114457029e-01  2.6518310815902812e-01  2.6447236829647841e-01  2.6376252963140562e-01  2.6305146034888421e-01  2.6234151084746810e-01  2.6163056343854840e-01  2.6092078563615267e-01  2.6021041073204432e-01  2.5950138219761004e-01  2.5879170829376136e-01  2.5808346348909994e-01  2.5737502001100215e-01  2.5666825514873925e-01  2.5596147631131722e-01  2.5525651163222235e-01  2.5455195045727264e-01  2.5384944291305889e-01  2.5314720551659670e-01  2.5244718350366246e-01  2.5174788340315429e-01  2.5105111135943803e-01  2.5035525739318831e-01  2.4966214203093093e-01  2.4897042704256972e-01  2.4828174679757589e-01  2.4759439055138321e-01  2.4691027859960482e-01  2.4622798491476020e-01  2.4554928755432789e-01  2.4487264735474493e-01  2.4419985730167978e-01  2.4352965197926715e-01  2.4286363481925974e-01  2.4220017574685990e-01  2.4154117167413502e-01  2.4088528986471044e-01  2.4023427903779976e-01  2.3958662396025299e-01  2.3894416582890515e-01  2.3830562560793092e-01  2.3767271997252201e-01  2.3704360454082979e-01  2.3642045691654831e-01  2.3580151420560144e-01  2.3518900851728436e-01  2.3458057784303366e-01  2.3397885440462557e-01  2.3338154022719354e-01  2.3279126690834342e-01  2.3220551840762210e-01  2.3162707243142400e-01  2.3105394515964636e-01  2.3048845528317727e-01  2.2992862258540853e-01  2.2937653641300362e-01  2.2883066401730501e-01  2.2829278317820462e-01  2.2776136624804469e-01  2.2723807018616629e-01  2.2672166126568305e-01  2.2621361015411690e-01  2.2571241356674196e-01  2.2521974518175203e-01  2.2473435528914626e-01  2.2425781940575715e-01  2.2378881713431603e-01  2.2332895431375147e-01  2.2287716486278158e-01  2.2243492715702823e-01  2.2200087860702047e-01  2.2157679237911695e-01  2.2116158672874453e-01  2.2075694460593884e-01  2.2036171842597271e-01  2.1997762715528932e-01  2.1960376938787168e-01  2.1924171627576561e-01  2.1889024453691569e-01  2.1855118317179417e-01  2.1822355006588487e-01  2.1790906761778839e-01  2.1760669834277241e-01  2.1731826105671218e-01  2.1704310623475265e-01  2.1678320298759318e-01  2.1653809346631359e-01  2.1631082967490320e-01  2.1610247798145038e-01  2.1591780493990198e-01  2.1576066186450776e-01  2.1563949664494925e-01  2.1556350744388988e-01  2.1554538315926949e-01  2.1559649085102933e-01  2.1572780979745759e-01  2.1593056012109674e-01  2.1615536933491314e-01  2.1626845769832873e-01  3.3839911575813375e-01  3.3862958720004527e-01  3.3912738585743663e-01  3.3965408622467824e-01  3.4010717747553720e-01  3.4045051479341659e-01  3.4068831502632924e-01  3.4082836191767379e-01  3.4088701167148772e-01  3.4087488033470253e-01  3.4080432721580567e-01  3.4068163798592327e-01  3.4051738268497994e-01  3.4031472890170439e-01  3.4008073829103908e-01  3.3981472050242212e-01  3.3952096629403461e-01  3.3919768543267170e-01  3.3884916457473363e-01  3.3847618587123524e-01  3.3808471689133129e-01  3.3767438248923937e-01  3.3724701662792150e-01  3.3679817969717762e-01  3.3632657989407672e-01  3.3582729636809833e-01  3.3530139145168564e-01  3.3474797256099215e-01  3.3416916952021192e-01  3.3356144263953336e-01  3.3292356808320051e-01  3.3225150700196654e-01  3.3154816083576993e-01  3.3081413284110334e-01  3.3005395129400400e-01  3.2927064206928974e-01  3.2847196761885006e-01  3.2766199070842794e-01  3.2684670931444004e-01  3.2602762734850088e-01  3.2520982273093801e-01  3.2439401302274107e-01  3.2358340915666289e-01  3.2277774219156641e-01  3.2198007393434386e-01  3.2118997642448999e-01  3.2040966764555812e-01  3.1963781465687729e-01  3.1887724816247959e-01  3.1812699104179015e-01  3.1738880236754979e-01  3.1666120616389221e-01  3.1594608504362082e-01  3.1524194640700953e-01  3.1454991160595119e-01  3.1386763359968672e-01  3.1319686647742390e-01  3.1253565460148247e-01  3.1188476445531099e-01  3.1124185222196976e-01  3.1060793116870122e-01  3.0998080204197204e-01  3.0936091343920807e-01  3.0874545573805656e-01  3.0813573881002915e-01  3.0752953650019005e-01  3.0692746884378430e-01  3.0632708931044134e-01  3.0572958901753711e-01  3.0513278989659642e-01  3.0453764506882952e-01  3.0394120028347327e-01  3.0334568774930937e-01  3.0274836210056089e-01  3.0215124435365409e-01  3.0155084862030346e-01  3.0095017464127671e-01  3.0034618850628425e-01  2.9974143044314278e-01  2.9913276923844823e-01  2.9852323383509749e-01  2.9791051303512500e-01  2.9729655891443862e-01  2.9667893240455040e-01  2.9605996947987484e-01  2.9543809130749255e-01  2.9481467361416852e-01  2.9418803802537902e-01  2.9355993080410053e-01  2.9292900105456765e-01  2.9229647881100163e-01  2.9166049452568599e-01  2.9102305833483860e-01  2.9038288519017325e-01  2.8974126605352679e-01  2.8909670834611012e-01  2.8845086360757838e-01  2.8780246868196524e-01  2.8715272438177913e-01  2.8649981813880387e-01  2.8584574631494442e-01  2.8518925695181457e-01  2.8453161997921983e-01  2.8387137720194261e-01  2.8321015021109003e-01  2.8254670685251104e-01  2.8188221952144621e-01  2.8121491749507677e-01  2.8054675519971911e-01  2.7987651370670275e-01  2.7920543443989904e-01  2.7853209931963691e-01  2.7785809482240487e-01  2.7718222537993703e-01  2.7650563793048499e-01  2.7582661318668411e-01  2.7514706946166878e-01  2.7446582019688920e-01  2.7378408899287693e-01  2.7310050910487538e-01  2.7241663749252115e-01  2.7173137026265320e-01  2.7104582567114133e-01  2.7035835929435953e-01  2.6967090703049240e-01  2.6898216196930635e-01  2.6829354841370906e-01  2.6760331706433310e-01  2.6691345137793049e-01  2.6622238421252142e-01  2.6553176630700870e-01  2.6483937960308102e-01  2.6414772013723936e-01  2.6345477829721697e-01  2.6276262880146972e-01  2.6206901761261930e-01  2.61376407329