<?xml version="1.0"?>
<VTKFile type="UnstructuredGrid"  version="0.1"  >
<UnstructuredGrid>
<Piece  NumberOfPoints="7161" NumberOfCells="13800">
<Points>
<DataArray  type="Float64"  NumberOfComponents="3"  format="ascii">0 0 0  0.01652173913043478 0 0  0.03304347826086956 0 0  0.04956521739130434 0 0  0.06608695652173913 0 0  0.08260869565217391 0 0  0.09913043478260869 0 0  0.1156521739130435 0 0  0.1321739130434783 0 0  0.148695652173913 0 0  0.1652173913043478 0 0  0.1817391304347826 0 0  0.1982608695652174 0 0  0.2147826086956522 0 0  0.2313043478260869 0 0  0.2478260869565218 0 0  0.2643478260869565 0 0  0.2808695652173913 0 0  0.2973913043478261 0 0  0.3139130434782609 0 0  0.3304347826086956 0 0  0.3469565217391304 0 0  0.3634782608695652 0 0  0.3799999999999999 0 0  0.3965217391304348 0 0  0.4130434782608696 0 0  0.4295652173913043 0 0  0.4460869565217391 0 0  0.4626086956521739 0 0  0.4791304347826086 0 0  0.4956521739130435 0 0  0.5121739130434783 0 0  0.528695652173913 0 0  0.5452173913043478 0 0  0.5617391304347825 0 0  0.5782608695652174 0 0  0.5947826086956521 0 0  0.6113043478260869 0 0  0.6278260869565218 0 0  0.6443478260869565 0 0  0.6608695652173913 0 0  0.677391304347826 0 0  0.6939130434782609 0 0  0.7104347826086956 0 0  0.7269565217391304 0 0  0.7434782608695653 0 0  0.7599999999999999 0 0  0.7765217391304348 0 0  0.7930434782608695 0 0  0.8095652173913043 0 0  0.8260869565217391 0 0  0.8426086956521739 0 0  0.8591304347826086 0 0  0.8756521739130434 0 0  0.8921739130434783 0 0  0.908695652173913 0 0  0.9252173913043478 0 0  0.9417391304347826 0 0  0.9582608695652173 0 0  0.9747826086956521 0 0  0.991304347826087 0 0  1.007826086956522 0 0  1.024347826086957 0 0  1.040869565217391 0 0  1.057391304347826 0 0  1.073913043478261 0 0  1.090434782608696 0 0  1.10695652173913 0 0  1.123478260869565 0 0  1.14 0 0  1.156521739130435 0 0  1.17304347826087 0 0  1.189565217391304 0 0  1.206086956521739 0 0  1.222608695652174 0 0  1.239130434782609 0 0  1.255652173913044 0 0  1.272173913043478 0 0  1.288695652173913 0 0  1.305217391304348 0 0  1.321739130434783 0 0  1.338260869565217 0 0  1.354782608695652 0 0  1.371304347826087 0 0  1.387826086956522 0 0  1.404347826086957 0 0  1.420869565217391 0 0  1.437391304347826 0 0  1.453913043478261 0 0  1.470434782608696 0 0  1.486956521739131 0 0  1.503478260869565 0 0  1.52 0 0  1.536521739130435 0 0  1.55304347826087 0 0  1.569565217391304 0 0  1.586086956521739 0 0  1.602608695652174 0 0  1.619130434782609 0 0  1.635652173913043 0 0  1.652173913043478 0 0  1.668695652173913 0 0  1.685217391304348 0 0  1.701739130434782 0 0  1.718260869565217 0 0  1.734782608695652 0 0  1.751304347826087 0 0  1.767826086956522 0 0  1.784347826086957 0 0  1.800869565217391 0 0  1.817391304347826 0 0  1.833913043478261 0 0  1.850434782608696 0 0  1.86695652173913 0 0  1.883478260869565 0 0  1.9 0 0  1.916521739130435 0 0  1.933043478260869 0 0  1.949565217391304 0 0  1.966086956521739 0 0  1.982608695652174 0 0  1.999130434782608 0 0  2.015652173913043 0 0  2.032173913043478 0 0  2.048695652173913 0 0  2.065217391304348 0 0  2.081739130434782 0 0  2.098260869565217 0 0  2.114782608695652 0 0  2.131304347826087 0 0  2.147826086956522 0 0  2.164347826086956 0 0  2.180869565217391 0 0  2.197391304347826 0 0  2.213913043478261 0 0  2.230434782608695 0 0  2.24695652173913 0 0  2.263478260869565 0 0  2.28 0 0  2.296521739130434 0 0  2.31304347826087 0 0  2.329565217391304 0 0  2.346086956521739 0 0  2.362608695652174 0 0  2.379130434782609 0 0  2.395652173913044 0 0  2.412173913043478 0 0  2.428695652173913 0 0  2.445217391304348 0 0  2.461739130434782 0 0  2.478260869565217 0 0  2.494782608695652 0 0  2.511304347826087 0 0  2.527826086956522 0 0  2.544347826086956 0 0  2.560869565217391 0 0  2.577391304347826 0 0  2.593913043478261 0 0  2.610434782608696 0 0  2.62695652173913 0 0  2.643478260869565 0 0  2.66 0 0  2.676521739130435 0 0  2.693043478260869 0 0  2.709565217391304 0 0  2.726086956521739 0 0  2.742608695652174 0 0  2.759130434782609 0 0  2.775652173913044 0 0  2.792173913043478 0 0  2.808695652173913 0 0  2.825217391304347 0 0  2.841739130434783 0 0  2.858260869565217 0 0  2.874782608695652 0 0  2.891304347826087 0 0  2.907826086956522 0 0  2.924347826086957 0 0  2.940869565217391 0 0  2.957391304347826 0 0  2.973913043478261 0 0  2.990434782608696 0 0  3.006956521739131 0 0  3.023478260869565 0 0  3.04 0 0  3.056521739130435 0 0  3.073043478260869 0 0  3.089565217391304 0 0  3.106086956521739 0 0  3.122608695652174 0 0  3.139130434782609 0 0  3.155652173913043 0 0  3.172173913043478 0 0  3.188695652173913 0 0  3.205217391304347 0 0  3.221739130434782 0 0  3.238260869565217 0 0  3.254782608695652 0 0  3.271304347826087 0 0  3.287826086956521 0 0  3.304347826086957 0 0  3.320869565217391 0 0  3.337391304347826 0 0  3.353913043478261 0 0  3.370434782608696 0 0  3.386956521739131 0 0  3.403478260869565 0 0  3.419999999999999 0 0  3.436521739130435 0 0  3.453043478260869 0 0  3.469565217391304 0 0  3.486086956521739 0 0  3.502608695652174 0 0  3.519130434782609 0 0  3.535652173913043 0 0  3.552173913043478 0 0  3.568695652173913 0 0  3.585217391304347 0 0  3.601739130434782 0 0  3.618260869565217 0 0  3.634782608695652 0 0  3.651304347826087 0 0  3.667826086956521 0 0  3.684347826086956 0 0  3.700869565217391 0 0  3.717391304347826 0 0  3.733913043478261 0 0  3.750434782608695 0 0  3.766956521739131 0 0  3.783478260869565 0 0  3.8 0 0  0 0.01666666666666667 0  0.01652173913043478 0.01666666666666667 0  0.03304347826086956 0.01666666666666667 0  0.04956521739130434 0.01666666666666667 0  0.06608695652173913 0.01666666666666667 0  0.08260869565217391 0.01666666666666667 0  0.09913043478260869 0.01666666666666667 0  0.1156521739130435 0.01666666666666667 0  0.1321739130434783 0.01666666666666667 0  0.148695652173913 0.01666666666666667 0  0.1652173913043478 0.01666666666666667 0  0.1817391304347826 0.01666666666666667 0  0.1982608695652174 0.01666666666666667 0  0.2147826086956522 0.01666666666666667 0  0.2313043478260869 0.01666666666666667 0  0.2478260869565218 0.01666666666666667 0  0.2643478260869565 0.01666666666666667 0  0.2808695652173913 0.01666666666666667 0  0.2973913043478261 0.01666666666666667 0  0.3139130434782609 0.01666666666666667 0  0.3304347826086956 0.01666666666666667 0  0.3469565217391304 0.01666666666666667 0  0.3634782608695652 0.01666666666666667 0  0.3799999999999999 0.01666666666666667 0  0.3965217391304348 0.01666666666666667 0  0.4130434782608696 0.01666666666666667 0  0.4295652173913043 0.01666666666666667 0  0.4460869565217391 0.01666666666666667 0  0.4626086956521739 0.01666666666666667 0  0.4791304347826086 0.01666666666666667 0  0.4956521739130435 0.01666666666666667 0  0.5121739130434783 0.01666666666666667 0  0.528695652173913 0.01666666666666667 0  0.5452173913043478 0.01666666666666667 0  0.5617391304347825 0.01666666666666667 0  0.5782608695652174 0.01666666666666667 0  0.5947826086956521 0.01666666666666667 0  0.6113043478260869 0.01666666666666667 0  0.6278260869565218 0.01666666666666667 0  0.6443478260869565 0.01666666666666667 0  0.6608695652173913 0.01666666666666667 0  0.677391304347826 0.01666666666666667 0  0.6939130434782609 0.01666666666666667 0  0.7104347826086956 0.01666666666666667 0  0.7269565217391304 0.01666666666666667 0  0.7434782608695653 0.01666666666666667 0  0.7599999999999999 0.01666666666666667 0  0.7765217391304348 0.01666666666666667 0  0.7930434782608695 0.01666666666666667 0  0.8095652173913043 0.01666666666666667 0  0.8260869565217391 0.01666666666666667 0  0.8426086956521739 0.01666666666666667 0  0.8591304347826086 0.01666666666666667 0  0.8756521739130434 0.01666666666666667 0  0.8921739130434783 0.01666666666666667 0  0.908695652173913 0.01666666666666667 0  0.9252173913043478 0.01666666666666667 0  0.9417391304347826 0.01666666666666667 0  0.9582608695652173 0.01666666666666667 0  0.9747826086956521 0.01666666666666667 0  0.991304347826087 0.01666666666666667 0  1.007826086956522 0.01666666666666667 0  1.024347826086957 0.01666666666666667 0  1.040869565217391 0.01666666666666667 0  1.057391304347826 0.01666666666666667 0  1.073913043478261 0.01666666666666667 0  1.090434782608696 0.01666666666666667 0  1.10695652173913 0.01666666666666667 0  1.123478260869565 0.01666666666666667 0  1.14 0.01666666666666667 0  1.156521739130435 0.01666666666666667 0  1.17304347826087 0.01666666666666667 0  1.189565217391304 0.01666666666666667 0  1.206086956521739 0.01666666666666667 0  1.222608695652174 0.01666666666666667 0  1.239130434782609 0.01666666666666667 0  1.255652173913044 0.01666666666666667 0  1.272173913043478 0.01666666666666667 0  1.288695652173913 0.01666666666666667 0  1.305217391304348 0.01666666666666667 0  1.321739130434783 0.01666666666666667 0  1.338260869565217 0.01666666666666667 0  1.354782608695652 0.01666666666666667 0  1.371304347826087 0.01666666666666667 0  1.387826086956522 0.01666666666666667 0  1.404347826086957 0.01666666666666667 0  1.420869565217391 0.01666666666666667 0  1.437391304347826 0.01666666666666667 0  1.453913043478261 0.01666666666666667 0  1.470434782608696 0.01666666666666667 0  1.486956521739131 0.01666666666666667 0  1.503478260869565 0.01666666666666667 0  1.52 0.01666666666666667 0  1.536521739130435 0.01666666666666667 0  1.55304347826087 0.01666666666666667 0  1.569565217391304 0.01666666666666667 0  1.586086956521739 0.01666666666666667 0  1.602608695652174 0.01666666666666667 0  1.619130434782609 0.01666666666666667 0  1.635652173913043 0.01666666666666667 0  1.652173913043478 0.01666666666666667 0  1.668695652173913 0.01666666666666667 0  1.685217391304348 0.01666666666666667 0  1.701739130434782 0.01666666666666667 0  1.718260869565217 0.01666666666666667 0  1.734782608695652 0.01666666666666667 0  1.751304347826087 0.01666666666666667 0  1.767826086956522 0.01666666666666667 0  1.784347826086957 0.01666666666666667 0  1.800869565217391 0.0166666666666666
[...]
<PointData  Vectors="Displacement"> 
<DataArray  type="Float64"  Name="Displacement"  NumberOfComponents="3" format="ascii">0.0000000000000000e+00 0.0000000000000000e+00 0.0000000000000000e+00  6.2263948858419162e-06 4.1802182322033297e-06 0.0000000000000000e+00  1.1970398989806250e-05 8.3363113456598125e-06 0.0000000000000000e+00  1.7684510886810215e-05 1.4066129078033950e-05 0.0000000000000000e+00  2.3420324052602002e-05 2.1628083266515712e-05 0.0000000000000000e+00  2.9178921130043058e-05 3.1104118409318875e-05 0.0000000000000000e+00  3.4953628969871095e-05 4.2527511074065326e-05 0.0000000000000000e+00  4.0735756072741702e-05 5.5908113677653134e-05 0.0000000000000000e+00  4.6507442408829677e-05 7.1232352635949763e-05 0.0000000000000000e+00  5.2227824333618835e-05 8.8448539911607045e-05 0.0000000000000000e+00  5.7824976253022115e-05 1.0744592950158235e-04 0.0000000000000000e+00  6.3203426548606397e-05 1.2804177216410722e-04 0.0000000000000000e+00  6.8261756614806644e-05 1.4998555646017475e-04 0.0000000000000000e+00  7.2909595234677861e-05 1.7297595323518129e-04 0.0000000000000000e+00  7.7078914815405974e-05 1.9668303965780480e-04 0.0000000000000000e+00  8.0730538451309020e-05 2.2077295251193821e-04 0.0000000000000000e+00  8.3858168777435816e-05 2.4493517624215178e-04 0.0000000000000000e+00  8.6489541350284307e-05 2.6891038026207305e-04 0.0000000000000000e+00  8.8681565962505919e-05 2.9251023237925804e-04 0.0000000000000000e+00  9.0509026946711122e-05 3.1561880193274649e-04 0.0000000000000000e+00  9.2053212504710492e-05 3.3817645672316735e-04 0.0000000000000000e+00  9.3397880041059666e-05 3.6016111372457892e-04 0.0000000000000000e+00  9.4633095895927728e-05 3.8157977788055814e-04 0.0000000000000000e+00  9.5861495145721702e-05 4.0246825128204520e-04 0.0000000000000000e+00  9.7197558695452083e-05 4.2288461204862809e-04 0.0000000000000000e+00  9.8742401469801276e-05 4.4288366803825002e-04 0.0000000000000000e+00  1.0053398765746704e-04 4.6248999594862474e-04 0.0000000000000000e+00  1.0253718429255933e-04 4.8171299067178633e-04 0.0000000000000000e+00  1.0470898441758375e-04 5.0058582771330383e-04 0.0000000000000000e+00  1.0704236937121150e-04 5.1916504734476454e-04 0.0000000000000000e+00  1.0955119117165103e-04 5.3751404788983295e-04 0.0000000000000000e+00  1.1225069472484466e-04 5.5570046680738833e-04 0.0000000000000000e+00  1.1514763825227101e-04 5.7379563942984760e-04 0.0000000000000000e+00  1.1823688886322196e-04 5.9187392315498857e-04 0.0000000000000000e+00  1.2150276066284020e-04 6.1001134216627278e-04 0.0000000000000000e+00  1.2492294946230557e-04 6.2828203057166008e-04 0.0000000000000000e+00  1.2847328776798139e-04 6.4675555540113692e-04 0.0000000000000000e+00  1.3213283176472383e-04 6.6549537642832351e-04 0.0000000000000000e+00  1.3588683334885563e-04 6.8455463981365234e-04 0.0000000000000000e+00  1.3972533305568589e-04 7.0397200737154302e-04 0.0000000000000000e+00  1.4363974578865253e-04 7.2377121812282460e-04 0.0000000000000000e+00  1.4762001869497539e-04 7.4396371697342848e-04 0.0000000000000000e+00  1.5165360905458863e-04 7.6455252014956973e-04 0.0000000000000000e+00  1.5572625937166693e-04 7.8553589971553891e-04 0.0000000000000000e+00  1.5982382901984154e-04 8.0691012202718890e-04 0.0000000000000000e+00  1.6393421404868255e-04 8.2867074851018330e-04 0.0000000000000000e+00  1.6804823923146885e-04 8.5081199301662968e-04 0.0000000000000000e+00  1.7215884408747827e-04 8.7332490841812423e-04 0.0000000000000000e+00  1.7625968017632559e-04 8.9619727237496151e-04 0.0000000000000000e+00  1.8034516254502987e-04 9.1941587973123733e-04 0.0000000000000000e+00  1.8441176431392589e-04 9.4296877871105991e-04 0.0000000000000000e+00  1.8845859762602838e-04 9.6684418296708562e-04 0.0000000000000000e+00  1.9248537585532177e-04 9.9102660847419062e-04 0.0000000000000000e+00  1.9648982387001444e-04 1.0154965026830521e-03 0.0000000000000000e+00  2.0046844818912108e-04 1.0402350753787994e-03 0.0000000000000000e+00  2.0441947238947518e-04 1.0652277335030220e-03 0.0000000000000000e+00  2.0834390516279259e-04 1.0904619570873608e-03 0.0000000000000000e+00  2.1224346166764954e-04 1.1159221005160231e-03 0.0000000000000000e+00  2.1611722412248724e-04 1.1415867617766916e-03 0.0000000000000000e+00  2.1996079890497129e-04 1.1674327775432411e-03 0.0000000000000000e+00  2.2376946590981945e-04 1.1934420849753144e-03 0.0000000000000000e+00  2.2754204062583000e-04 1.2196041928214006e-03 0.0000000000000000e+00  2.3128215169058330e-04 1.2459126642501333e-03 0.0000000000000000e+00  2.3499607933942905e-04 1.2723579277443646e-03 0.0000000000000000e+00  2.3868827345681527e-04 1.2989217346857213e-03 0.0000000000000000e+00  2.4235859222636064e-04 1.3255793739252067e-03 0.0000000000000000e+00  2.4600342871814829e-04 1.3523058945626616e-03 0.0000000000000000e+00  2.4961783452897147e-04 1.3790800872377123e-03 0.0000000000000000e+00  2.5319755374554782e-04 1.4058861095158726e-03 0.0000000000000000e+00  2.5674113045756288e-04 1.4327147573924694e-03 0.0000000000000000e+00  2.6025196399345350e-04 1.4595631198278307e-03 0.0000000000000000e+00  2.6373799915786533e-04 1.4864289481477503e-03 0.0000000000000000e+00  2.6720754149957900e-04 1.5133013059050440e-03 0.0000000000000000e+00  2.7066404307156839e-04 1.5401570518135286e-03 0.0000000000000000e+00  2.7410535112130691e-04 1.5669694429989666e-03 0.0000000000000000e+00  2.7752779184507352e-04 1.5937192032244043e-03 0.0000000000000000e+00  2.8092963032717773e-04 1.6203974583293738e-03 0.0000000000000000e+00  2.8431192539272098e-04 1.6470025041893134e-03 0.0000000000000000e+00  2.8767814204361058e-04 1.6735371917551937e-03 0.0000000000000000e+00  2.9103490286777194e-04 1.7000110214245279e-03 0.0000000000000000e+00  2.9439475708738835e-04 1.7264443326300860e-03 0.0000000000000000e+00  2.9777880797199086e-04 1.7528678144069960e-03 0.0000000000000000e+00  3.0121658953550362e-04 1.7793168744850464e-03 0.0000000000000000e+00  3.0474323112714282e-04 1.8058255047342950e-03 0.0000000000000000e+00  3.0839383799103264e-04 1.8324220816304459e-03 0.0000000000000000e+00  3.1219534272296505e-04 1.8591322564219461e-03 0.0000000000000000e+00  3.1615928575510116e-04 1.8859940983973014e-03 0.0000000000000000e+00  3.2027791671152505e-04 1.9130758328316168e-03 0.0000000000000000e+00  3.2452236573448772e-04 1.9404898249074307e-03 0.0000000000000000e+00  3.2884818037112555e-04 1.9683978876172108e-03 0.0000000000000000e+00  3.3320854942950399e-04 1.9969990275988127e-03 0.0000000000000000e+00  3.3757119303732614e-04 2.0265067442303782e-03 0.0000000000000000e+00  3.4193216987696723e-04 2.0571237358666282e-03 0.0000000000000000e+00  3.4631247258779207e-04 2.0890283632015983e-03 0.0000000000000000e+00  3.5074165252083192e-04 2.1223773105187630e-03 0.0000000000000000e+00  3.5524405384659992e-04 2.1573049425623776e-03 0.0000000000000000e+00  3.5982816624608198e-04 2.1939085598222602e-03 0.0000000000000000e+00  3.6447060145375869e-04 2.2322232440288494e-03 0.0000000000000000e+00  3.6909705307811691e-04 2.2721863599866258e-03 0.0000000000000000e+00  3.7357620001873793e-04 2.3135989973638417e-03 0.0000000000000000e+00  3.7774375701954134e-04 2.3561140312258490e-03 0.0000000000000000e+00  3.8145791387989833e-04 2.3992810787579195e-03 0.0000000000000000e+00  3.8465460861052120e-04 2.4426395513172153e-03 0.0000000000000000e+00  3.8737022090220207e-04 2.4858129127834213e-03 0.0000000000000000e+00  3.8972911521695225e-04 2.5285638376266843e-03 0.0000000000000000e+00  3.9191309354337799e-04 2.5707973637756933e-03 0.0000000000000000e+00  3.9412699179352606e-04 2.6125214555892669e-03 0.0000000000000000e+00  3.9656112509981698e-04 2.6537935849193493e-03 0.0000000000000000e+00  3.9935186152131088e-04 2.6946938140144021e-03 0.0000000000000000e+00  4.0256004498452456e-04 2.7353375449452083e-03 0.0000000000000000e+00  4.0618095684759911e-04 2.7758858030766617e-03 0.0000000000000000e+00  4.1016112407789973e-04 2.8165241011395862e-03 0.0000000000000000e+00  4.1441225652648632e-04 2.8574358970312598e-03 0.0000000000000000e+00  4.1883783895918584e-04 2.8987891957490668e-03 0.0000000000000000e+00  4.2336594911573770e-04 2.9407256239076733e-03 0.0000000000000000e+00  4.2795788081110268e-04 2.9833491409581130e-03 0.0000000000000000e+00  4.3259736380847581e-04 3.0267266305246000e-03 0.0000000000000000e+00  4.3728012169104192e-04 3.0708955206701716e-03 0.0000000000000000e+00  4.4200343759917597e-04 3.1158686808537934e-03 0.0000000000000000e+00  4.4675961640217748e-04 3.1616394069125535e-03 0.0000000000000000e+00  4.5153808686853426e-04 3.2081866464766288e-03 0.0000000000000000e+00  4.5632668017769542e-04 3.2554758181664064e-03 0.0000000000000000e+00  4.6110755729409497e-04 3.3034569084058486e-03 0.0000000000000000e+00  4.6585543572733056e-04 3.3520667763646496e-03 0.0000000000000000e+00  4.7054393673157357e-04 3.4012351431167232e-03 0.0000000000000000e+00  4.7515057189579702e-04 3.4508875482526578e-03 0.0000000000000000e+00  4.7965742258671484e-04 3.5009461143229005e-03 0.0000000000000000e+00  4.8405169997609395e-04 3.5513319530721217e-03 0.0000000000000000e+00  4.8833008568239503e-04 3.6019696454798566e-03 0.0000000000000000e+00  4.9249938900643479e-04 3.6527849739292685e-03 0.0000000000000000e+00  4.9656445317809760e-04 3.7036953071989650e-03 0.0000000000000000e+00  5.0052029750788992e-04 3.7546096543739755e-03 0.0000000000000000e+00  5.0435944823213523e-04 3.8054392344491804e-03 0.0000000000000000e+00  5.0807926229161544e-04 3.8561014230891204e-03 0.0000000000000000e+00  5.1167875668016146e-04 3.9065139606370520e-03 0.0000000000000000e+00  5.1515467473003441e-04 3.9565934881600519e-03 0.0000000000000000e+00  5.1850485480535804e-04 4.0062607573709257e-03 0.0000000000000000e+00  5.2172996794895934e-04 4.0554414101033132e-03 0.0000000000000000e+00  5.2483131382636931e-04 4.1040633250106658e-03 0.0000000000000000e+00  5.2781018717205929e-04 4.1520576759083083e-03 0.0000000000000000e+00  5.3066971193894952e-04 4.1993619927590811e-03 0.0000000000000000e+00  5.3341543721342668e-04 4.2459211010751887e-03 0.0000000000000000e+00  5.3605596608157695e-04 4.2916883786057120e-03 0.0000000000000000e+00  5.3860455513419256e-04 4.3366281348519008e-03 0.0000000000000000e+00  5.4108118135485030e-04 4.3807177499925959e-03 0.0000000000000000e+00  5.4351415350019979e-04 4.4239484180363395e-03 0.0000000000000000e+00  5.4594107210475141e-04 4.4663253305969259e-03 0.0000000000000000e+00  5.4840906012379258e-04 4.5078684837737337e-03 0.0000000000000000e+00  5.5097287998486346e-04 4.5486143904474360e-03 0.0000000000000000e+00  5.5368895973569130e-04 4.5886192032624342e-03 0.0000000000000000e+00  5.5660740153360864e-04 4.6279694831276100e-03 0.0000000000000000e+00  5.5976957811957955e-04 4.6668008230292563e-03 0.0000000000000000e+00  5.6320621145887300e-04 4.7053023207353278e-03 0.0000000000000000e+00  5.6693028904345616e-04 4.7437039672014450e-03 0.0000000000000000e+00  5.7093767517011804e-04 4.7822633319887821e-03 0.0000000000000000e+00  5.7521835621270328e-04 4.8212542308398183e-03 0.0000000000000000e+00  5.7976617946648064e-04 4.8609548242782895e-03 0.0000000000000000e+00  5.8457296389743116e-04 4.9016384969377581e-03 0.0000000000000000e+00  5.8961974600860352e-04 4.9435725145062807e-03 0.0000000000000000e+00  5.9488321353594158e-04 4.9870155420419981e-03 0.0000000000000000e+00  6.0034740645526223e-04 5.0322052881057646e-03 0.0000000000000000e+00  6.0600584553891109e-04 5.0793446169007574e-03 0.0000000000000000e+00  6.1185726402879128e-04 5.1285940498741363e-03 0.0000000000000000e+00  6.1789821493634690e-04 5.1800684871530101e-03 0.0000000000000000e+00  6.2411557061053697e-04 5.2338348851523383e-03 0.0000000000000000e+00  6.3048263747195231e-04 5.2899092417079338e-03 0.0000000000000000e+00  6.3695772525320456e-04 5.3482527222267163e-03 0.0000000000000000e+00  6.4348472209106809e-04 5.4087682431776434e-03 0.0000000000000000e+00  6.4999505191824401e-04 5.4712985782077771e-03 0.0000000000000000e+00  6.5641001312159231e-04 5.5356268777054830e-03 0.0000000000000000e+00  6.6264468834891616e-04 5.6014811674807100e-03 0.0000000000000000e+00  6.6861429780249663e-04 5.6685441584631057e-03 0.0000000000000000e+00  6.7424283336739769e-04 5.7364686763680126e-03 0.0000000000000000e+00  6.7947203611890006e-04 5.8048969273574395e-03 0.0000000000000000e+00  6.8426820697561029e-04 5.8734806250895803e-03 0.0000000000000000e+00  6.8862674364602412e-04 5.9418998680114956e-03 0.0000000000000000e+00  6.9257449755894820e-04 6.0098781542089691e-03 0.0000000000000000e+00  6.9616849240296383e-04 6.0771892243430808e-03 0.0000000000000000e+00  6.9948812464659530e-04 6.1436505316682898e-03 0.0000000000000000e+00  7.0262041623663819e-04 6.2091060428069731e-03 0.0000000000000000e+00  7.0565362342575198e-04 6.2734242741023455e-03 0.0000000000000000e+00  7.0868627015119019e-04 6.3365232981547224e-03 0.0000000000000000e+00  7.1182884510411024e-04 6.3983958940529917e-03 0.0000000000000000e+00  7.1518661014430295e-04 6.4591277442163078e-03 0.0000000000000000e+00  7.1883403117129017e-04 6.5189239866576118e-03 0.0000000000000000e+00  7.2279702601838228e-04 6.5781293732673348e-03 0.0000000000000000e+00  7.2704929373625202e-04 6.6371953610982696e-03 0.0000000000000000e+00  7.3150709433383648e-04 6.6965817715379612e-03 0.0000000000000000e+00  7.3605114001516216e-04 6.7566560546700903e-03 0.0000000000000000e+00  7.4056557785619919e-04 6.8176354260148023e-03 0.0000000000000000e+00  7.4496910127187105e-04 6.8795939733857945e-03 0.0000000000000000e+00  7.4926473100023335e-04 6.9425517609211264e-03 0.0000000000000000e+00  7.5354123689157313e-04 7.0065683132171236e-03 0.0000000000000000e+00  7.5788422606592510e-04 7.0717206627275500e-03 0.0000000000000000e+00  7.6228528041075909e-04 7.1379909754137362e-03 0.0000000000000000e+00  7.6664475551430186e-04 7.2052006367122595e-03 0.0000000000000000e+00  7.7083704259323842e-04 7.2730510962124677e-03 0.0000000000000000e+00  7.7476586620202955e-04 7.3412200083118277e-03 0.0000000000000000e+00  7.7838711703078704e-04 7.4094263614222873e-03 0.0000000000000000e+00  7.8171777959084796e-04 7.4774631155356515e-03 0.0000000000000000e+00  7.8484033470925172e-04 7.5452321333624502e-03 0.0000000000000000e+00  7.8790621671665623e-04 7.6127646863404673e-03 0.0000000000000000e+00  7.9115237170029917e-04 7.6802144707196832e-03 0.0000000000000000e+00  7.9492724266016926e-04 7.7478320694065834e-03 0.0000000000000000e+00  7.9964507392904353e-04 7.8158815072399187e-03 0.0000000000000000e+00  8.0553162571536001e-04 7.8844244497176183e-03 0.0000000000000000e+00  8.1232852524049635e-04 7.9531501119129485e-03 0.0000000000000000e+00  8.1946459921957142e-04 8.0216128140222689e-03 0.0000000000000000e+00  8.2648895140464268e-04 8.0895751336131101e-03 0.0000000000000000e+00  8.3319654264260709e-04 8.1570266931609015e-03 0.0000000000000000e+00  8.3952876841200186e-04 8.2240533165473598e-03 0.0000000000000000e+00  8.4547940547903024e-04 8.2907527380488271e-03 0.0000000000000000e+00  8.5105137320505000e-04 8.3572056355516403e-03 0.0000000000000000e+00  8.5624257578211947e-04 8.4234705296786488e-03 0.0000000000000000e+00  8.6104320583573564e-04 8.4895852733221124e-03 0.0000000000000000e+00  8.6543694180955713e-04 8.5555692634089655e-03 0.0000000000000000e+00  8.6940342020536902e-04 8.6214251342440276e-03 0.0000000000000000e+00  8.7292116941967439e-04 8.6871400628061174e-03 0.0000000000000000e+00  8.7597076327427810e-04 8.7526870620715739e-03 0.0000000000000000e+00  8.7853810154316103e-04 8.8180266147300478e-03 0.0000000000000000e+00  8.8061772966052849e-04 8.8831089459790631e-03 0.0000000000000000e+00  8.8221606319819875e-04 8.9478771852757946e-03 0.0000000000000000e+00  8.8335431589226486e-04 9.0122716240289141e-03 0.0000000000000000e+00  8.8407084962876983e-04 9.0762352366676787e-03 0.0000000000000000e+00  8.8442256541557596e-04 9.1397205895384220e-03 0.0000000000000000e+00  8.8448482014968270e-04 9.2026982009235890e-03 0.0000000000000000e+00  8.8434915046276907e-04 9.2651663000795827e-03 0.0000000000000000e+00  8.8411773252041316e-04 9.3271616520763795e-03 0.0000000000000000e+00  8.8389279542932955e-04 9.3887702473103886e-03 0.0000000000000000e+00  8.8375735071638496e-04 9.4501332832860000e-03 0.0000000000000000e+00  8.8373532453646874e-04 9.5114260112153983e-03 0.0000000000000000e+00  0.0000000000000000e+00 0.0000000000000000e+00 0.0000000000000000e+00  3.1926325901400857e-06 1.8608604495352455e-06 0.0000000000000000e+00  7.1972251424699290e-06 5.9490548512192648e-06 0.0000000000000000e+00  1.1136569974752832e-05 1.1672596171535373e-05 0.0000000000000000e+00  1.5026677733259855e-05 1.9227807700475402e-05 0.0000000000000000e+00  1.8896226064052508e-05 2.8695135734475606e-05 0.0000000000000000e+00  2.2764595816368584e-05 4.0107228743963428e-05 0.0000000000000000e+00  2.6648509707221522e-05 5.3474077268024664e-05 0.0000000000000000e+00  3.0562930345308309e-05 6.8787557067883742e-05 0.0000000000000000e+00  3.4512629946060801e-05 8.6008284880258158e-05 0.0000000000000000e+00  3.8482364806827503e-05 1.0503953567114643e-04 0.0000000000000000e+00  4.2436324915389012e-05 1.2570763735947839e-04 0.0000000000000000e+00  4.6325409133268362e-05 1.4776407356874004e-04 0.0000000000000000e+00  5.0095694972215566e-05 1.7090400220763603e-04 0.0000000000000000e+00  5.3694313092850099e-05 1.9479061072966042e-04 0.0000000000000000e+00  5.7072899494677403e-05 2.1908053612820229e-04 0.0000000000000000e+00  6.0191215281691054e-05 2.4345071876038726e-04 0.0000000000000000e+00  6.3023258776923551e-05 2.6762692338981196e-04 0.0000000000000000e+00  6.5564227231716622e-05 2.9140731538079920e-04 0.0000000000000000e+00  6.7832462762045260e-05 3.1466788491111945e-04 0.0000000000000000e+00  6.9864250049285199e-05 3.3734567783087082e-04 0.0000000000000000e+00  7.1707757378395388e-05 3.5941539717063967e-04 0.0000000000000000e+00  7.3422873920076390e-05 3.8087729456944599e-04 0.0000000000000000e+00  7.5087057539106652e-05 4.0175742617100971e-04 0.0000000000000000e+00  7.6800114362231189e-05 4.2210807466463199e-04 0.0000000000000000e+00  7.8670394222672373e-05 4.4199683245385151e-04 0.0000000000000000e+00  8.0766210407654264e-05 4.6148525703915263e-04 0.0000000000000000e+00  8.3073227229790223e-05 4.8061385898915928e-04 0.0000000000000000e+00  8.5533233140879617e-05 4.9941218671118554e-04 0.0000000000000000e+00  8.8115002785686415e-05 5.1791972040085197e-04 0.0000000000000000e+00  9.0818852704071249e-05 5.3619191172187399e-04 0.0000000000000000e+00  9.3652657578549261e-05 5.5429708185820070e-04 0.0000000000000000e+00  9.6618706515498397e-05 5.7231122462088053e-04 0.0000000000000000e+00  9.9708809714750072e-05 5.9031381473302049e-04 0.0000000000000000e+00  1.0290607064076435e-04 6.0838463132320412e-04 0.0000000000000000e+00  1.0618969796750223e-04 6.2659941988830418e-04 0.0000000000000000e+00  1.0953934998127993e-04 6.4502667424410265e-04 0.0000000000000000e+00  1.1294036667029509e-04 6.6372675977498902e-04 0.0000000000000000e+00  1.1638769603860164e-04 6.8274976256400767e-04 0.0000000000000000e+00  1.1988346817576781e-04 7.0213289416711747e-04 0.0000000000000000e+00  1.2343126466786953e-04 7.2190028184714061e-04 0.0000000000000000e+00  1.2703141532398077e-04 7.4206486214006828e-04 0.0000000000000000e+00  1.3067908198738883e-04 7.6263120297773471e-04 0.0000000000000000e+00  1.3436503950994258e-04 7.8359836031614057e-04 0.0000000000000000e+00  1.3807812999605811e-04 8.0496224426615363e-04 0.0000000000000000e+00  1.4180823254711437e-04 8.2671715645011104e-04 0.0000000000000000e+00  1.4554839504930236e-04 8.4885607279110034e-04 0.0000000000000000e+00  1.4929436687996129e-04 8.7136956700562213e-04 0.0000000000000000e+00  1.5304208944120422e-04 8.9424529791240102e-04 0.0000000000000000e+00  1.5678682193273264e-04 9.1746938156784055e-04 0.0000000000000000e+00  1.6052501144368621e-04 9.4102841697522247e-04 0.0000000000000000e+00  1.6425683396212472e-04 9.6490970739603380e-04 0.0000000000000000e+00  1.6798471224904594e-04 9.8909852939619452e-04 0.0000000000000000e+