<?xml version="1.0"?>
<VTKFile type="UnstructuredGrid"  version="0.1"  >
<UnstructuredGrid>
<Piece  NumberOfPoints="7161" NumberOfCells="13800">
<Points>
<DataArray  type="Float64"  NumberOfComponents="3"  format="ascii">0 0 0  0.01652173913043478 0 0  0.03304347826086956 0 0  0.04956521739130434 0 0  0.06608695652173913 0 0  0.08260869565217391 0 0  0.09913043478260869 0 0  0.1156521739130435 0 0  0.1321739130434783 0 0  0.148695652173913 0 0  0.1652173913043478 0 0  0.1817391304347826 0 0  0.1982608695652174 0 0  0.2147826086956522 0 0  0.2313043478260869 0 0  0.2478260869565218 0 0  0.2643478260869565 0 0  0.2808695652173913 0 0  0.2973913043478261 0 0  0.3139130434782609 0 0  0.3304347826086956 0 0  0.3469565217391304 0 0  0.3634782608695652 0 0  0.3799999999999999 0 0  0.3965217391304348 0 0  0.4130434782608696 0 0  0.4295652173913043 0 0  0.4460869565217391 0 0  0.4626086956521739 0 0  0.4791304347826086 0 0  0.4956521739130435 0 0  0.5121739130434783 0 0  0.528695652173913 0 0  0.5452173913043478 0 0  0.5617391304347825 0 0  0.5782608695652174 0 0  0.5947826086956521 0 0  0.6113043478260869 0 0  0.6278260869565218 0 0  0.6443478260869565 0 0  0.6608695652173913 0 0  0.677391304347826 0 0  0.6939130434782609 0 0  0.7104347826086956 0 0  0.7269565217391304 0 0  0.7434782608695653 0 0  0.7599999999999999 0 0  0.7765217391304348 0 0  0.7930434782608695 0 0  0.8095652173913043 0 0  0.8260869565217391 0 0  0.8426086956521739 0 0  0.8591304347826086 0 0  0.8756521739130434 0 0  0.8921739130434783 0 0  0.908695652173913 0 0  0.9252173913043478 0 0  0.9417391304347826 0 0  0.9582608695652173 0 0  0.9747826086956521 0 0  0.991304347826087 0 0  1.007826086956522 0 0  1.024347826086957 0 0  1.040869565217391 0 0  1.057391304347826 0 0  1.073913043478261 0 0  1.090434782608696 0 0  1.10695652173913 0 0  1.123478260869565 0 0  1.14 0 0  1.156521739130435 0 0  1.17304347826087 0 0  1.189565217391304 0 0  1.206086956521739 0 0  1.222608695652174 0 0  1.239130434782609 0 0  1.255652173913044 0 0  1.272173913043478 0 0  1.288695652173913 0 0  1.305217391304348 0 0  1.321739130434783 0 0  1.338260869565217 0 0  1.354782608695652 0 0  1.371304347826087 0 0  1.387826086956522 0 0  1.404347826086957 0 0  1.420869565217391 0 0  1.437391304347826 0 0  1.453913043478261 0 0  1.470434782608696 0 0  1.486956521739131 0 0  1.503478260869565 0 0  1.52 0 0  1.536521739130435 0 0  1.55304347826087 0 0  1.569565217391304 0 0  1.586086956521739 0 0  1.602608695652174 0 0  1.619130434782609 0 0  1.635652173913043 0 0  1.652173913043478 0 0  1.668695652173913 0 0  1.685217391304348 0 0  1.701739130434782 0 0  1.718260869565217 0 0  1.734782608695652 0 0  1.751304347826087 0 0  1.767826086956522 0 0  1.784347826086957 0 0  1.800869565217391 0 0  1.817391304347826 0 0  1.833913043478261 0 0  1.850434782608696 0 0  1.86695652173913 0 0  1.883478260869565 0 0  1.9 0 0  1.916521739130435 0 0  1.933043478260869 0 0  1.949565217391304 0 0  1.966086956521739 0 0  1.982608695652174 0 0  1.999130434782608 0 0  2.015652173913043 0 0  2.032173913043478 0 0  2.048695652173913 0 0  2.065217391304348 0 0  2.081739130434782 0 0  2.098260869565217 0 0  2.114782608695652 0 0  2.131304347826087 0 0  2.147826086956522 0 0  2.164347826086956 0 0  2.180869565217391 0 0  2.197391304347826 0 0  2.213913043478261 0 0  2.230434782608695 0 0  2.24695652173913 0 0  2.263478260869565 0 0  2.28 0 0  2.296521739130434 0 0  2.31304347826087 0 0  2.329565217391304 0 0  2.346086956521739 0 0  2.362608695652174 0 0  2.379130434782609 0 0  2.395652173913044 0 0  2.412173913043478 0 0  2.428695652173913 0 0  2.445217391304348 0 0  2.461739130434782 0 0  2.478260869565217 0 0  2.494782608695652 0 0  2.511304347826087 0 0  2.527826086956522 0 0  2.544347826086956 0 0  2.560869565217391 0 0  2.577391304347826 0 0  2.593913043478261 0 0  2.610434782608696 0 0  2.62695652173913 0 0  2.643478260869565 0 0  2.66 0 0  2.676521739130435 0 0  2.693043478260869 0 0  2.709565217391304 0 0  2.726086956521739 0 0  2.742608695652174 0 0  2.759130434782609 0 0  2.775652173913044 0 0  2.792173913043478 0 0  2.808695652173913 0 0  2.825217391304347 0 0  2.841739130434783 0 0  2.858260869565217 0 0  2.874782608695652 0 0  2.891304347826087 0 0  2.907826086956522 0 0  2.924347826086957 0 0  2.940869565217391 0 0  2.957391304347826 0 0  2.973913043478261 0 0  2.990434782608696 0 0  3.006956521739131 0 0  3.023478260869565 0 0  3.04 0 0  3.056521739130435 0 0  3.073043478260869 0 0  3.089565217391304 0 0  3.106086956521739 0 0  3.122608695652174 0 0  3.139130434782609 0 0  3.155652173913043 0 0  3.172173913043478 0 0  3.188695652173913 0 0  3.205217391304347 0 0  3.221739130434782 0 0  3.238260869565217 0 0  3.254782608695652 0 0  3.271304347826087 0 0  3.287826086956521 0 0  3.304347826086957 0 0  3.320869565217391 0 0  3.337391304347826 0 0  3.353913043478261 0 0  3.370434782608696 0 0  3.386956521739131 0 0  3.403478260869565 0 0  3.419999999999999 0 0  3.436521739130435 0 0  3.453043478260869 0 0  3.469565217391304 0 0  3.486086956521739 0 0  3.502608695652174 0 0  3.519130434782609 0 0  3.535652173913043 0 0  3.552173913043478 0 0  3.568695652173913 0 0  3.585217391304347 0 0  3.601739130434782 0 0  3.618260869565217 0 0  3.634782608695652 0 0  3.651304347826087 0 0  3.667826086956521 0 0  3.684347826086956 0 0  3.700869565217391 0 0  3.717391304347826 0 0  3.733913043478261 0 0  3.750434782608695 0 0  3.766956521739131 0 0  3.783478260869565 0 0  3.8 0 0  0 0.01666666666666667 0  0.01652173913043478 0.01666666666666667 0  0.03304347826086956 0.01666666666666667 0  0.04956521739130434 0.01666666666666667 0  0.06608695652173913 0.01666666666666667 0  0.08260869565217391 0.01666666666666667 0  0.09913043478260869 0.01666666666666667 0  0.1156521739130435 0.01666666666666667 0  0.1321739130434783 0.01666666666666667 0  0.148695652173913 0.01666666666666667 0  0.1652173913043478 0.01666666666666667 0  0.1817391304347826 0.01666666666666667 0  0.1982608695652174 0.01666666666666667 0  0.2147826086956522 0.01666666666666667 0  0.2313043478260869 0.01666666666666667 0  0.2478260869565218 0.01666666666666667 0  0.2643478260869565 0.01666666666666667 0  0.2808695652173913 0.01666666666666667 0  0.2973913043478261 0.01666666666666667 0  0.3139130434782609 0.01666666666666667 0  0.3304347826086956 0.01666666666666667 0  0.3469565217391304 0.01666666666666667 0  0.3634782608695652 0.01666666666666667 0  0.3799999999999999 0.01666666666666667 0  0.3965217391304348 0.01666666666666667 0  0.4130434782608696 0.01666666666666667 0  0.4295652173913043 0.01666666666666667 0  0.4460869565217391 0.01666666666666667 0  0.4626086956521739 0.01666666666666667 0  0.4791304347826086 0.01666666666666667 0  0.4956521739130435 0.01666666666666667 0  0.5121739130434783 0.01666666666666667 0  0.528695652173913 0.01666666666666667 0  0.5452173913043478 0.01666666666666667 0  0.5617391304347825 0.01666666666666667 0  0.5782608695652174 0.01666666666666667 0  0.5947826086956521 0.01666666666666667 0  0.6113043478260869 0.01666666666666667 0  0.6278260869565218 0.01666666666666667 0  0.6443478260869565 0.01666666666666667 0  0.6608695652173913 0.01666666666666667 0  0.677391304347826 0.01666666666666667 0  0.6939130434782609 0.01666666666666667 0  0.7104347826086956 0.01666666666666667 0  0.7269565217391304 0.01666666666666667 0  0.7434782608695653 0.01666666666666667 0  0.7599999999999999 0.01666666666666667 0  0.7765217391304348 0.01666666666666667 0  0.7930434782608695 0.01666666666666667 0  0.8095652173913043 0.01666666666666667 0  0.8260869565217391 0.01666666666666667 0  0.8426086956521739 0.01666666666666667 0  0.8591304347826086 0.01666666666666667 0  0.8756521739130434 0.01666666666666667 0  0.8921739130434783 0.01666666666666667 0  0.908695652173913 0.01666666666666667 0  0.9252173913043478 0.01666666666666667 0  0.9417391304347826 0.01666666666666667 0  0.9582608695652173 0.01666666666666667 0  0.9747826086956521 0.01666666666666667 0  0.991304347826087 0.01666666666666667 0  1.007826086956522 0.01666666666666667 0  1.024347826086957 0.01666666666666667 0  1.040869565217391 0.01666666666666667 0  1.057391304347826 0.01666666666666667 0  1.073913043478261 0.01666666666666667 0  1.090434782608696 0.01666666666666667 0  1.10695652173913 0.01666666666666667 0  1.123478260869565 0.01666666666666667 0  1.14 0.01666666666666667 0  1.156521739130435 0.01666666666666667 0  1.17304347826087 0.01666666666666667 0  1.189565217391304 0.01666666666666667 0  1.206086956521739 0.01666666666666667 0  1.222608695652174 0.01666666666666667 0  1.239130434782609 0.01666666666666667 0  1.255652173913044 0.01666666666666667 0  1.272173913043478 0.01666666666666667 0  1.288695652173913 0.01666666666666667 0  1.305217391304348 0.01666666666666667 0  1.321739130434783 0.01666666666666667 0  1.338260869565217 0.01666666666666667 0  1.354782608695652 0.01666666666666667 0  1.371304347826087 0.01666666666666667 0  1.387826086956522 0.01666666666666667 0  1.404347826086957 0.01666666666666667 0  1.420869565217391 0.01666666666666667 0  1.437391304347826 0.01666666666666667 0  1.453913043478261 0.01666666666666667 0  1.470434782608696 0.01666666666666667 0  1.486956521739131 0.01666666666666667 0  1.503478260869565 0.01666666666666667 0  1.52 0.01666666666666667 0  1.536521739130435 0.01666666666666667 0  1.55304347826087 0.01666666666666667 0  1.569565217391304 0.01666666666666667 0  1.586086956521739 0.01666666666666667 0  1.602608695652174 0.01666666666666667 0  1.619130434782609 0.01666666666666667 0  1.635652173913043 0.01666666666666667 0  1.652173913043478 0.01666666666666667 0  1.668695652173913 0.01666666666666667 0  1.685217391304348 0.01666666666666667 0  1.701739130434782 0.01666666666666667 0  1.718260869565217 0.01666666666666667 0  1.734782608695652 0.01666666666666667 0  1.751304347826087 0.01666666666666667 0  1.767826086956522 0.01666666666666667 0  1.784347826086957 0.01666666666666667 0  1.800869565217391 0.0166666666666666
[...]
<PointData  Scalars="rho_bar"> 
<DataArray  type="Float64"  Name="rho_bar"  format="ascii">3.3187973916223262e-01  3.3201254671102742e-01  3.3231525056809663e-01  3.3263888128967117e-01  3.3290238577804765e-01  3.3309570818898954e-01  3.3320928108220305e-01  3.3326198424192921e-01  3.3326062661188305e-01  3.3321822890697256e-01  3.3313845813024462e-01  3.3302990844704339e-01  3.3289203792960886e-01  3.3273197864410120e-01  3.3254754064868836e-01  3.3234417753821133e-01  3.3211911614429451e-01  3.3187641998354789e-01  3.3161367558701882e-01  3.3133546310503520e-01  3.3103909777308782e-01  3.3072819857206287e-01  3.3039842259090074e-01  3.3005135315973277e-01  3.2968157737850384e-01  3.2928970855936074e-01  3.2887156590525490e-01  3.2842839036846194e-01  3.2795424270795875e-01  3.2744782214574980e-01  3.2690139599380336e-01  3.2631455056926784e-01  3.2568201440375028e-01  3.2500506661295542e-01  3.2428329491239083e-01  3.2352819803234972e-01  3.2274673731056408e-01  3.2195059811552657e-01  3.2114372937032093e-01  3.2033399659192108e-01  3.1952220116174307e-01  3.1871374568655553e-01  3.1790783203430822e-01  3.1710904742038459e-01  3.1631566179690285e-01  3.1553159931802544e-01  3.1475499620385383e-01  3.1398942627020660e-01  3.1323272813350878e-01  3.1248803969006683e-01  3.1175291999846588e-01  3.1103050026399592e-01  3.1031788635250129e-01  3.0961781685471590e-01  3.0892740452837358e-01  3.0824912673315769e-01  3.0757985956657513e-01  3.0692171637163018e-01  3.0627137271447424e-01  3.0563104544454822e-01  3.0499710325997442e-01  3.0437152437543319e-01  3.0375085527874607e-01  3.0313704943781883e-01  3.0252666089234809e-01  3.0192149561045856e-01  3.0131809957458777e-01  3.0071867555341519e-01  3.0011956272728041e-01  2.9952305016727210e-01  2.9892567527049169e-01  2.9832997832843766e-01  2.9773222324270510e-01  2.9713525949903269e-01  2.9653529117223110e-01  2.9593558268822401e-01  2.9533195396751410e-01  2.9472802891987920e-01  2.9411968716259901e-01  2.9351081984979893e-01  2.9289793329011865e-01  2.9228421371173602e-01  2.9166644927950308e-01  2.9104774647993548e-01  2.9042524961366117e-01  2.8980161142373867e-01  2.8917409733075666e-01  2.8854551000611706e-01  2.8791306480190981e-01  2.8727938344178600e-01  2.8664199480578612e-01  2.8600347304311963e-01  2.8536133221667426e-01  2.8471802876752156e-01  2.8407108989290591e-01  2.8342320384725905e-01  2.8277171486764591e-01  2.8211920200763169e-01  2.8146325583394433e-01  2.8080643394711480e-01  2.8014631963515035e-01  2.7948532641593071e-01  2.7882103086682974e-01  2.7815607554518657e-01  2.7748786429020283e-01  2.7681892127072499e-01  2.7614688892577727e-01  2.7547427134470187e-01  2.7479870486826136e-01  2.7412255301652649e-01  2.7344344662622794e-01  2.7276397611867009e-01  2.7208160541013088e-01  2.7139880829168550e-01  2.7071328360318986e-01  2.7002748996378340e-01  2.6933912432234297e-01  2.6865050563391357e-01  2.6795932081567320e-01  2.6726813448728665e-01  2.6657449857865251e-01  2.6588084797301592e-01  2.6518492848940001e-01  2.6448921041384238e-01  2.6379132734249089e-01  2.6309370639978763e-01  2.6239397046044038e-01  2.6169478079454556e-01  2.6099352264326586e-01  2.6029287288736835e-01  2.5959019727604060e-01  2.5888834280221379e-01  2.5818438698847296e-01  2.5748129936267705e-01  2.5677620500749943e-01  2.5607220014790455e-01  2.5536680714189858e-01  2.5466260388672440e-01  2.5395717796497741e-01  2.5325316497374428e-01  2.5254816011140996e-01  2.5184458777365060e-01  2.5114025863100181e-01  2.5043759032859159e-01  2.4973447819917566e-01  2.4903313888744044e-01  2.4833151169442444e-01  2.4763197935237677e-01  2.4693232496381720e-01  2.4623483317916814e-01  2.4553753232067232e-01  2.4484268358267755e-01  2.4414831188164132e-01  2.4345656121526471e-01  2.4276546563460241e-01  2.4207737129532655e-01  2.4139016354131757e-01  2.4070608902236773e-01  2.4002325444296913e-01  2.3934388889694388e-01  2.3866609795269000e-01  2.3799198999471172e-01  2.3731967403783608e-01  2.3665146278463953e-01  2.3598532816421508e-01  2.3532347654155714e-01  2.3466408909196226e-01  2.3400937634530447e-01  2.3335753557820196e-01  2.3271064421845217e-01  2.3206687081904465e-01  2.3142854525290818e-01  2.3079360850797173e-01  2.3016438021924798e-01  2.2953888619012805e-01  2.2891954571674714e-01  2.2830408044318065e-01  2.2769505873156373e-01  2.2709007970664641e-01  2.2649194481285947e-01  2.2589787332352809e-01  2.2531087369698499e-01  2.2472815694115553e-01  2.2415287108040441e-01  2.2358265501210420e-01  2.2302005712923079e-01  2.2246290184448667e-01  2.2191362648765833e-01  2.2137029339715444e-01  2.2083495421706212e-01  2.2030574793166258e-01  2.1978481529519389e-01  2.1927023107515947e-01  2.1876398918773915e-01  2.1826441375146857e-01  2.1777345715140706e-01  2.1728943678223353e-01  2.1681423004402361e-01  2.1634619417673517e-01  2.1588741250183585e-01  2.1543612661907161e-01  2.1499438201203092e-01  2.1456066907720003e-01  2.1413706274553071e-01  2.1372209557843427e-01  2.1331778805846516e-01  2.1292272546234658e-01  2.1253915191472250e-01  2.1216554664577730e-01  2.1180410095302202e-01  2.1145351186046646e-01  2.1111596443628203e-01  2.1079015105355386e-01  2.1047816710468992e-01  2.1017873593734274e-01  2.0989419100187404e-01  2.0962323516152911e-01  2.0936838155670326e-01  2.0912896426810096e-01  2.0890823287509133e-01  2.0870667756141767e-01  2.0852919094918126e-01  2.0837877924058121e-01  2.0826428952962225e-01  2.0819356430658387e-01  2.0817958910360154e-01  2.0823314855455449e-01  2.0836513979768212e-01  2.0856490622027377e-01  2.0877552522880016e-01  2.0884827273847414e-01  3.3152043925195024e-01  3.3165975129914749e-01  3.3199369819354851e-01  3.3234054430256538e-01  3.3263309899760912e-01  3.3284282940071974e-01  3.3297746725503197e-01  3.3303963520186936e-01  3.3304915372196542e-01  3.3301090697117058e-01  3.3293618939181069e-01  3.3282699542425576e-01  3.3269112850653532e-01  3.3252748794144027e-01  3.3234253806513853e-01  3.3213395193727668e-01  3.3190621639431939e-01  3.3165643119614963e-01  3.3138911169374924e-01  3.3110232670183759e-01  3.3080053820286337e-01  3.3048044893790085e-01  3.3014467864403529e-01  3.2978817886952150e-01  3.2941120719402450e-01  3.2900849528224024e-01  3.2858165527845551e-01  3.2812674469459230e-01  3.2764406476749397e-01  3.2712626356738161e-01  3.2657163852264148e-01  3.2597420790148651e-01  3.2533542331177251e-01  3.2465155970015386e-01  3.2392770073400817e-01  3.2316891926643648e-01  3.2238773575887314e-01  3.2158955884520057e-01  3.2078385716794150e-01  3.1997280892527918e-01  3.1916262044668375e-01  3.1835297517955569e-01  3.1754877401503634e-01  3.1674890478215850e-01  3.1595740084979057e-01  3.1517232086858232e-01  3.1439743124361724e-01  3.1363089831500796e-01  3.1287596091282011e-01  3.1213021967602439e-01  3.1139685763287400e-01  3.1067344449068213e-01  3.0996274896340981e-01  3.0926176627202789e-01  3.0857313375775614e-01  3.0789402492298923e-01  3.0722661636628851e-01  3.0656757919807759e-01  3.0591911520688808e-01  3.0527797408691421e-01  3.0464608019197614e-01  3.0401976514920243e-01  3.0340101176307283e-01  3.0278655284496508e-01  3.0217814942011517e-01  3.0157223701666114e-01  3.0097085253141243e-01  3.0037068349009205e-01  2.9977380834288725e-01  2.9917654498423207e-01  2.9858135564394866e-01  2.9798480459429988e-01  2.9738947808764199e-01  2.9679153486528548e-01  2.9619406142617349e-01  2.9559320858627858e-01  2.9499233471009706e-01  2.9438720471949203e-01  2.9378156890622303e-01  2.9317180812229643e-01  2.9256143158251585e-01  2.9194696651970653e-01  2.9133156415595274e-01  2.9071235940676665e-01  2.9009215234868807e-01  2.8946803232593576e-01  2.8884277258206226e-01  2.8821382482646335e-01  2.8758374507681633e-01  2.8694980513419327e-01  2.8631464020842223e-01  2.8567593605193176e-01  2.8503609578634692e-01  2.8439255286602649e-01  2.8374792585131287e-01  2.8309986542209364e-01  2.8245084906077067e-01  2.8179824159314826e-01  2.8114464086021107e-01  2.8048780020621622e-01  2.7983009961117811e-01  2.7916902995838871e-01  2.7850716167145390e-01  2.7784219675141414e-01  2.7717656680777897e-01  2.7650769306042972e-01  2.7583811805886616e-01  2.7516564462516369e-01  2.7449260298821432e-01  2.7381653918195742e-01  2.7313997172411875e-01  2.7246065657788265e-01  2.7178097666665352e-01  2.7109841272077145e-01  2.7041545835561220e-01  2.6972997391844794e-01  2.6904424631097762e-01  2.6835587847386844e-01  2.6766734699761868e-01  2.6697648555276221e-01  2.6628564930671905e-01  2.6559238143589659e-01  2.6489917213596054e-01  2.6420387616236712e-01  2.6350883037059897e-01  2.6281158173462249e-01  2.6211470423075817e-01  2.6141588448262887e-01  2.6071768028197945e-01  2.6001737311401268e-01  2.5931776217290786e-01  2.5861619244180939e-01  2.5791548213180499e-01  2.5721266675360249e-01  2.5651076873044087e-01  2.5580725868210286e-01  2.5510494556365959e-01  2.5440127996580408e-01  2.5369889539096763e-01  2.5299554200682928e-01  2.5229363724749299e-01  2.5159079743470025e-01  2.5088946303499793e-01  2.5018763540747696e-01  2.4948754361949257e-01  2.4878701978920781e-01  2.4808840621850650e-01  2.4738975432719851e-01  2.4669324938252063e-01  2.4599670803370169e-01  2.4530243221772344e-01  2.4460859466582238e-01  2.4391730112545731e-01  2.4322650388511224e-01  2.4253848671608313e-01  2.4185139560710434e-01  2.4116739040960133e-01  2.4048437778183981e-01  2.3980462117972348e-01  2.3912637016036292e-01  2.3845169967866109e-01  2.3777863952207753e-01  2.3710943620924310e-01  2.3644231579309388e-01  2.3577940382768517e-01  2.3511868551822926e-01  2.3446239110221120e-01  2.3380885946029195e-01  2.3316014376990418e-01  2.3251434324107767e-01  2.3187369316570836e-01  2.3123644367749205e-01  2.3060478641808405e-01  2.2997661286525523e-01  2.2935433228058971e-01  2.2873594653642104e-01  2.2812385936238941e-01  2.2751567177862717e-01  2.2691409217530956e-01  2.2631663600152516e-01  2.2572613496567825e-01  2.2513973706355336e-01  2.2456051582373132e-01  2.2398604185516421e-01  2.2341913445959993e-01  2.2285743202425787e-01  2.2230343285447138e-01  2.2175521141953447e-01  2.2121494565031338e-01  2.2068064726428507e-01  2.2015445046447027e-01  2.1963462661038496e-01  2.1912311663686493e-01  2.1861804326939130e-01  2.1812141027690779e-01  2.1763166522035646e-01  2.1715063069918844e-01  2.1667657560399209e-01  2.1621151624358131e-01  2.1575391631144700e-01  2.1530570948857805e-01  2.1486517790348600e-01  2.1443440029108735e-01  2.1401200950245394e-01  2.1359995756998545e-01  2.1319672415921220e-01  2.1280446443234186e-01  2.1242186146371284e-01  2.1205099313582504e-01  2.1169035123243468e-01  2.1134212828663076e-01  2.1100512338267388e-01  2.1068136703997983e-01  2.1036947290231123e-01  2.1007165964978611e-01  2.0978676664881790e-01  2.0951704756347084e-01  2.0926138141679729e-01  2.0902258779506164e-01  2.0880061461430635e-01  2.0859929520804318e-01  2.0842008360373981e-01  2.0826959621608621e-01  2.0815346685795649e-01  2.0808253111665756e-01  2.0806650532262483e-01  2.0811964242542419e-01  2.0824862095756705e-01  2.0844793390933677e-01  2.0866259396616232e-01  2.0877068070433072e-01  3.3034138255478013e-01  3.3051941784580791e-01  3.3090881214943491e-01  3.3132819980507727e-01  3.3167966382355285e-01  3.3194559081089076e-01  3.3211802228327580e-01  3.3221450110645129e-01  3.3224408982180342e-01  3.3222047071734462e-01  3.3214936338146273e-01  3.3204068762759698e-01  3.3189665784657241e-01  3.3172485009253655e-01  3.3152449515255983e-01  3.3130089688777470e-01  3.3105179728153755e-01  3.3078091623326628e-01  3.3048658218437588e-01  3.3017390208373126e-01  3.2984199187486579e-01  3.2949449752263515e-01  3.2912778801823578e-01  3.2874234490198878e-01  3.2833245524173971e-01  3.2789762276797096e-01  3.2743475727109722e-01  3.2694606784630370e-01  3.2642793833306577e-01  3.2587925385634348e-01  3.2529294313008511e-01  3.2466886076164336e-01  3.2400497568900311e-01  3.2330482600601718e-01  3.2256873031121003e-01  3.2180516947367865e-01  3.2102008777045965e-01  3.2022280158206695e-01  3.1941649412882611e-01  3.1860789717362725e-01  3.1779806074053663e-01  3.1699166499221143e-01  3.1618827429465718e-01  3.1539167502034804e-01  3.1460113601021594e-01  3.1381973377215544e-01  3.1304588135910449e-01  3.1228270634072586e-01  3.1152870212652251e-01  3.1078654322699867e-01  3.1005428861940565e-01  3.0933436907319029e-01  3.0862491853751722e-01  3.0792786892291052e-01  3.0724061598206676e-01  3.0656520174058161e-01  3.0589914472627017e-01  3.0524409418468940e-01  3.0459721240245619e-01  3.0396001175134263e-01  3.0332986492757463e-01  3.0270794172598336e-01  3.0209106930615609e-01  3.0148074904262057e-01  3.0087417564330188e-01  3.0027268531581447e-01  2.9967326536973055e-01  2.9907744767052319e-01  2.9848260851708303e-01  2.9789022283810512e-01  2.9729704475530155e-01  2.9670525058012326e-01  2.9611182253152246e-01  2.9551912058404406e-01  2.9492346797118324e-01  2.9432784279630281e-01  2.9372876142329829e-01  2.9312929068617660e-01  2.9252573226070033e-01  2.9192142393021975e-01  2.9131341714480419e-01  2.9070453610061708e-01  2.9009187215155285e-01  2.8947802203389500e-01  2.8886069780251283e-01  2.8824214227457101e-01  2.8762008351818480e-01  2.8699664863320684e-01  2.8636997480920551e-01  2.8574196305671479e-01  2.8511039965219809e-01  2.8447744537433939e-01  2.8384121476860019e-01  2.8320372678685446e-01  2.8256296002406556e-01  2.8192095240022780e-01  2.8127598645935781e-01  2.8062989219136564e-01  2.7998051634340027e-01  2.7933001265835750e-01  2.7867655075007963e-01  2.7802211818740624e-01  2.7736473513236637e-01  2.7670640540043134e-01  2.7604545226780247e-01  2.7538366649201779e-01  2.7471894205513386e-01  2.7405338676734164e-01  2.7338521277244943e-01  2.7271636535611604e-01  2.7204491238467626e-01  2.7137281578137845e-01  2.7069844308005386e-01  2.7002354700074732e-01  2.6934607550911854e-01  2.6866809596612640e-01  2.6798787247517797e-01  2.6730731062636948e-01  2.6662452781627599e-01  2.6594146453004730e-01  2.6525655976272355e-01  2.6457154011985856e-01  2.6388442397277695e-01  2.6319726920316067e-01  2.6250834550426833e-01  2.6181962801835934e-01  2.6112902642917662e-01  2.6043873889651509e-01  2.5974690270770739e-01  2.5905561106960573e-01  2.5836242602071458e-01  2.5766987511657169e-01  2.5697563390976008e-01  2.5628222388093963e-01  2.5558704260378040e-01  2.5489278782930386e-01  2.5419737461085262e-01  2.5350310156983730e-01  2.5280789778752455e-01  2.5211388273018315e-01  2.5141932889740426e-01  2.5072613637483498e-01  2.5003235785674355e-01  2.4934002124414426e-01  2.4864753523634880e-01  2.4795673466802542e-01  2.4726596503804429e-01  2.4657701287339209e-01  2.4588849937282428e-01  2.4520203682115144e-01  2.4451588226135654e-01  2.4383193612153981e-01  2.4314873897414338e-01  2.4246805504441443e-01  2.4178831121842995e-01  2.4111128551038155e-01  2.4043567038912514e-01  2.3976306175057935e-01  2.3909178838086736e-01  2.3842372520358929e-01  2.3775747919994913e-01  2.3709478609172999e-01  2.3643414250825118e-01  2.3577729849178380e-01  2.3512301805483521e-01  2.3447286590302199e-01  2.3382525019818121e-01  2.3318202191512338e-01  2.3254187956916833e-01  2.3190652919613519e-01  2.3127449130622343e-01  2.3064756194202071e-01  2.3002449221283788e-01  2.2940695637100203e-01  2.2879315403334907e-01  2.2818520896646027e-01  2.2758140044864611e-01  2.2698390511623773e-01  2.2639041799120804e-01  2.2580350575700692e-01  2.2522092612176989e-01  2.2464524483886836e-01  2.2407400716467626e-01  2.2350992105370981e-01  2.2295105097303283e-01  2.2239965692701785e-01  2.2185380706245608e-01  2.2131553752798319e-01  2.2078335291626286e-01  2.2025898538314176e-01  2.1974094462880239e-01  2.1923084486234076e-01  2.1872748242893034e-01  2.1823228978218812e-01  2.1774380065704066e-01  2.1726364526233194e-01  2.1679060459698452e-01  2.1632621304293706e-01  2.1586918281525638e-01  2.1542107771274696e-01  2.1498085786166637e-01  2.1454996271119273e-01  2.1412706357590197e-01  2.1371388702115734e-01  2.1330937806963490e-01  2.1291517523460218e-01  2.1253015946227921e-01  2.1215600422516251e-01  2.1179183034506996e-01  2.1143916717580380e-01  2.1109682208206429e-01  2.1076657549326511e-01  2.1044746975275122e-01  2.1014118135630053e-01  2.0984669879407133e-01  2.0956579239310899e-01  2.0929782854428602e-01  2.0904472385310441e-01  2.0880603140974929e-01  2.0858472225701197e-01  2.0838183371817948e-01  2.0820200619663465e-01  2.0804898871207572e-01  2.0793100606628684e-01  2.0785701354694838e-01  2.0783936565947758e-01  2.0788913047729729e-01  2.0801699983514416e-01  2.0821442711380644e-01  2.0843333853497481e-01  2.0854346178945729e-01  3.2813811685741157e-01  3.2836507725539343e-01  3.2885529556180160e-01  3.2937399714021615e-01  3.2982022672477423e-01  3.3015837656924663e-01  3.3039258986083536e-01  3.3053052653164194e-01  3.3058829273457557e-01  3.3057634342903658e-01  3.3050685197407143e-01  3.3038601047431582e-01  3.3022423118730243e-01  3.3002463576165753e-01  3.2979418107248953e-01  3.2953218927800643e-01  3.2924288822605019e-01  3.2892451716259780e-01  3.2858129999472213e-01  3.2821400944523765e-01  3.2782852416022890e-01  3.2742447675166825e-01  3.2700367499098498e-01  3.2656174976554309e-01  3.2609743181303896e-01  3.2560587962213222e-01  3.2508814277051562e-01  3.2454334649319005e-01  3.2397359134275644e-01  3.2337539731025094e-01  3.2274756468435700e-01  3.2208612398978970e-01  3.2139393679901007e-01  3.2067160278695467e-01  3.1992358371880125e-01  3.1915286217147720e-01  3.1836707976775996e-01  3.1757023644999377e-01  3.1676823460402503e-01  3.1596255462534306e-01  3.1515819151855862e-01  3.1435585068762267e-01  3.1355868918337992e-01  3.1276644144970261e-01  3.1198211683272964e-01  3.1120529285240628e-01  3.1043814833698596e-01  3.0967937095528608e-01  3.0893174134718321e-01  3.0819429682041605e-01  3.0746876408828133e-01  3.0675369026372162e-01  3.0605092324864047e-01  3.0535899396506655e-01  3.0467900209207111e-01  3.0400863943242068e-01  3.0334962743571137e-01  3.0270004285474572e-01  3.0206063687438583e-01  3.0142910546564627e-01  3.0080644244766225e-01  3.0019048627785866e-01  2.9958167634529892e-01  2.9897725230861416e-01  2.9837849966991692e-01  2.9778323157271525e-01  2.9719205620587918e-01  2.9660257086850472e-01  2.9601594466106546e-01  2.9543003887515740e-01  2.9484578902248681e-01  2.9426029494671418e-01  2.9367574786320233e-01  2.9308945305827439e-01  2.9250339431535560e-01  2.9191415060691245e-01  2.9132466619243197e-01  2.9073196401130741e-01  2.9013853710769322e-01  2.8954131339709271e-01  2.8894326523027536e-01  2.8834212533449255e-01  2.8773980920029840e-01  2.8713392446134278e-01  2.8652676304865154e-01  2.8591677661629528e-01  2.8530531491403444e-01  2.8469073220093222e-01  2.8407474151154316e-01  2.8345601838074613e-01  2.8283576939204164e-01  2.8221216174417035e-01  2.8158716683812862e-01  2.8095952509085970e-01  2.8033050251653180e-01  2.7969863625514052e-01  2.7906554566159425e-01  2.7842999286306580e-01  2.7779315520331532e-01  2.7715325655067102e-01  2.7651225383826011e-01  2.7586892046105621e-01  2.7522450117832964e-01  2.7457756746972750e-01  2.7392970852632509e-01  2.7327971739312473e-01  2.7262874295956530e-01  2.7197505089118795e-01  2.7132055604832361e-01  2.7066406472044169e-01  2.7000679309167558e-01  2.6934735257128573e-01  2.6868729713325212e-01  2.6802545618537088e-01  2.6736295307069002e-01  2.6669810461064614e-01  2.6603278930652458e-01  2.6536584566570592e-01  2.6469847176227829e-01  2.6402932987798844e-01  2.6335994425636344e-01  2.6268923454541188e-01  2.6201829537698257e-01  2.6134551759276020e-01  2.6067279587497816e-01  2.5999885144947815e-01  2.5932507809192396e-01  2.5864976436267223e-01  2.5797485094016748e-01  2.5729880473361411e-01  2.5662324064696362e-01  2.5594598912178212e-01  2.5526949169856422e-01  2.5459178288656575e-01  2.5391489180764681e-01  2.5323661421189170e-01  2.52559358265