<?xml version="1.0"?>
<VTKFile type="UnstructuredGrid"  version="0.1"  >
<UnstructuredGrid>
<Piece  NumberOfPoints="7161" NumberOfCells="13800">
<Points>
<DataArray  type="Float64"  NumberOfComponents="3"  format="ascii">0 0 0  0.01652173913043478 0 0  0.03304347826086956 0 0  0.04956521739130434 0 0  0.06608695652173913 0 0  0.08260869565217391 0 0  0.09913043478260869 0 0  0.1156521739130435 0 0  0.1321739130434783 0 0  0.148695652173913 0 0  0.1652173913043478 0 0  0.1817391304347826 0 0  0.1982608695652174 0 0  0.2147826086956522 0 0  0.2313043478260869 0 0  0.2478260869565218 0 0  0.2643478260869565 0 0  0.2808695652173913 0 0  0.2973913043478261 0 0  0.3139130434782609 0 0  0.3304347826086956 0 0  0.3469565217391304 0 0  0.3634782608695652 0 0  0.3799999999999999 0 0  0.3965217391304348 0 0  0.4130434782608696 0 0  0.4295652173913043 0 0  0.4460869565217391 0 0  0.4626086956521739 0 0  0.4791304347826086 0 0  0.4956521739130435 0 0  0.5121739130434783 0 0  0.528695652173913 0 0  0.5452173913043478 0 0  0.5617391304347825 0 0  0.5782608695652174 0 0  0.5947826086956521 0 0  0.6113043478260869 0 0  0.6278260869565218 0 0  0.6443478260869565 0 0  0.6608695652173913 0 0  0.677391304347826 0 0  0.6939130434782609 0 0  0.7104347826086956 0 0  0.7269565217391304 0 0  0.7434782608695653 0 0  0.7599999999999999 0 0  0.7765217391304348 0 0  0.7930434782608695 0 0  0.8095652173913043 0 0  0.8260869565217391 0 0  0.8426086956521739 0 0  0.8591304347826086 0 0  0.8756521739130434 0 0  0.8921739130434783 0 0  0.908695652173913 0 0  0.9252173913043478 0 0  0.9417391304347826 0 0  0.9582608695652173 0 0  0.9747826086956521 0 0  0.991304347826087 0 0  1.007826086956522 0 0  1.024347826086957 0 0  1.040869565217391 0 0  1.057391304347826 0 0  1.073913043478261 0 0  1.090434782608696 0 0  1.10695652173913 0 0  1.123478260869565 0 0  1.14 0 0  1.156521739130435 0 0  1.17304347826087 0 0  1.189565217391304 0 0  1.206086956521739 0 0  1.222608695652174 0 0  1.239130434782609 0 0  1.255652173913044 0 0  1.272173913043478 0 0  1.288695652173913 0 0  1.305217391304348 0 0  1.321739130434783 0 0  1.338260869565217 0 0  1.354782608695652 0 0  1.371304347826087 0 0  1.387826086956522 0 0  1.404347826086957 0 0  1.420869565217391 0 0  1.437391304347826 0 0  1.453913043478261 0 0  1.470434782608696 0 0  1.486956521739131 0 0  1.503478260869565 0 0  1.52 0 0  1.536521739130435 0 0  1.55304347826087 0 0  1.569565217391304 0 0  1.586086956521739 0 0  1.602608695652174 0 0  1.619130434782609 0 0  1.635652173913043 0 0  1.652173913043478 0 0  1.668695652173913 0 0  1.685217391304348 0 0  1.701739130434782 0 0  1.718260869565217 0 0  1.734782608695652 0 0  1.751304347826087 0 0  1.767826086956522 0 0  1.784347826086957 0 0  1.800869565217391 0 0  1.817391304347826 0 0  1.833913043478261 0 0  1.850434782608696 0 0  1.86695652173913 0 0  1.883478260869565 0 0  1.9 0 0  1.916521739130435 0 0  1.933043478260869 0 0  1.949565217391304 0 0  1.966086956521739 0 0  1.982608695652174 0 0  1.999130434782608 0 0  2.015652173913043 0 0  2.032173913043478 0 0  2.048695652173913 0 0  2.065217391304348 0 0  2.081739130434782 0 0  2.098260869565217 0 0  2.114782608695652 0 0  2.131304347826087 0 0  2.147826086956522 0 0  2.164347826086956 0 0  2.180869565217391 0 0  2.197391304347826 0 0  2.213913043478261 0 0  2.230434782608695 0 0  2.24695652173913 0 0  2.263478260869565 0 0  2.28 0 0  2.296521739130434 0 0  2.31304347826087 0 0  2.329565217391304 0 0  2.346086956521739 0 0  2.362608695652174 0 0  2.379130434782609 0 0  2.395652173913044 0 0  2.412173913043478 0 0  2.428695652173913 0 0  2.445217391304348 0 0  2.461739130434782 0 0  2.478260869565217 0 0  2.494782608695652 0 0  2.511304347826087 0 0  2.527826086956522 0 0  2.544347826086956 0 0  2.560869565217391 0 0  2.577391304347826 0 0  2.593913043478261 0 0  2.610434782608696 0 0  2.62695652173913 0 0  2.643478260869565 0 0  2.66 0 0  2.676521739130435 0 0  2.693043478260869 0 0  2.709565217391304 0 0  2.726086956521739 0 0  2.742608695652174 0 0  2.759130434782609 0 0  2.775652173913044 0 0  2.792173913043478 0 0  2.808695652173913 0 0  2.825217391304347 0 0  2.841739130434783 0 0  2.858260869565217 0 0  2.874782608695652 0 0  2.891304347826087 0 0  2.907826086956522 0 0  2.924347826086957 0 0  2.940869565217391 0 0  2.957391304347826 0 0  2.973913043478261 0 0  2.990434782608696 0 0  3.006956521739131 0 0  3.023478260869565 0 0  3.04 0 0  3.056521739130435 0 0  3.073043478260869 0 0  3.089565217391304 0 0  3.106086956521739 0 0  3.122608695652174 0 0  3.139130434782609 0 0  3.155652173913043 0 0  3.172173913043478 0 0  3.188695652173913 0 0  3.205217391304347 0 0  3.221739130434782 0 0  3.238260869565217 0 0  3.254782608695652 0 0  3.271304347826087 0 0  3.287826086956521 0 0  3.304347826086957 0 0  3.320869565217391 0 0  3.337391304347826 0 0  3.353913043478261 0 0  3.370434782608696 0 0  3.386956521739131 0 0  3.403478260869565 0 0  3.419999999999999 0 0  3.436521739130435 0 0  3.453043478260869 0 0  3.469565217391304 0 0  3.486086956521739 0 0  3.502608695652174 0 0  3.519130434782609 0 0  3.535652173913043 0 0  3.552173913043478 0 0  3.568695652173913 0 0  3.585217391304347 0 0  3.601739130434782 0 0  3.618260869565217 0 0  3.634782608695652 0 0  3.651304347826087 0 0  3.667826086956521 0 0  3.684347826086956 0 0  3.700869565217391 0 0  3.717391304347826 0 0  3.733913043478261 0 0  3.750434782608695 0 0  3.766956521739131 0 0  3.783478260869565 0 0  3.8 0 0  0 0.01666666666666667 0  0.01652173913043478 0.01666666666666667 0  0.03304347826086956 0.01666666666666667 0  0.04956521739130434 0.01666666666666667 0  0.06608695652173913 0.01666666666666667 0  0.08260869565217391 0.01666666666666667 0  0.09913043478260869 0.01666666666666667 0  0.1156521739130435 0.01666666666666667 0  0.1321739130434783 0.01666666666666667 0  0.148695652173913 0.01666666666666667 0  0.1652173913043478 0.01666666666666667 0  0.1817391304347826 0.01666666666666667 0  0.1982608695652174 0.01666666666666667 0  0.2147826086956522 0.01666666666666667 0  0.2313043478260869 0.01666666666666667 0  0.2478260869565218 0.01666666666666667 0  0.2643478260869565 0.01666666666666667 0  0.2808695652173913 0.01666666666666667 0  0.2973913043478261 0.01666666666666667 0  0.3139130434782609 0.01666666666666667 0  0.3304347826086956 0.01666666666666667 0  0.3469565217391304 0.01666666666666667 0  0.3634782608695652 0.01666666666666667 0  0.3799999999999999 0.01666666666666667 0  0.3965217391304348 0.01666666666666667 0  0.4130434782608696 0.01666666666666667 0  0.4295652173913043 0.01666666666666667 0  0.4460869565217391 0.01666666666666667 0  0.4626086956521739 0.01666666666666667 0  0.4791304347826086 0.01666666666666667 0  0.4956521739130435 0.01666666666666667 0  0.5121739130434783 0.01666666666666667 0  0.528695652173913 0.01666666666666667 0  0.5452173913043478 0.01666666666666667 0  0.5617391304347825 0.01666666666666667 0  0.5782608695652174 0.01666666666666667 0  0.5947826086956521 0.01666666666666667 0  0.6113043478260869 0.01666666666666667 0  0.6278260869565218 0.01666666666666667 0  0.6443478260869565 0.01666666666666667 0  0.6608695652173913 0.01666666666666667 0  0.677391304347826 0.01666666666666667 0  0.6939130434782609 0.01666666666666667 0  0.7104347826086956 0.01666666666666667 0  0.7269565217391304 0.01666666666666667 0  0.7434782608695653 0.01666666666666667 0  0.7599999999999999 0.01666666666666667 0  0.7765217391304348 0.01666666666666667 0  0.7930434782608695 0.01666666666666667 0  0.8095652173913043 0.01666666666666667 0  0.8260869565217391 0.01666666666666667 0  0.8426086956521739 0.01666666666666667 0  0.8591304347826086 0.01666666666666667 0  0.8756521739130434 0.01666666666666667 0  0.8921739130434783 0.01666666666666667 0  0.908695652173913 0.01666666666666667 0  0.9252173913043478 0.01666666666666667 0  0.9417391304347826 0.01666666666666667 0  0.9582608695652173 0.01666666666666667 0  0.9747826086956521 0.01666666666666667 0  0.991304347826087 0.01666666666666667 0  1.007826086956522 0.01666666666666667 0  1.024347826086957 0.01666666666666667 0  1.040869565217391 0.01666666666666667 0  1.057391304347826 0.01666666666666667 0  1.073913043478261 0.01666666666666667 0  1.090434782608696 0.01666666666666667 0  1.10695652173913 0.01666666666666667 0  1.123478260869565 0.01666666666666667 0  1.14 0.01666666666666667 0  1.156521739130435 0.01666666666666667 0  1.17304347826087 0.01666666666666667 0  1.189565217391304 0.01666666666666667 0  1.206086956521739 0.01666666666666667 0  1.222608695652174 0.01666666666666667 0  1.239130434782609 0.01666666666666667 0  1.255652173913044 0.01666666666666667 0  1.272173913043478 0.01666666666666667 0  1.288695652173913 0.01666666666666667 0  1.305217391304348 0.01666666666666667 0  1.321739130434783 0.01666666666666667 0  1.338260869565217 0.01666666666666667 0  1.354782608695652 0.01666666666666667 0  1.371304347826087 0.01666666666666667 0  1.387826086956522 0.01666666666666667 0  1.404347826086957 0.01666666666666667 0  1.420869565217391 0.01666666666666667 0  1.437391304347826 0.01666666666666667 0  1.453913043478261 0.01666666666666667 0  1.470434782608696 0.01666666666666667 0  1.486956521739131 0.01666666666666667 0  1.503478260869565 0.01666666666666667 0  1.52 0.01666666666666667 0  1.536521739130435 0.01666666666666667 0  1.55304347826087 0.01666666666666667 0  1.569565217391304 0.01666666666666667 0  1.586086956521739 0.01666666666666667 0  1.602608695652174 0.01666666666666667 0  1.619130434782609 0.01666666666666667 0  1.635652173913043 0.01666666666666667 0  1.652173913043478 0.01666666666666667 0  1.668695652173913 0.01666666666666667 0  1.685217391304348 0.01666666666666667 0  1.701739130434782 0.01666666666666667 0  1.718260869565217 0.01666666666666667 0  1.734782608695652 0.01666666666666667 0  1.751304347826087 0.01666666666666667 0  1.767826086956522 0.01666666666666667 0  1.784347826086957 0.01666666666666667 0  1.800869565217391 0.0166666666666666
[...]
<PointData  Scalars="rho_bar"> 
<DataArray  type="Float64"  Name="rho_bar"  format="ascii">9.0517045360276860e-01  9.0270016153438315e-01  9.0069602674681559e-01  8.9823716416683452e-01  8.9488584036266750e-01  8.9036300496669485e-01  8.8448830072381568e-01  8.7721488682091087e-01  8.6874287244553583e-01  8.5965986589684373e-01  8.5091045929324194e-01  8.4349355569801310e-01  8.3815424425174667e-01  8.3530306788685116e-01  8.3507319091926169e-01  8.3736149289948436e-01  8.4178763492318409e-01  8.4763198495830638e-01  8.5389049857762234e-01  8.5948676253065226e-01  8.6350171437845535e-01  8.6529205747168414e-01  8.6447748695624371e-01  8.6076236690981311e-01  8.5386585901855649e-01  8.4375273348519042e-01  8.3089000671583602e-01  8.1630015333318640e-01  8.0160281495678398e-01  7.8837458870342880e-01  7.7774002909179796e-01  7.7008469546856007e-01  7.6511031669176677e-01  7.6238016398598729e-01  7.6145111561793921e-01  7.6192660545220225e-01  7.6336678361906285e-01  7.6511916903165245e-01  7.6646267068569107e-01  7.6694970440602506e-01  7.6648153306949751e-01  7.6520430356060676e-01  7.6335988748809702e-01  7.6117965488294426e-01  7.5883879363036044e-01  7.5646414114224714e-01  7.5418100231123131e-01  7.5213528906169480e-01  7.5041896521838936e-01  7.4897550055370810e-01  7.4760492964876835e-01  7.4611303235053195e-01  7.4457085452291516e-01  7.4331292022643591e-01  7.4260101017708602e-01  7.4240831619051784e-01  7.4255695837683722e-01  7.4295933315550255e-01  7.4373331341763527e-01  7.4502564532582161e-01  7.4670628228043145e-01  7.4835092348296972e-01  7.4949093791748023e-01  7.4992550918718337e-01  7.4997015885597385e-01  7.5024447911352032e-01  7.5115259829835357e-01  7.5272197694531451e-01  7.5469435033003485e-01  7.5662954588613707e-01  7.5796407679222888e-01  7.5820188639989516e-01  7.5728138102743392e-01  7.5575315774160579e-01  7.5436298381551248e-01  7.5348129760023863e-01  7.5301820654811114e-01  7.5261852071274604e-01  7.5191641102658435e-01  7.5060641281375340e-01  7.4845533466492697e-01  7.4549583723484902e-01  7.4227605023355436e-01  7.3982783274001185e-01  7.3938409627319002e-01  7.4197500880923650e-01  7.4811609438266968e-01  7.5767764948749972e-01  7.6970610952142515e-01  7.8232595194692423e-01  7.9335906468510697e-01  8.0114378624874905e-01  8.0477937165602276e-01  8.0411839131817375e-01  7.9954343819172635e-01  7.9162602912850866e-01  7.8106255753618081e-01  7.6873485614973347e-01  7.5577535362394466e-01  7.4351603094015151e-01  7.3317595738162589e-01  7.2542619231439209e-01  7.2017731905330162e-01  7.1668590557735778e-01  7.1382044756828744e-01  7.1028811571391248e-01  7.0487538861355992e-01  6.9674470043914849e-01  6.8563648954673129e-01  6.7213629858630530e-01  6.5778669634176690e-01  6.4455800497734972e-01  6.3417273743772629e-01  6.2771236363187788e-01  6.2537140228697863e-01  6.2644166937188450e-01  6.2942692574728720e-01  6.3258607372241271e-01  6.3470427070855207e-01  6.3529350234850224e-01  6.3432326953488505e-01  6.3211417003952086e-01  6.2942614583060963e-01  6.2715656786304586e-01  6.2581812208523002e-01  6.2562116746737151e-01  6.2660971922145525e-01  6.2852514230313394e-01  6.3056800782707023e-01  6.3185184973162123e-01  6.3221213409098498e-01  6.3185923527294041e-01  6.3072553819697075e-01  6.2868178666689467e-01  6.2602616735246397e-01  6.2332267926859530e-01  6.2079709580734033e-01  6.1845427869418179e-01  6.1628307637280311e-01  6.1412437571925105e-01  6.1162804383037561e-01  6.0867307320916919e-01  6.0552845279267253e-01  6.0252463980779791e-01  5.9971638780850456e-01  5.9710144045361901e-01  5.9471740810039664e-01  5.9251702225234648e-01  5.9044346830813821e-01  5.8842373791695490e-01  5.8622250591729663e-01  5.8339474926538193e-01  5.7984796044270925e-01  5.7619067991144679e-01  5.7279302023467460e-01  5.6937843295607204e-01  5.6545830839268918e-01  5.6106131260948822e-01  5.5653419678970883e-01  5.5207110595951225e-01  5.4774779718629718e-01  5.4360356290437428e-01  5.3965027883447214e-01  5.3587097386445903e-01  5.3223997232403519e-01  5.2875053351777768e-01  5.2543489411298816e-01  5.2236069765275894e-01  5.1961792408156249e-01  5.1730042007555621e-01  5.1549401847253995e-01  5.1426370487622719e-01  5.1361902937773252e-01  5.1346421804669318e-01  5.1357255727666651e-01  5.1360325660032313e-01  5.1317689422537183e-01  5.1155203569460117e-01  5.0717280490227445e-01  4.9912229639232447e-01  4.8970652867170739e-01  4.8275415654719583e-01  4.7855276574394234e-01  4.7485014905697975e-01  4.6971618621978867e-01  4.6143807984818680e-01  4.4902591253254531e-01  4.3317864877682527e-01  4.1309391304526411e-01  3.8754840974301596e-01  3.5571334061635096e-01  3.1611161443156877e-01  2.6958719408391485e-01  2.2201857116207466e-01  1.7913386510165541e-01  1.4288814840811284e-01  1.1290154693875043e-01  8.8379315648015447e-02  6.8641293284988483e-02  5.2992105678150887e-02  4.0723015101699553e-02  3.1176195415546743e-02  2.3787064038483675e-02  1.8093384424130242e-02  1.3724824141430395e-02  1.0386828697841280e-02  7.8458688380427990e-03  5.9176755348021850e-03  4.4579394550929271e-03  3.3546810795175618e-03  2.5217871527686338e-03  1.8935328056883644e-03  1.4200177434855147e-03  1.0634595712496878e-03  7.9528087803223729e-04  5.9385483086400531e-04  4.4280656256225629e-04  3.2972835375872956e-04  2.4522361982576930e-04  1.8218069804834791e-04  1.3522966889281446e-04  1.0032525356085170e-04  7.4431247888055060e-05  5.5277097744313931e-05  4.1174341411000913e-05  3.0875708578330510e-05  2.3470922010759219e-05  1.8308760491498088e-05  1.4945221335702189e-05  1.3117304838153828e-05  1.2776117491548303e-05  8.9062441342858756e-01  8.8949004160677159e-01  8.8771999412175839e-01  8.8514920549921605e-01  8.8148379546128430e-01  8.7645015785475333e-01  8.6984088942366788e-01  8.6157129220517736e-01  8.5182997838963392e-01  8.4130002223184586e-01  8.3115187681450298e-01  8.2260961066858074e-01  8.1652678280011137e-01  8.1333467905991996e-01  8.1316424389923714e-01  8.1591785137371853e-01  8.2120345556578889e-01  8.2821821797132422e-01  8.3579575782304971e-01  8.4270074867605038e-01  8.4794792152748932e-01  8.5088702048243803e-01  8.5112510741276581e-01  8.4835138788570197e-01  8.4219344320363154e-01  8.3238184425747075e-01  8.1915400596269650e-01  8.0342113216453137e-01  7.8683028496313812e-01  7.7119188042333875e-01  7.5803548704539403e-01  7.4811154289763937e-01  7.4123741000951604e-01  7.3705140501592681e-01  7.3514001206710133e-01  7.3508010830259185e-01  7.3637368206312870e-01  7.3819967738056957e-01  7.3960332704338838e-01  7.4002671784330898e-01  7.3936587848859314e-01  7.3781125032468398e-01  7.3565136088388905e-01  7.3314828832309986e-01  7.3048796811519123e-01  7.2779251434598324e-01  7.2518660142101155e-01  7.2284627353395114e-01  7.2089994897228427e-01  7.1928999970973706e-01  7.1776366466945452e-01  7.1603182746217053e-01  7.1416285206791552e-01  7.1262531787355843e-01  7.1178633352707710e-01  7.1158696111738717e-01  7.1176024467439059e-01  7.1216605110666409e-01  7.1297376820010305e-01  7.1443705968338056e-01  7.1642813145328521e-01  7.1841088004393527e-01  7.1977855569847493e-01  7.2022442030553990e-01  7.2013703702293097e-01  7.2035258856610307e-01  7.2136855459014504e-01  7.2318676084350009e-01  7.2548775354255624e-01  7.2777190911937073e-01  7.2937120708565639e-01  7.2963441527371142e-01  7.2842608165663525e-01  7.2646500453455531e-01  7.2475832176030763e-01  7.2375780341780582e-01  7.2332102242969609e-01  7.2298876213771623e-01  7.2234062178203162e-01  7.2104848703156554e-01  7.1881269442545015e-01  7.1559620153438164e-01  7.1200305610421899e-01  7.0923627095782971e-01  7.0874857054607487e-01  7.1174587811769319e-01  7.1879478106059513e-01  7.2973497153022859e-01  7.4353593670326434e-01  7.5800732302921137e-01  7.7055986283675160e-01  7.7930826480714566e-01  7.8323048626929126e-01  7.8220319592772680e-01  7.7675901068731079e-01  7.6758347152876738e-01  7.5547839130646466e-01  7.4144867468062137e-01  7.2678322824812380e-01  7.1304009311494454e-01  7.0168826317166599e-01  6.9356227089687805e-01  6.8861003112075625e-01  6.8600455714067754e-01  6.8442416554612118e-01  6.8229443105853926e-01  6.7806356054031303e-01  6.7057201690075074e-01  6.5931173374488539e-01  6.4475907531207133e-01  6.2862977622013094e-01  6.1323890368606448e-01  6.0065821667459618e-01  5.9229717827048745e-01  5.8857964693390241e-01  5.8889269891820317e-01  5.9159952763878643e-01  5.9467122255229221e-01  5.9668959628412155e-01  5.9713543693248028e-01  5.9598228530072217e-01  5.9351591101154799e-01  5.9053435833443280e-01  5.8808530020025851e-01  5.8670302814532993e-01  5.8657273961949763e-01  5.8775745380116939e-01  5.9007132012406849e-01  5.9264725443050181e-01  5.9433149758941994e-01  5.9492650927303203e-01  5.9479617668490736e-01  5.9386481627757104e-01  5.9187591313536703e-01  5.8911210344102760e-01  5.8630323112457572e-01  5.8370162798360958e-01  5.8126453249307453e-01  5.7899239579228789e-01  5.7675629937164263e-01  5.7411115822930248e-01  5.7089059010026688e-01  5.6748487257036639e-01  5.6437836615011849e-01  5.6157742373009967e-01  5.5900782359398782e-01  5.5671378511077563e-01  5.5462099031098233e-01  5.5265643146090326e-01  5.5077021716461161e-01  5.4877473730032544e-01  5.4615757893835870e-01  5.4265338337162372e-01  5.3898381069427526e-01  5.3560606222174978e-01  5.3218000788085518e-01  5.2803348278784723e-01  5.2320734010659720e-01  5.1820879130091924e-01  5.1329376495713730e-01  5.0855149327942539e-01  5.0402225606127804e-01  4.9971413031700584e-01  4.9560844041407254e-01  4.9167938520107468e-01  4.8792106366425508e-01  4.8436951149641633e-01  4.8109619964058598e-01  4.7819380072703743e-01  4.7575655393169608e-01  4.7386927144289148e-01  4.7260157949322196e-01  4.7197879958749578e-01  4.7193062345321035e-01  4.7227428732541810e-01  4.7271884806696324e-01  4.7288927279370419e-01  4.7212913696102993e-01  4.6901018760882185e-01  4.6254114079808395e-01  4.5460555944270531e-01  4.4923699579582571e-01  4.4721499661476449e-01  4.4616054770339542e-01  4.4413443355825527e-01  4.3962087503973157e-01  4.3148190337954534e-01  4.1976353058327409e-01  4.0401474198229925e-01  3.8320253943514743e-01  3.5650839842158083e-01  3.2227661452536638e-01  2.8020711581426871e-01  2.3441347184194314e-01  1.9117026818788757e-01  1.5361048175202974e-01  1.2188747006145728e-01  9.5557284683971927e-02  7.4219656622413407e-02  5.7269546214398032e-02  4.3981519835945948e-02  3.3648707541072582e-02  2.5657452319713510e-02  1.9505184489972929e-02  1.4789434232771667e-02  1.1189863431629405e-02  8.4523043629908014e-03  6.3762965462926475e-03  4.8051563233727371e-03  3.6176516481940834e-03  2.7208519843250709e-03  2.0440267750277182e-03  1.5335766535374397e-03  1.1489613850657119e-03  8.5951148768211982e-04  6.4200479209452685e-04  4.7883361733571501e-04  3.5664328333586044e-04  2.6530483290315482e-04  1.9714850656099182e-04  1.4637695903705367e-04  1.0862279723850970e-04  8.0606340459795942e-05  5.9876008088946560e-05  4.4607884629116611e-05  3.3455479018571917e-05  2.5435060803962664e-05  1.9842547601221476e-05  1.6191855636796659e-05  1.4171593736849838e-05  1.3598317287259824e-05  8.4694598242801000e-01  8.4608342265255554e-01  8.4428275880571446e-01  8.4122183288324071e-01  8.3654385385110952e-01  8.2988729677820217e-01  8.2094010357889380e-01  8.0947483395123365e-01  7.9557862786864109e-01  7.8020810949885411e-01  7.6536713714376503e-01  7.5311122872805714e-01  7.4461776852761574e-01  7.4031919500529497e-01  7.4030770648363908e-01  7.4452432308989580e-01  7.5259717448964070e-01  7.6348730308008328e-01  7.7546756720527921e-01  7.8671615229234559e-01  7.9601446322288782e-01  8.0276164810921313e-01  8.0656034626231687e-01  8.0707196302586048e-01  8.0371541371068500e-01  7.9563198196564466e-01  7.8226604146455503e-01  7.6406791870226054e-01  7.4262506470861900e-01  7.2010569320216011e-01  6.9909423554563088e-01  6.8172722191420820e-01  6.6845271028234621e-01  6.5919631371892673e-01  6.5364918038027175e-01  6.5134561586598061e-01  6.5170195352100690e-01  6.5343204608651451e-01  6.5478363496644809e-01  6.5484189248523972e-01  6.5348525158376680e-01  6.5103366109623106e-01  6.4790532564137104e-01  6.4444078680270700e-01  6.4084795763819435e-01  6.3722242056356415e-01  6.3366639296574401e-01  6.3043761771354156e-01  6.2778360537911593e-01  6.2564941308159139e-01  6.2365750533901321e-01  6.2120055411893238e-01  6.1828593661836762e-01  6.1582274408549353e-01  6.1455399825660983e-01  6.1431305217863807e-01  6.1454683926405729e-01  6.1492475754704246e-01  6.1575454535242491e-01  6.1766462701013169e-01  6.2056552429870682e-01  6.2357186576622969e-01  6.2567759017142099e-01  6.2619922682859885e-01  6.2568555777840618e-01  6.2571311685979236e-01  6.2705935312350591e-01  6.2961343185849827e-01  6.3285795722434590e-01  6.3615015245418505e-01  6.3855182024922863e-01  6.3893067171553108e-01  6.3683213247269010e-01  6.3347081464046928e-01  6.3076123758228397e-01  6.2938953594701064e-01  6.2904474179380054e-01  6.2893969775659886e-01  6.2850775544813986e-01  6.2740480977258628e-01  6.2515705212743478e-01  6.2146576197254244e-01  6.1707889312461128e-01  6.1367589810948164e-01  6.1331216291414714e-01  6.1766231891738665e-01  6.2745162264164411e-01  6.4241299031527854e-01  6.6140496054741071e-01  6.8137844858468954e-01  6.9839066170438979e-01  7.0995832386568902e-01  7.1465454801269590e-01  7.1234588611572658e-01  7.0408409255129822e-01  6.9092640152376872e-01  6.7405311630375542e-01  6.5493257835476582e-01  6.3535596700547015e-01  6.1751863919408068e-01  6.0356182773799827e-01  5.9469062109769677e-01  5.9092470537566200e-01  5.9125310732997260e-01  5.9390870393616657e-01  5.9656918169625361e-01  5.9665636162428104e-01  5.9198227328603570e-01  5.8133829424882022e-01  5.6494292917511724e-01  5.4495954872196350e-01  5.2456141483767571e-01  5.0652844399234431e-01  4.9297003908034343e-01  4.8491651335035268e-01  4.8213308571797941e-01  4.8291409846031758e-01  4.8481537645154998e-01  4.8598421982562945e-01  4.8576782477879327e-01  4.8412474355353480e-01  4.8126615210792661e-01  4.7788955491636620e-01  4.7526086040246668e-01  4.7396605073433568e-01  4.7412317287534533e-01  4.7580202422048790e-01  4.7894853632748552e-01  4.8278918190048109e-01  4.8571784623201003e-01  4.8726869379918264e-01  4.8804574356583291e-01  4.8801626179409535e-01  4.8671236406904522e-01  4.8420687976068000e-01  4.8149933682916690e-01  4.7895976973204540e-01  4.7649127985505985e-01  4.7407072101869113e-01  4.7169378335807916e-01  4.6877629384526476e-01  4.6500059719866088e-01  4.6105012508748294e-01  4.5792293359053415e-01  4.5552402201949410e-01  4.5349915203892338e-01  4.5184766672463145e-01  4.5044142155242373e-01  4.4912622700986837e-01  4.4785731810302604e-01  4.4651240282599181e-01  4.4472164819396881e-01  4.4183087443531271e-01  4.3858171568392756e-01  4.3552196362777862e-01  4.3231290264779043e-01  4.2801302232026828e-01  4.2255165672181311e-01  4.1669276967163632e-01  4.1083860111637838e-01  4.0514640115808637e-01  3.9970311184117685e-01  3.9453594120214164e-01  3.8964081275993134e-01  3.8501207826413369e-01  3.8065835916951934e-01  3.7662727728453477e-01  3.7299147452963910e-01  3.6983598690817743e-01  3.6723951244181979e-01  3.6526948662734765e-01  3.6398524530674858e-01  3.6343293555555406e-01  3.6359663931504976e-01  3.6440046447557012e-01  3.6572369821491213e-01  3.6736280659502007e-01  3.6878683874474744e-01  3.6881834625805349e-01  3.6658923391604481e-01  3.6362548384142995e-01  3.6330253220011849e-01  3.6694419328330002e-01  3.7257648904051627e-01  3.7835137002077890e-01  3.8273541414356771e-01  3.8427085945621309e-01  3.8237988915772925e-01  3.7692984321602485e-01  3.6777090695588632e-01  3.5427089779345206e-01  3.3411129439087861e-01  3.0494381026525380e-01  2.6746067755474151e-01  2.2623179516096253e-01  1.8648250056137702e-01  1.5023962966995619e-01  1.1854445586655402e-01  9.2238088389940798e-02  7.1161889910041506e-02  5.4601265418139679e-02  4.1723151266609436e-02  3.1772210338660942e-02  2.4123878461947412e-02  1.8274804199005363e-02  1.3821371966745087e-02  1.0441900050146381e-02  7.8828703708857147e-03  5.9471920038332059e-03  4.4835667260976928e-03  3.3769693545186350e-03  2.5404544402235041e-03  1.9084332145133441e-03  1.4313792151274013e-03  1.0718037646326199e-03  8.0124673925037687e-04  5.9806317864923974e-04  4.4577572548431778e-04  3.3185406142709694e-04  2.4678430687888418e-04  1.8336693041519686e-04  1.3617027548748064e-04  1.0111508591632933e-04  7.5150125283568727e-05  5.6006404504305342e-05  4.2007343155911048e-05  3.1928233916511828e-05  2.4890143714189618e-05  2.0284095998464421e-05  1.7714964112927263e-05  1.6960777370109819e-05  7.5790448852483328e-01  7.5748165555567526e-01  7.5565972815568061e-01  7.5175603910976663e-01  7.4532442168027513e-01  7.3582493703216312e-01  7.2279848528305324e-01  7.0579061709665947e-01  6.8461919404165361e-01  6.6067514544402950e-01  6.3774364354114887e-01  6.1952962842697701e-01  6.0747226803801579e-01  6.0167210856900000e-01  6.0200155515836162e-01  6.0850821481296169e-01  6.2108668591331362e-01  6.3856073351342379e-01  6.5830244861980347e-01  6.7732651638646024e-01  6.9395571885981699e-01  7.0786513243802707e-01  7.1869709259800285e-01  7.2616531482653290e-01  7.2948547678973741e-01  7.2692898436803355e-01  7.1668633655513347e-01  6.9795086749315238e-01  6.7176650821513162e-01  6.4021662208684493e-01  6.0725171091360663e-01  5.7760975080537047e-01  5.5355925648252646e-01  5.3552868225474415e-01  5.2322204672369765e-01  5.1596734100700525e-01  5.1302180361045724e-01  5.1290408026327938e-01  5.1295195992685849e-01  5.1171667024599810e-01  5.0897375448517490e-01  5.0512247523419918e-01  5.0067670261141295e-01  4.9602447627302748e-01  4.9137427516640786e-01  4.8678198336264067e-01  4.8228178599153004e-01  4.7812239562196440e-01  4.7467646938324742e-01  4.7188581416165948e-01  4.6937992726115141e-01  4.6632259675569177e-01  4.6245914811891070e-01  4.5896381564427335e-01  4.5707983491473386e-01  4.5665180620635110e-01  4.5689155115216112e-01  4.5724225031747856e-01  4.5795205717980747e-01  4.5999352720532283e-01  4.6350937274629184e-01  4.6736801643561987e-01  4.7026389731845397e-01  4.7117718664465402e-01  4.7038330947529683e-01  4.7017374126975325e-01  4.7172165475755845e-01  4.7483636485886460e-01  4.7878457535924412e-01  4.8282949409493742e-01  4.8592993985635197e-01  4.8661374816771408e-01  4.8397112113900187e-01  4.7928515014154827e-01  4.7552018305362059e-01  4.7371858422641833e-01  4.7350200422644778e-01  4.7379359535046489e-01  4.7388214685386670e-01  4.7346183786505674e-01  4.7209960464351775e-01  4.6918125626610313e-01  4.6544890699369323e-01  4.6283827726944682e-01  4.6379390887668875e-01  4.7029727410732658e-01  4.8329277277413252e-01  5.0247480760843888e-01  5.2681003633646450e-01  5.5306883397185969e-01  5.7554269516201362e-01  5.9066450621623534e-01  5.9627040394636110e-01  5.9167748414705534e-01  5.7871506219835311e-01  5.5939078240708084e-01  5.3589051608113936e-01  5.1068688451475064e-01  4.8626635368955912e-01  4.6515133807888048e-01  4.4976939751381279e-01  4.4138520489424948e-01  4.4006081650082057e-01  4.4490441387548230e-01  4.5414427259347617e-01  4.6491819836598758e-01  4.7320093959474541e-01  4.7487764689327228e-01  4.6756958713934488e-01  4.5143737000467493e-01  4.2937006832661884e-01  4.0544651081682681e-01  3.8308860432656650e-01  3.6459695860960195e-01  3.5138292845457664e-01  3.4366792523808531e-01  3.4011795550269786e-01  3.3865957096334520e-01  3.3755646980739384e-01  3.3599040768294269e-01  3.3378862858848601e-01  3.3106765200321148e-01  3.2826946494812548e-01  3.2623496898725191e-01  3.2551181681231650e-01  3.2622200003606711e-01  3.2839547320575396e-01  3.3196990261642101e-01  3.3643148152495200e-01  3.4058158194441118e-01  3.4373648055868805e-01  3.4608314064667201e-01  3.4760755118679998e-01  3.4791582909521079e-01  3.4691532384686957e-01  3.4521352353937157e-01  3.43271550062