<?xml version="1.0"?>
<VTKFile type="UnstructuredGrid"  version="0.1"  >
<UnstructuredGrid>
<Piece  NumberOfPoints="7161" NumberOfCells="13800">
<Points>
<DataArray  type="Float64"  NumberOfComponents="3"  format="ascii">0 0 0  0.01652173913043478 0 0  0.03304347826086956 0 0  0.04956521739130434 0 0  0.06608695652173913 0 0  0.08260869565217391 0 0  0.09913043478260869 0 0  0.1156521739130435 0 0  0.1321739130434783 0 0  0.148695652173913 0 0  0.1652173913043478 0 0  0.1817391304347826 0 0  0.1982608695652174 0 0  0.2147826086956522 0 0  0.2313043478260869 0 0  0.2478260869565218 0 0  0.2643478260869565 0 0  0.2808695652173913 0 0  0.2973913043478261 0 0  0.3139130434782609 0 0  0.3304347826086956 0 0  0.3469565217391304 0 0  0.3634782608695652 0 0  0.3799999999999999 0 0  0.3965217391304348 0 0  0.4130434782608696 0 0  0.4295652173913043 0 0  0.4460869565217391 0 0  0.4626086956521739 0 0  0.4791304347826086 0 0  0.4956521739130435 0 0  0.5121739130434783 0 0  0.528695652173913 0 0  0.5452173913043478 0 0  0.5617391304347825 0 0  0.5782608695652174 0 0  0.5947826086956521 0 0  0.6113043478260869 0 0  0.6278260869565218 0 0  0.6443478260869565 0 0  0.6608695652173913 0 0  0.677391304347826 0 0  0.6939130434782609 0 0  0.7104347826086956 0 0  0.7269565217391304 0 0  0.7434782608695653 0 0  0.7599999999999999 0 0  0.7765217391304348 0 0  0.7930434782608695 0 0  0.8095652173913043 0 0  0.8260869565217391 0 0  0.8426086956521739 0 0  0.8591304347826086 0 0  0.8756521739130434 0 0  0.8921739130434783 0 0  0.908695652173913 0 0  0.9252173913043478 0 0  0.9417391304347826 0 0  0.9582608695652173 0 0  0.9747826086956521 0 0  0.991304347826087 0 0  1.007826086956522 0 0  1.024347826086957 0 0  1.040869565217391 0 0  1.057391304347826 0 0  1.073913043478261 0 0  1.090434782608696 0 0  1.10695652173913 0 0  1.123478260869565 0 0  1.14 0 0  1.156521739130435 0 0  1.17304347826087 0 0  1.189565217391304 0 0  1.206086956521739 0 0  1.222608695652174 0 0  1.239130434782609 0 0  1.255652173913044 0 0  1.272173913043478 0 0  1.288695652173913 0 0  1.305217391304348 0 0  1.321739130434783 0 0  1.338260869565217 0 0  1.354782608695652 0 0  1.371304347826087 0 0  1.387826086956522 0 0  1.404347826086957 0 0  1.420869565217391 0 0  1.437391304347826 0 0  1.453913043478261 0 0  1.470434782608696 0 0  1.486956521739131 0 0  1.503478260869565 0 0  1.52 0 0  1.536521739130435 0 0  1.55304347826087 0 0  1.569565217391304 0 0  1.586086956521739 0 0  1.602608695652174 0 0  1.619130434782609 0 0  1.635652173913043 0 0  1.652173913043478 0 0  1.668695652173913 0 0  1.685217391304348 0 0  1.701739130434782 0 0  1.718260869565217 0 0  1.734782608695652 0 0  1.751304347826087 0 0  1.767826086956522 0 0  1.784347826086957 0 0  1.800869565217391 0 0  1.817391304347826 0 0  1.833913043478261 0 0  1.850434782608696 0 0  1.86695652173913 0 0  1.883478260869565 0 0  1.9 0 0  1.916521739130435 0 0  1.933043478260869 0 0  1.949565217391304 0 0  1.966086956521739 0 0  1.982608695652174 0 0  1.999130434782608 0 0  2.015652173913043 0 0  2.032173913043478 0 0  2.048695652173913 0 0  2.065217391304348 0 0  2.081739130434782 0 0  2.098260869565217 0 0  2.114782608695652 0 0  2.131304347826087 0 0  2.147826086956522 0 0  2.164347826086956 0 0  2.180869565217391 0 0  2.197391304347826 0 0  2.213913043478261 0 0  2.230434782608695 0 0  2.24695652173913 0 0  2.263478260869565 0 0  2.28 0 0  2.296521739130434 0 0  2.31304347826087 0 0  2.329565217391304 0 0  2.346086956521739 0 0  2.362608695652174 0 0  2.379130434782609 0 0  2.395652173913044 0 0  2.412173913043478 0 0  2.428695652173913 0 0  2.445217391304348 0 0  2.461739130434782 0 0  2.478260869565217 0 0  2.494782608695652 0 0  2.511304347826087 0 0  2.527826086956522 0 0  2.544347826086956 0 0  2.560869565217391 0 0  2.577391304347826 0 0  2.593913043478261 0 0  2.610434782608696 0 0  2.62695652173913 0 0  2.643478260869565 0 0  2.66 0 0  2.676521739130435 0 0  2.693043478260869 0 0  2.709565217391304 0 0  2.726086956521739 0 0  2.742608695652174 0 0  2.759130434782609 0 0  2.775652173913044 0 0  2.792173913043478 0 0  2.808695652173913 0 0  2.825217391304347 0 0  2.841739130434783 0 0  2.858260869565217 0 0  2.874782608695652 0 0  2.891304347826087 0 0  2.907826086956522 0 0  2.924347826086957 0 0  2.940869565217391 0 0  2.957391304347826 0 0  2.973913043478261 0 0  2.990434782608696 0 0  3.006956521739131 0 0  3.023478260869565 0 0  3.04 0 0  3.056521739130435 0 0  3.073043478260869 0 0  3.089565217391304 0 0  3.106086956521739 0 0  3.122608695652174 0 0  3.139130434782609 0 0  3.155652173913043 0 0  3.172173913043478 0 0  3.188695652173913 0 0  3.205217391304347 0 0  3.221739130434782 0 0  3.238260869565217 0 0  3.254782608695652 0 0  3.271304347826087 0 0  3.287826086956521 0 0  3.304347826086957 0 0  3.320869565217391 0 0  3.337391304347826 0 0  3.353913043478261 0 0  3.370434782608696 0 0  3.386956521739131 0 0  3.403478260869565 0 0  3.419999999999999 0 0  3.436521739130435 0 0  3.453043478260869 0 0  3.469565217391304 0 0  3.486086956521739 0 0  3.502608695652174 0 0  3.519130434782609 0 0  3.535652173913043 0 0  3.552173913043478 0 0  3.568695652173913 0 0  3.585217391304347 0 0  3.601739130434782 0 0  3.618260869565217 0 0  3.634782608695652 0 0  3.651304347826087 0 0  3.667826086956521 0 0  3.684347826086956 0 0  3.700869565217391 0 0  3.717391304347826 0 0  3.733913043478261 0 0  3.750434782608695 0 0  3.766956521739131 0 0  3.783478260869565 0 0  3.8 0 0  0 0.01666666666666667 0  0.01652173913043478 0.01666666666666667 0  0.03304347826086956 0.01666666666666667 0  0.04956521739130434 0.01666666666666667 0  0.06608695652173913 0.01666666666666667 0  0.08260869565217391 0.01666666666666667 0  0.09913043478260869 0.01666666666666667 0  0.1156521739130435 0.01666666666666667 0  0.1321739130434783 0.01666666666666667 0  0.148695652173913 0.01666666666666667 0  0.1652173913043478 0.01666666666666667 0  0.1817391304347826 0.01666666666666667 0  0.1982608695652174 0.01666666666666667 0  0.2147826086956522 0.01666666666666667 0  0.2313043478260869 0.01666666666666667 0  0.2478260869565218 0.01666666666666667 0  0.2643478260869565 0.01666666666666667 0  0.2808695652173913 0.01666666666666667 0  0.2973913043478261 0.01666666666666667 0  0.3139130434782609 0.01666666666666667 0  0.3304347826086956 0.01666666666666667 0  0.3469565217391304 0.01666666666666667 0  0.3634782608695652 0.01666666666666667 0  0.3799999999999999 0.01666666666666667 0  0.3965217391304348 0.01666666666666667 0  0.4130434782608696 0.01666666666666667 0  0.4295652173913043 0.01666666666666667 0  0.4460869565217391 0.01666666666666667 0  0.4626086956521739 0.01666666666666667 0  0.4791304347826086 0.01666666666666667 0  0.4956521739130435 0.01666666666666667 0  0.5121739130434783 0.01666666666666667 0  0.528695652173913 0.01666666666666667 0  0.5452173913043478 0.01666666666666667 0  0.5617391304347825 0.01666666666666667 0  0.5782608695652174 0.01666666666666667 0  0.5947826086956521 0.01666666666666667 0  0.6113043478260869 0.01666666666666667 0  0.6278260869565218 0.01666666666666667 0  0.6443478260869565 0.01666666666666667 0  0.6608695652173913 0.01666666666666667 0  0.677391304347826 0.01666666666666667 0  0.6939130434782609 0.01666666666666667 0  0.7104347826086956 0.01666666666666667 0  0.7269565217391304 0.01666666666666667 0  0.7434782608695653 0.01666666666666667 0  0.7599999999999999 0.01666666666666667 0  0.7765217391304348 0.01666666666666667 0  0.7930434782608695 0.01666666666666667 0  0.8095652173913043 0.01666666666666667 0  0.8260869565217391 0.01666666666666667 0  0.8426086956521739 0.01666666666666667 0  0.8591304347826086 0.01666666666666667 0  0.8756521739130434 0.01666666666666667 0  0.8921739130434783 0.01666666666666667 0  0.908695652173913 0.01666666666666667 0  0.9252173913043478 0.01666666666666667 0  0.9417391304347826 0.01666666666666667 0  0.9582608695652173 0.01666666666666667 0  0.9747826086956521 0.01666666666666667 0  0.991304347826087 0.01666666666666667 0  1.007826086956522 0.01666666666666667 0  1.024347826086957 0.01666666666666667 0  1.040869565217391 0.01666666666666667 0  1.057391304347826 0.01666666666666667 0  1.073913043478261 0.01666666666666667 0  1.090434782608696 0.01666666666666667 0  1.10695652173913 0.01666666666666667 0  1.123478260869565 0.01666666666666667 0  1.14 0.01666666666666667 0  1.156521739130435 0.01666666666666667 0  1.17304347826087 0.01666666666666667 0  1.189565217391304 0.01666666666666667 0  1.206086956521739 0.01666666666666667 0  1.222608695652174 0.01666666666666667 0  1.239130434782609 0.01666666666666667 0  1.255652173913044 0.01666666666666667 0  1.272173913043478 0.01666666666666667 0  1.288695652173913 0.01666666666666667 0  1.305217391304348 0.01666666666666667 0  1.321739130434783 0.01666666666666667 0  1.338260869565217 0.01666666666666667 0  1.354782608695652 0.01666666666666667 0  1.371304347826087 0.01666666666666667 0  1.387826086956522 0.01666666666666667 0  1.404347826086957 0.01666666666666667 0  1.420869565217391 0.01666666666666667 0  1.437391304347826 0.01666666666666667 0  1.453913043478261 0.01666666666666667 0  1.470434782608696 0.01666666666666667 0  1.486956521739131 0.01666666666666667 0  1.503478260869565 0.01666666666666667 0  1.52 0.01666666666666667 0  1.536521739130435 0.01666666666666667 0  1.55304347826087 0.01666666666666667 0  1.569565217391304 0.01666666666666667 0  1.586086956521739 0.01666666666666667 0  1.602608695652174 0.01666666666666667 0  1.619130434782609 0.01666666666666667 0  1.635652173913043 0.01666666666666667 0  1.652173913043478 0.01666666666666667 0  1.668695652173913 0.01666666666666667 0  1.685217391304348 0.01666666666666667 0  1.701739130434782 0.01666666666666667 0  1.718260869565217 0.01666666666666667 0  1.734782608695652 0.01666666666666667 0  1.751304347826087 0.01666666666666667 0  1.767826086956522 0.01666666666666667 0  1.784347826086957 0.01666666666666667 0  1.800869565217391 0.0166666666666666
[...]
<PointData  Scalars="rho_bar"> 
<DataArray  type="Float64"  Name="rho_bar"  format="ascii">8.3989429395292714e-01  8.3673032758280397e-01  8.3405133763597283e-01  8.3077989336255675e-01  8.2661834200326989e-01  8.2159589321746629e-01  8.1593166560925501e-01  8.0996117990348848e-01  8.0406674954844215e-01  7.9862545203837321e-01  7.9398672136086446e-01  7.9044495795812386e-01  7.8820668842096031e-01  7.8736738317111055e-01  7.8790692505426496e-01  7.8970203726878563e-01  7.9255080197989280e-01  7.9620201912862831e-01  8.0038233992325858e-01  8.0480901843914820e-01  8.0917412914659936e-01  8.1310171933819431e-01  8.1611716080548835e-01  8.1767955312607810e-01  8.1730421105337347e-01  8.1473278278117511e-01  8.1003299836892040e-01  8.0363244453376104e-01  7.9627160161266997e-01  7.8869754745760179e-01  7.8137875762430664e-01  7.7447201366560536e-01  7.6791711226672865e-01  7.6159844212608985e-01  7.5548948252438886e-01  7.4973742666911403e-01  7.4459625691511255e-01  7.4034564563475957e-01  7.3722856397733350e-01  7.3540814415073685e-01  7.3495568425506996e-01  7.3583831346701090e-01  7.3787683936513426e-01  7.4071040126923593e-01  7.4387243263079461e-01  7.4691743178893910e-01  7.4944936475405499e-01  7.5112650998941666e-01  7.5168524271238168e-01  7.5096170715750221e-01  7.4891468113389215e-01  7.4564435676805474e-01  7.4138669987745054e-01  7.3647491089973138e-01  7.3127903674237993e-01  7.2613650468381030e-01  7.2131636338915317e-01  7.1705019712554818e-01  7.1356880370675846e-01  7.1102665339474291e-01  7.0939821529275493e-01  7.0854870386135460e-01  7.0838250274220871e-01  7.0891723372931559e-01  7.1028146057061003e-01  7.1259306052423799e-01  7.1579588272332506e-01  7.1962122702824971e-01  7.2364939858108057e-01  7.2739318312171164e-01  7.3034803678236349e-01  7.3200679040085792e-01  7.3190754925866375e-01  7.2979394192981195e-01  7.2585063719898646e-01  7.2069813537696881e-01  7.1510149192358252e-01  7.0980525022947460e-01  7.0542827453999490e-01  7.0225809304562758e-01  7.0003722797420631e-01  6.9819813081354731e-01  6.9638707875787409e-01  6.9453603509058748e-01  6.9272808660888718e-01  6.9106465572605735e-01  6.8960535451268168e-01  6.8836498307848049e-01  6.8732975832025622e-01  6.8647089181623600e-01  6.8574993980272436e-01  6.8511971726733045e-01  6.8453164451050719e-01  6.8394390424420060e-01  6.8331839162458408e-01  6.8261235709127877e-01  6.8177122363918885e-01  6.8072548983249881e-01  6.7939655894338158e-01  6.7770890614248391e-01  6.7559459860778537e-01  6.7298479863895244e-01  6.6980888250144821e-01  6.6602754289524568e-01  6.6174895824725122e-01  6.5735892057343659e-01  6.5332511184950537e-01  6.4982441165136617e-01  6.4675391731777399e-01  6.4387947482580687e-01  6.4098335887106495e-01  6.3797972524900759e-01  6.3499645747069555e-01  6.3226366821504476e-01  6.2991177554597122e-01  6.2798416087080700e-01  6.2649192207453186e-01  6.2542953337454388e-01  6.2474666200399542e-01  6.2430087124301192e-01  6.2385136902605420e-01  6.2311493659050121e-01  6.2187559180105501e-01  6.2006613357675522e-01  6.1770606719574728e-01  6.1482563818608060e-01  6.1146373656301400e-01  6.0781131132822563e-01  6.0432267648058613e-01  6.0124784690800037e-01  5.9863939302286695e-01  5.9647185684505521e-01  5.9457129927791852e-01  5.9254663886338343e-01  5.9021290422618677e-01  5.8756892746863087e-01  5.8464085220651607e-01  5.8140163964687375e-01  5.7771534867887298e-01  5.7336727589339598e-01  5.6867094278252195e-01  5.6448428487081148e-01  5.6092544886819207e-01  5.5787338487557658e-01  5.5518976933142961e-01  5.5268503713004513e-01  5.5016433159200329e-01  5.4750318430751077e-01  5.4465313797692638e-01  5.4160703893360351e-01  5.3836890159603523e-01  5.3498441082709480e-01  5.3157499009512543e-01  5.2826300208646182e-01  5.2515550661439725e-01  5.2235255639809020e-01  5.1989759808278002e-01  5.1766875315968064e-01  5.1544133591904684e-01  5.1306939932470041e-01  5.1049647935860476e-01  5.0774703259081988e-01  5.0491849513962672e-01  5.0211686897955521e-01  4.9938383326623142e-01  4.9669645348865210e-01  4.9398492514294712e-01  4.9113922876671523e-01  4.8803062481589782e-01  4.8456520567997391e-01  4.8074074889401197e-01  4.7665811800075347e-01  4.7248653734888252e-01  4.6840509477637027e-01  4.6455146662602315e-01  4.6102157117338061e-01  4.5786686202817284e-01  4.5474361157016779e-01  4.5032788286182085e-01  4.4315141301770389e-01  4.3361043102561819e-01  4.2364996342584771e-01  4.1492890294249840e-01  4.0721810457751334e-01  3.9941889152621768e-01  3.9062604416522828e-01  3.8051312492663297e-01  3.6909903638871222e-01  3.5633650045830934e-01  3.4208686880822170e-01  3.2596795356877745e-01  3.0703984931047584e-01  2.8421031294277543e-01  2.5727479771496564e-01  2.2735876444674025e-01  1.9649457404841364e-01  1.6690311751157672e-01  1.4003877615676474e-01  1.1635792700807088e-01  9.5822538367370549e-02  7.8185043100741439e-02  6.3173364677285945e-02  5.0557177601944212e-02  4.0111154583140129e-02  3.1589383392377234e-02  2.4729223485618290e-02  1.9268269909599723e-02  1.4960497249560951e-02  1.1586582223463492e-02  8.9583224691596654e-03  6.9188458517081370e-03  5.3403201019348581e-03  4.1204185424684346e-03  3.1783511767249769e-03  2.4509789318118130e-03  1.8893003946084557e-03  1.4554598484209315e-03  1.1202825077061085e-03  8.6131553175534655e-04  6.6127947618789637e-04  5.0687675807524523e-04  3.8786548861331895e-04  2.9635755723524180e-04  2.2627770637680529e-04  1.7295875138392022e-04  1.3283311063093758e-04  1.0320628736831469e-04  8.2090593771404639e-05  6.8101299270704657e-05  6.0432933320702007e-05  5.9063511360497769e-05  8.2137886954806283e-01  8.2008088165467985e-01  8.1777386636062832e-01  8.1441818302516744e-01  8.0995326447471083e-01  8.0448699020058523e-01  7.9829002861524612e-01  7.9175046057405052e-01  7.8529812556730882e-01  7.7934575008230700e-01  7.7427691814066080e-01  7.7041775124730627e-01  7.6799662481195663e-01  7.6711709823349195e-01  7.6775340784374435e-01  7.6976621811706025e-01  7.7293097440486647e-01  7.7697234844752139e-01  7.8159702017178267e-01  7.8651263878060174e-01  7.9141019683194225e-01  7.9590562574352008e-01  7.9948998523321724e-01  8.0155691688262698e-01  8.0154313843405589e-01  7.9914724599651032e-01  7.9443227754093659e-01  7.8782120158945668e-01  7.8006832427904704e-01  7.7194340769017467e-01  7.6397486224272426e-01  7.5637858028579175e-01  7.4911323926282469e-01  7.4208051003347986e-01  7.3526657677520535e-01  7.2885064003070121e-01  7.2311938365529749e-01  7.1838133854172848e-01  7.1490121073882218e-01  7.1284845001612651e-01  7.1229364091449943e-01  7.1320654143773521e-01  7.1540519861924945e-01  7.1848879113788000e-01  7.2192556690298348e-01  7.2523074659121656e-01  7.2797715495709892e-01  7.2978980061624243e-01  7.3037923890613676e-01  7.2956450973556453e-01  7.2729814438102447e-01  7.2369267989703789e-01  7.1901604513507400e-01  7.1364619287346520e-01  7.0800166267210418e-01  7.0245445949204544e-01  6.9727998372959787e-01  6.9270547368237645e-01  6.8898565039963999e-01  6.8631071176918501e-01  6.8463738118585693e-01  6.8378418080298853e-01  6.8363183691298246e-01  6.8420112201872829e-01  6.8566189071150585e-01  6.8818846427035241e-01  6.9173572988568910e-01  6.9600260931138580e-01  7.0052097139073000e-01  7.0476315974036985e-01  7.0819744520539774e-01  7.1028512110366138e-01  7.1051197419604895e-01  7.0854221117994809e-01  7.0451136307089168e-01  6.9908111261727035e-01  6.9307029160691924e-01  6.8727863614941320e-01  6.8239941859124431e-01  6.7881552516416799e-01  6.7629426080272859e-01  6.7417925365043274e-01  6.7208762299757019e-01  6.6997197600087532e-01  6.6793986230400215e-01  6.6610123088012130e-01  6.6450892772582904e-01  6.6316656307048438e-01  6.6205076130866536e-01  6.6112695949187872e-01  6.6035307883862449e-01  6.5967738162557155e-01  6.5904626393830634e-01  6.5841683965143916e-01  6.5775177791722850e-01  6.5700951122023021e-01  6.5613595773222766e-01  6.5506100801906864e-01  6.5370344702237249e-01  6.5198589112607930e-01  6.4984176305639763e-01  6.4720481368755600e-01  6.4400391953079006e-01  6.4018848567345332e-01  6.3583343932219860e-01  6.3133470506760836e-01  6.2724177429386163e-01  6.2374778779196316e-01  6.2072116244859465e-01  6.1789296802845828e-01  6.1502224762407665e-01  6.1199940741469361e-01  6.0895690568568395e-01  6.0617077466665459e-01  6.0378296326775660e-01  6.0183446174868815e-01  6.0034051485937789e-01  5.9930890955457650e-01  5.9870632281267500e-01  5.9839465926539104e-01  5.9811758473489873e-01  5.9756158437067086e-01  5.9647088395151571e-01  5.9477003001876094e-01  5.9249975084452877e-01  5.8972731686487190e-01  5.8653024034797019e-01  5.8307954511326121e-01  5.7972604640572756e-01  5.7672450754626781e-01  5.7413329779830446e-01  5.7191800343895527e-01  5.6993704044162119e-01  5.6789320609758387e-01  5.6558780420255528e-01  5.6299640327559319e-01  5.6013437191101989e-01  5.5697687975792265e-01  5.5341894650808388e-01  5.4928424550000543e-01  5.4469611357244074e-01  5.4050492111753345e-01  5.3700241746361488e-01  5.3408453974442560e-01  5.3159685573606230e-01  5.2931394440593782e-01  5.2699936610880938e-01  5.2451646853055578e-01  5.2182538611544371e-01  5.1893274897853459e-01  5.1585447700558862e-01  5.1262216897273050e-01  5.0934566415406113e-01  5.0614009480270095e-01  5.0310356484211594e-01  5.0032716792699738e-01  4.9785969367024541e-01  4.9559635058103524e-01  4.9330394256170451e-01  4.9082618567019021e-01  4.8810654891004085e-01  4.8517967961574848e-01  4.8217656134284614e-01  4.7924386087423870e-01  4.7643789172195805e-01  4.7373183547743997e-01  4.7104989076304082e-01  4.6827790900423444e-01  4.6528008365420748e-01  4.6196172606565783e-01  4.5833836735925376e-01  4.5453735831309172e-01  4.5074203107556471e-01  4.4711661161188426e-01  4.4374573157033204e-01  4.4065328763029399e-01  4.3783201814228812e-01  4.3502454521762574e-01  4.3120292984682024e-01  4.2506822509393322e-01  4.1689095036269214e-01  4.0846628043262712e-01  4.0108148401322313e-01  3.9458800516033404e-01  3.8801171220311026e-01  3.8051467418552587e-01  3.7176561846875839e-01  3.6178329615125732e-01  3.5059401368523307e-01  3.3810364777634611e-01  3.2396224834376597e-01  3.0725964685905960e-01  2.8682600815662013e-01  2.6215852948218643e-01  2.3409239628466921e-01  2.0437991501163760e-01  1.7510641188607670e-01  1.4792007443010627e-01  1.2353637044437621e-01  1.0212857648706103e-01  8.3559618835851959e-02  6.7630231638673974e-02  5.4176206333706026e-02  4.3008165924613685e-02  3.3887470817503464e-02  2.6542150865319292e-02  2.0693849272878467e-02  1.6079550229906380e-02  1.2464341825420319e-02  9.6466695181947181e-03  7.4586450114284544e-03  5.7635826991020130e-03  4.4521707550419414e-03  3.4381740031220178e-03  2.6542228105246612e-03  2.0480304938929432e-03  1.5791736577350484e-03  1.2164718295304515e-03  9.3589154072182767e-04  7.1891475162676015e-04  5.5126326308688417e-04  4.2192538190180046e-04  3.2240243058969515e-04  2.4614044132033493e-04  1.8809383257197126e-04  1.4440092530367265e-04  1.1213795977200952e-04  8.9141370510757037e-05  7.3876983230146331e-05  6.5342957352901881e-05  6.2926235044682028e-05  7.7020562453843211e-01  7.6948303159925491e-01  7.6731794977376411e-01  7.6353776613078894e-01  7.5815823320940090e-01  7.5139190772614173e-01  7.4363394042398023e-01  7.3542559335162039e-01  7.2733933503967318e-01  7.1988398963811739e-01  7.1354202859022853e-01  7.0873573089278097e-01  7.0576017392635026e-01  7.0474318444724238e-01  7.0564335660900745e-01  7.0827521447285102e-01  7.1235000306297369e-01  7.1752376142322727e-01  7.2344835910938610e-01  7.2981235117971532e-01  7.3632315365341805e-01  7.4259441622827893e-01  7.4803068090555702e-01  7.5184292884212711e-01  7.5322373906167250e-01  7.5171555971439963e-01  7.4738082536819750e-01  7.4060084160021511e-01  7.3212576628271597e-01  7.2272853840686690e-01  7.1299178676544650e-01  7.0329347549398002e-01  6.9373714664590969e-01  6.8438836101293710e-01  6.7534077487038990e-01  6.6686332839719198e-01  6.5931286125063082e-01  6.5306710704639759e-01  6.4845192753684544e-01  6.4564300338981051e-01  6.4469550912599460e-01  6.4557698182308199e-01  6.4811167029337857e-01  6.5180697423097989e-01  6.5594006901237900e-01  6.5992103057116613e-01  6.6323575397996581e-01  6.6540426194767965e-01  6.6606106646514318e-01  6.6497449649942098e-01  6.6207563976057515e-01  6.5751176733013295e-01  6.5164731815120724e-01  6.4499173910347884e-01  6.3811015875496890e-01  6.3147975951379098e-01  6.2538848160235416e-01  6.2002270039102791e-01  6.1567828334777819e-01  6.1266138031631134e-01  6.1088766160686303e-01  6.1003411103435146e-01  6.0992306622607628e-01  6.1058199428302418e-01  6.1229319357535650e-01  6.1541487808917950e-01  6.1994457278053161e-01  6.2548693571135683e-01  6.3143624115388464e-01  6.3715771744720817e-01  6.4206231240615519e-01  6.4553715906585074e-01  6.4693718378710130e-01  6.4574421437419260e-01  6.4189657420700741e-01  6.3604933708828593e-01  6.2911547459765860e-01  6.2203920657188849e-01  6.1570950071776254e-01  6.1072621198224675e-01  6.0703965098867985e-01  6.0389528033117890e-01  6.0085335077770863e-01  5.9790464084815798e-01  5.9519967238589233e-01  5.9285152114616668e-01  5.9087845590974652e-01  5.8924365920577249e-01  5.8789350061321288e-01  5.8677586740213772e-01  5.8584050733108672e-01  5.8502512384348659e-01  5.8426237115499380e-01  5.8350735776523421e-01  5.8272661367478451e-01  5.8188277021031498e-01  5.8092557067523998e-01  5.7978766746922261e-01  5.7838817755841787e-01  5.7664853950809913e-01  5.7450664200894008e-01  5.7190414745634299e-01  5.6877631050009214e-01  5.6506706833645337e-01  5.6081004317066430e-01  5.5634366790228718e-01  5.5234578986593363e-01  5.4906396400904334e-01  5.4631621120896878e-01  5.4375704856321783e-01  5.4110984654038397e-01  5.3823607800866891e-01  5.3523655739667908e-01  5.3246111859084855e-01  5.3008957980359772e-01  5.2817018170981711e-01  5.2673996721537131e-01  5.2584645500200322e-01  5.2551286121791774e-01  5.2562817610751389e-01  5.2589676644940764e-01  5.2591376301593773e-01  5.2531047483389870e-01  5.2398615899115208e-01  5.2202411097048995e-01  5.1955928240817029e-01  5.1673129996432721e-01  5.1371385710988504e-01  5.1074460039256631e-01  5.0800910677004030e-01  5.0556964225937728e-01  5.0340009160646915e-01  5.0139681945079162e-01  4.9937712142317880e-01  4.9719342088177693e-01  4.9479366738517711e-01  4.9216662356269086e-01  4.8928606742198705e-01  4.8608619122240632e-01  4.8248111586392295e-01  4.7853927829717008e-01  4.7479894082019908e-01  4.7168160956273686e-01  4.6926604415025647e-01  4.6744206640075708e-01  4.6589796726883481e-01  4.6426709917035036e-01  4.6238097047391546e-01  4.6022202687995117e-01  4.5781512678754199e-01  4.5518721817465568e-01  4.5238164941013420e-01  4.4949734881364201e-01  4.4663072035743295e-01  4.4385924163283719e-01  4.4124969025572885e-01  4.3884154182633189e-01  4.3654631493075519e-01  4.3414930638168114e-01  4.3148132680452772e-01  4.2847478077078821e-01  4.2517358415048262e-01  4.2179196811855241e-01  4.1858906588102107e-01  4.1564664878457314e-01  4.1292407237083201e-01  4.1033892409502837e-01  4.0777319229445913e-01  4.0506589584499236e-01  4.0210877933735389e-01  3.9897101498995252e-01  3.9586661460785827e-01  3.9303145824987690e-01  3.9060210005679902e-01  3.8851877245592964e-01  3.8662882993641429e-01  3.8484107267213158e-01  3.8298416720935641e-01  3.8049483455852567e-01  3.7667719333486194e-01  3.7190383688291595e-01  3.6726110093444075e-01  3.6340973299771684e-01  3.6007731144246291e-01  3.5655417455453486e-01  3.5222906371687196e-01  3.4687808572004503e-01  3.4057428131664713e-01  3.3348572391882791e-01  3.2569844744628629e-01  3.1695584787929981e-01  3.0631859359476221e-01  2.9238960034490202e-01  2.7412327611694381e-01  2.5161045704732465e-01  2.2597419063714291e-01  1.9864346795944479e-01  1.7133262438963534e-01  1.4534293165597614e-01  1.2157732825433071e-01  1.0031295306455137e-01  8.1624826611687476e-02  6.5607147048173983e-02  5.2207587191699281e-02  4.1221273676766763e-02  3.2353781409853122e-02  2.5282100009854119e-02  1.9693866287137780e-02  1.5307958809301674e-02  1.1882528967152953e-02  9.2159661923682853e-03  7.1441730919062666e-03  5.5360416145164267e-03  4.2882181209784442e-03  3.3199555016574052e-03  2.5684966728849218e-03  1.9852055759642480e-03  1.5324334021743881e-03  1.1810522561108696e-03  9.0851812032464703e-04  6.9737783473598780e-04  5.3410581133829928e-04  4.0821963668433999e-04  3.1159532837260733e-04  2.3795354748669577e-04  1.8246452284368197e-04  1.4145683303787908e-04  1.1219679693929154e-04  9.2729338115126649e-05  8.1754772450081902e-05  7.8525983749337414e-05  6.8045900605292242e-01  6.8051604154153389e-01  6.7852737181658807e-01  6.7415835072964803e-01  6.6750449349564422e-01  6.5891986567577576e-01  6.4896510066069879e-01  6.3840753132005412e-01  6.2804865257044606e-01  6.1850498486010741e-01  6.1038466113533030e-01  6.0424855271747779e-01  6.0048747053173479e-01  5.9926274715348438e-01  6.0051186450076643e-01  6.0398982575979610e-01  6.0932734173095193e-01  6.1609771404791769e-01  6.2389276615300238e-01  6.3240653082912801e-01  6.4143729566367513e-01  6.5067720801162532e-01  6.5945522474038820e-01  6.6675419984240869e-01  6.7144146721214149e-01  6.7268121400409731e-01  6.7041528664172434e-01  6.6488332364785918e-01  6.5663014780161344e-01  6.4626910579540853e-01  6.3436332117047378e-01  6.2148403563962185e-01  6.0812219346637242e-01  5.9481598444065398e-01  5.8206341380769444e-01  5.7029897388305284e-01  5.5989594764409290e-01  5.5126635069834395e-01  5.4482342635717840e-01  5.4071545115113362e-01  5.3892650801722031e-01  5.3937276095914966e-01  5.4186804150371426e-01  5.4591064742560347e-01  5.5058248096509388e-01  5.5515439774943198e-01  5.5898904319574994e-01  5.6143195140500823e-01  5.6201269082276561e-01  5.6044096467240601e-01  5.5661914206080676e-01  5.5074481518364715e-01  5.4333111672147660e-01  5.3506715447158071e-01  5.2672248881318906e-01  5.1893082598465567e-01  5.1199048895294241e-01  5.0598637190978457e-01  5.0112470978311585e-01  4.9780530379337179e-01  4.9597812352829690e-01  4.9518164351405469e-01  4.9517963300202217e-01  4.9602241589948481e-01  4.9806837673469517e-01  5.0192386726772931e-01  5.0771235633685952e-01  5.1494898922860199e-01  5.2287126045004650e-01  5.3073385656767946e-01  5.3793850577554192e-01  5.4381697172084598e-01  5.4754998965920210e-01  5.4838587020305885e-01  5.4596377543247343e-01  5.4060111366787444e-01  5.3313859728689206e-01  5.2470567098538556e-01  5.1647980357739842e-01  5.0930810211856747e-01  5.0340602011232738e-01  4.9833634306594521e-01  4.9370532168387748e-01  4.8948898314860972e-01  4.8582043302425854e-01  4.8277314037339625e-01  4.8028726435201502e-01  4.7825353406744703e-01  4.7656987080333002e-01  4.7515760163368498e-01  4.7395675559786121e-01  4.7290437742613672e-01  4.7192289603311838e-01  4.7096673639297232e-01  4.7000947455326580e-01  4.6902206389769890e-01  4.6796432079305433e-01  4.6678239574256764e-01  4.6541121393823215e-01  4.6378523629671625e-01  4.6185086484040999e-01  4.5956255404612889e-01  4.5687661268984575e-01  4.5376623511549730e-01  4.5028036795469129e-01  4.4666982931682458e-01  4.4343971782644376e-01  4.4087243651887215e-01  4.3883306850253628e-01  4.3695244662873972e-01  4.3495027791410440e-01  4.3270166283495204e-01  4.3026746579041458e-01  4.2791289168493879e-01  4.2585582225024554e-01  4.2419986826564177e-01  4.2303353406909971e-01  4.2244949905110252e-01  4.2253478702911085e-01  4.2326671495581475e-01  4.2436144415288951e-01  4.2529362842947427e-01  4.2547391511298932e-01  4.2476677114539713e-01  4.2332123770439839e-01  4.2135024264685350e-01  4.1904882557488854e-01  4.1659433761366110e-01  4.1415712968101076e-01  4.1186238215834514e-01  4.0976192617296031e-01  4.0784502542485812e-01  4.0604827548314104e-01  4.0426591828541575e-01  4.0239719430742871e-01  4.0038137294104792e-01  3.98189520505