<?xml version="1.0"?>
<VTKFile type="UnstructuredGrid"  version="0.1"  >
<UnstructuredGrid>
<Piece  NumberOfPoints="614" NumberOfCells="1122">
<Points>
<DataArray  type="Float64"  NumberOfComponents="3"  format="ascii">2.792173913043478 0.2166666666666667 0  2.792173913043478 0.2333333333333333 0  2.808695652173913 0.2333333333333333 0  2.445217391304348 0.2333333333333333 0  2.461739130434782 0.2333333333333333 0  2.461739130434782 0.25 0  2.445217391304348 0.25 0  2.478260869565217 0.2333333333333333 0  2.478260869565217 0.25 0  2.494782608695652 0.2333333333333333 0  2.494782608695652 0.25 0  2.511304347826087 0.2333333333333333 0  2.511304347826087 0.25 0  2.527826086956522 0.2333333333333333 0  2.527826086956522 0.25 0  2.544347826086956 0.2333333333333333 0  2.544347826086956 0.25 0  2.560869565217391 0.2333333333333333 0  2.560869565217391 0.25 0  2.577391304347826 0.2333333333333333 0  2.577391304347826 0.25 0  2.593913043478261 0.2333333333333333 0  2.593913043478261 0.25 0  2.610434782608696 0.2333333333333333 0  2.610434782608696 0.25 0  2.62695652173913 0.2333333333333333 0  2.62695652173913 0.25 0  2.643478260869565 0.2333333333333333 0  2.643478260869565 0.25 0  2.66 0.2333333333333333 0  2.66 0.25 0  2.676521739130435 0.2333333333333333 0  2.676521739130435 0.25 0  2.693043478260869 0.2333333333333333 0  2.693043478260869 0.25 0  2.709565217391304 0.2333333333333333 0  2.709565217391304 0.25 0  2.726086956521739 0.2333333333333333 0  2.726086956521739 0.25 0  2.742608695652174 0.2333333333333333 0  2.742608695652174 0.25 0  2.759130434782609 0.2333333333333333 0  2.759130434782609 0.25 0  2.775652173913044 0.2333333333333333 0  2.775652173913044 0.25 0  2.792173913043478 0.25 0  2.808695652173913 0.25 0  2.825217391304347 0.25 0  2.28 0.25 0  2.296521739130434 0.25 0  2.296521739130434 0.2666666666666667 0  2.28 0.2666666666666667 0  2.31304347826087 0.25 0  2.31304347826087 0.2666666666666667 0  2.329565217391304 0.25 0  2.329565217391304 0.2666666666666667 0  2.346086956521739 0.25 0  2.346086956521739 0.2666666666666667 0  2.362608695652174 0.25 0  2.362608695652174 0.2666666666666667 0  2.379130434782609 0.25 0  2.379130434782609 0.2666666666666667 0  2.395652173913044 0.25 0  2.395652173913044 0.2666666666666667 0  2.412173913043478 0.25 0  2.412173913043478 0.2666666666666667 0  2.428695652173913 0.25 0  2.428695652173913 0.2666666666666667 0  2.445217391304348 0.2666666666666667 0  2.461739130434782 0.2666666666666667 0  2.478260869565217 0.2666666666666667 0  2.494782608695652 0.2666666666666667 0  2.511304347826087 0.2666666666666667 0  2.527826086956522 0.2666666666666667 0  2.544347826086956 0.2666666666666667 0  2.560869565217391 0.2666666666666667 0  2.577391304347826 0.2666666666666667 0  2.593913043478261 0.2666666666666667 0  2.610434782608696 0.2666666666666667 0  2.62695652173913 0.2666666666666667 0  2.643478260869565 0.2666666666666667 0  2.66 0.2666666666666667 0  2.676521739130435 0.2666666666666667 0  2.693043478260869 0.2666666666666667 0  2.709565217391304 0.2666666666666667 0  2.726086956521739 0.2666666666666667 0  2.742608695652174 0.2666666666666667 0  2.759130434782609 0.2666666666666667 0  2.775652173913044 0.2666666666666667 0  2.792173913043478 0.2666666666666667 0  2.808695652173913 0.2666666666666667 0  2.825217391304347 0.2666666666666667 0  2.841739130434783 0.2666666666666667 0  2.24695652173913 0.2666666666666667 0  2.263478260869565 0.2666666666666667 0  2.263478260869565 0.2833333333333333 0  2.28 0.2833333333333333 0  2.296521739130434 0.2833333333333333 0  2.31304347826087 0.2833333333333333 0  2.329565217391304 0.2833333333333333 0  2.346086956521739 0.2833333333333333 0  2.362608695652174 0.2833333333333333 0  2.379130434782609 0.2833333333333333 0  2.395652173913044 0.2833333333333333 0  2.412173913043478 0.2833333333333333 0  2.428695652173913 0.2833333333333333 0  2.445217391304348 0.2833333333333333 0  2.461739130434782 0.2833333333333333 0  2.478260869565217 0.2833333333333333 0  2.494782608695652 0.2833333333333333 0  2.511304347826087 0.2833333333333333 0  2.527826086956522 0.2833333333333333 0  2.544347826086956 0.2833333333333333 0  2.560869565217391 0.2833333333333333 0  2.577391304347826 0.2833333333333333 0  2.593913043478261 0.2833333333333333 0  2.610434782608696 0.2833333333333333 0  2.62695652173913 0.2833333333333333 0  2.643478260869565 0.2833333333333333 0  2.66 0.2833333333333333 0  2.676521739130435 0.2833333333333333 0  2.693043478260869 0.2833333333333333 0  2.709565217391304 0.2833333333333333 0  2.726086956521739 0.2833333333333333 0  2.742608695652174 0.2833333333333333 0  2.759130434782609 0.2833333333333333 0  2.775652173913044 0.2833333333333333 0  2.792173913043478 0.2833333333333333 0  2.808695652173913 0.2833333333333333 0  2.825217391304347 0.2833333333333333 0  2.841739130434783 0.2833333333333333 0  2.858260869565217 0.2833333333333333 0  2.28 0.3 0  2.296521739130434 0.3 0  2.31304347826087 0.3 0  2.329565217391304 0.3 0  2.346086956521739 0.3 0  2.362608695652174 0.3 0  2.379130434782609 0.3 0  2.395652173913044 0.3 0  2.412173913043478 0.3 0  2.428695652173913 0.3 0  2.445217391304348 0.3 0  2.461739130434782 0.3 0  2.478260869565217 0.3 0  2.494782608695652 0.3 0  2.511304347826087 0.3 0  2.527826086956522 0.3 0  2.544347826086956 0.3 0  2.560869565217391 0.3 0  2.577391304347826 0.3 0  2.593913043478261 0.3 0  2.610434782608696 0.3 0  2.62695652173913 0.3 0  2.643478260869565 0.3 0  2.66 0.3 0  2.676521739130435 0.3 0  2.693043478260869 0.3 0  2.709565217391304 0.3 0  2.726086956521739 0.3 0  2.742608695652174 0.3 0  2.759130434782609 0.3 0  2.775652173913044 0.3 0  2.792173913043478 0.3 0  2.808695652173913 0.3 0  2.825217391304347 0.3 0  2.841739130434783 0.3 0  2.858260869565217 0.3 0  2.874782608695652 0.3 0  2.296521739130434 0.3166666666666667 0  2.31304347826087 0.3166666666666667 0  2.329565217391304 0.3166666666666667 0  2.346086956521739 0.3166666666666667 0  2.362608695652174 0.3166666666666667 0  2.379130434782609 0.3166666666666667 0  2.395652173913044 0.3166666666666667 0  2.412173913043478 0.3166666666666667 0  2.428695652173913 0.3166666666666667 0  2.445217391304348 0.3166666666666667 0  2.461739130434782 0.3166666666666667 0  2.478260869565217 0.3166666666666667 0  2.494782608695652 0.3166666666666667 0  2.511304347826087 0.3166666666666667 0  2.527826086956522 0.3166666666666667 0  2.544347826086956 0.3166666666666667 0  2.560869565217391 0.3166666666666667 0  2.577391304347826 0.3166666666666667 0  2.593913043478261 0.3166666666666667 0  2.610434782608696 0.3166666666666667 0  2.62695652173913 0.3166666666666667 0  2.643478260869565 0.3166666666666667 0  2.66 0.3166666666666667 0  2.676521739130435 0.3166666666666667 0  2.693043478260869 0.3166666666666667 0  2.709565217391304 0.3166666666666667 0  2.726086956521739 0.3166666666666667 0  2.742608695652174 0.3166666666666667 0  2.759130434782609 0.3166666666666667 0  2.775652173913044 0.3166666666666667 0  2.792173913043478 0.3166666666666667 0  2.808695652173913 0.3166666666666667 0  2.825217391304347 0.3166666666666667 0  2.841739130434783 0.3166666666666667 0  2.858260869565217 0.3166666666666667 0  2.874782608695652 0.3166666666666667 0  2.891304347826087 0.3166666666666667 0  2.31304347826087 0.3333333333333333 0  2.329565217391304 0.3333333333333333 0  2.346086956521739 0.3333333333333333 0  2.362608695652174 0.3333333333333333 0  2.379130434782609 0.3333333333333333 0  2.395652173913044 0.3333333333333333 0  2.412173913043478 0.3333333333333333 0  2.428695652173913 0.3333333333333333 0  2.445217391304348 0.3333333333333333 0  2.461739130434782 0.3333333333333333 0  2.478260869565217 0.3333333333333333 0  2.494782608695652 0.3333333333333333 0  2.511304347826087 0.3333333333333333 0  2.527826086956522 0.3333333333333333 0  2.544347826086956 0.3333333333333333 0  2.560869565217391 0.3333333333333333 0  2.577391304347826 0.3333333333333333 0  2.593913043478261 0.3333333333333333 0  2.610434782608696 0.3333333333333333 0  2.62695652173913 0.3333333333333333 0  2.643478260869565 0.3333333333333333 0  2.66 0.3333333333333333 0  2.676521739130435 0.3333333333333333 0  2.693043478260869 0.3333333333333333 0  2.709565217391304 0.3333333333333333 0  2.726086956521739 0.3333333333333333 0  2.742608695652174 0.3333333333333333 0  2.759130434782609 0.3333333333333333 0  2.775652173913044 0.3333333333333333 0  2.792173913043478 0.3333333333333333 0  2.808695652173913 0.3333333333333333 0  2.825217391304347 0.3333333333333333 0  2.841739130434783 0.3333333333333333 0  2.858260869565217 0.3333333333333333 0  2.874782608695652 0.3333333333333333 0  2.891304347826087 0.3333333333333333 0  2.907826086956522 0.3333333333333333 0  2.329565217391304 0.35 0  2.346086956521739 0.35 0  2.362608695652174 0.35 0  2.379130434782609 0.35 0  2.395652173913044 0.35 0  2.412173913043478 0.35 0  2.428695652173913 0.35 0  2.445217391304348 0.35 0  2.461739130434782 0.35 0  2.478260869565217 0.35 0  2.494782608695652 0.35 0  2.511304347826087 0.35 0  2.527826086956522 0.35 0  2.544347826086956 0.35 0  2.560869565217391 0.35 0  2.577391304347826 0.35 0  2.593913043478261 0.35 0  2.610434782608696 0.35 0  2.62695652173913 0.35 0  2.643478260869565 0.35 0  2.66 0.35 0  2.676521739130435 0.35 0  2.693043478260869 0.35 0  2.709565217391304 0.35 0  2.726086956521739 0.35 0  2.742608695652174 0.35 0  2.759130434782609 0.35 0  2.775652173913044 0.35 0  2.792173913043478 0.35 0  2.808695652173913 0.35 0  2.825217391304347 0.35 0  2.841739130434783 0.35 0  2.858260869565217 0.35 0  2.874782608695652 0.35 0  2.891304347826087 0.35 0  2.907826086956522 0.35 0  2.924347826086957 0.35 0  2.346086956521739 0.3666666666666666 0  2.362608695652174 0.3666666666666666 0  2.379130434782609 0.3666666666666666 0  2.395652173913044 0.3666666666666666 0  2.412173913043478 0.3666666666666666 0  2.428695652173913 0.3666666666666666 0  2.445217391304348 0.3666666666666666 0  2.461739130434782 0.3
[...]
<PointData  Vectors="Displacement"> 
<DataArray  type="Float64"  Name="Displacement"  NumberOfComponents="3" format="ascii">1.6605944764590665e-04 5.3480765797438200e-03 0.0000000000000000e+00  1.4513060013142048e-04 5.3498222226061546e-03 0.0000000000000000e+00  1.4683657999384298e-04 5.3910898596592283e-03 0.0000000000000000e+00  1.0254135245897689e-04 4.2176139313698739e-03 0.0000000000000000e+00  1.0604184314778745e-04 4.2736166587758013e-03 0.0000000000000000e+00  8.5085343370043393e-05 4.2593891674341721e-03 0.0000000000000000e+00  8.1580434649088600e-05 4.2028181800537216e-03 0.0000000000000000e+00  1.0951238930885420e-04 4.3299759209709156e-03 0.0000000000000000e+00  8.8577276994671208e-05 4.3163697504495172e-03 0.0000000000000000e+00  1.1291902219779972e-04 4.3866616553452208e-03 0.0000000000000000e+00  9.2010508511548213e-05 4.3737403806490879e-03 0.0000000000000000e+00  1.1622382546539495e-04 4.4436285185481964e-03 0.0000000000000000e+00  9.5335648188676149e-05 4.4314601713830682e-03 0.0000000000000000e+00  1.1938934659989656e-04 4.5008137251173388e-03 0.0000000000000000e+00  9.8505272503754418e-05 4.4894645183375928e-03 0.0000000000000000e+00  1.2238266142545448e-04 4.5581371163541410e-03 0.0000000000000000e+00  1.0147926726860058e-04 4.5476658152226726e-03 0.0000000000000000e+00  1.2517839747235558e-04 4.6155035813114911e-03 0.0000000000000000e+00  1.0422869154637567e-04 4.6059577655275892e-03 0.0000000000000000e+00  1.2776025008513840e-04 4.6728068773364976e-03 0.0000000000000000e+00  1.0673751053734397e-04 4.6642215875244775e-03 0.0000000000000000e+00  1.3012093336917208e-04 4.7299335530538609e-03 0.0000000000000000e+00  1.0900227914434297e-04 4.7223321086137630e-03 0.0000000000000000e+00  1.3226074758920182e-04 4.7867659327612876e-03 0.0000000000000000e+00  1.1103010982772133e-04 4.7801624821842805e-03 0.0000000000000000e+00  1.3418503586553110e-04 4.8431833970214852e-03 0.0000000000000000e+00  1.1283516755623320e-04 4.8375867109702190e-03 0.0000000000000000e+00  1.3590092638017846e-04 4.8990613612958870e-03 0.0000000000000000e+00  1.1443381927595619e-04 4.8944791663640720e-03 0.0000000000000000e+00  1.3741413326296545e-04 4.9542675170712192e-03 0.0000000000000000e+00  1.1583887457946192e-04 4.9507099524023291e-03 0.0000000000000000e+00  1.3872718795235092e-04 5.0086555107782269e-03 0.0000000000000000e+00  1.1705434970377930e-04 5.0061354239070866e-03 0.0000000000000000e+00  1.3984113735029464e-04 5.0620571157799230e-03 0.0000000000000000e+00  1.1807393335194537e-04 5.0605840791595018e-03 0.0000000000000000e+00  1.4076282550225445e-04 5.1142755155424930e-03 0.0000000000000000e+00  1.1888750522045399e-04 5.1138409078330211e-03 0.0000000000000000e+00  1.4151981229769980e-04 5.1650840013109248e-03 0.0000000000000000e+00  1.1949987267783008e-04 5.1656337677106383e-03 0.0000000000000000e+00  1.4218187488602565e-04 5.2142369603942404e-03 0.0000000000000000e+00  1.1996843958696222e-04 5.2156360180323751e-03 0.0000000000000000e+00  1.4289208152774477e-04 5.2614742783839760e-03 0.0000000000000000e+00  1.2049141828716880e-04 5.2634433219204838e-03 0.0000000000000000e+00  1.4382844582066647e-04 5.3066648674811086e-03 0.0000000000000000e+00  1.2133502602588588e-04 5.3088994682707214e-03 0.0000000000000000e+00  1.2273064261636660e-04 5.3521222752017858e-03 0.0000000000000000e+00  1.2467288283064823e-04 5.3934360394816078e-03 0.0000000000000000e+00  1.2718444787157264e-04 5.4330785623589103e-03 0.0000000000000000e+00  4.4903166769008156e-05 3.6677408062692112e-03 0.0000000000000000e+00  4.9218137065587845e-05 3.7163953888754860e-03 0.0000000000000000e+00  2.8333884170940464e-05 3.6951655130783145e-03 0.0000000000000000e+00  2.4144922537809516e-05 3.6457618277844126e-03 0.0000000000000000e+00  5.3379121282192621e-05 3.7668757636820562e-03 0.0000000000000000e+00  3.2400543017645573e-05 3.7464697466649132e-03 0.0000000000000000e+00  5.7316130996569398e-05 3.8188963829181868e-03 0.0000000000000000e+00  3.6198525598358993e-05 3.7994527783186786e-03 0.0000000000000000e+00  6.1011753123080564e-05 3.8720650516219576e-03 0.0000000000000000e+00  3.9693198978038738e-05 3.8535662598135718e-03 0.0000000000000000e+00  6.4516238034242142e-05 3.9260327836190215e-03 0.0000000000000000e+00  4.2969425895484361e-05 3.9083577155834721e-03 0.0000000000000000e+00  6.7911659845969308e-05 3.9805644445787226e-03 0.0000000000000000e+00  4.6151998369698794e-05 3.9635703183515045e-03 0.0000000000000000e+00  7.1276254540240190e-05 4.0355357583672534e-03 0.0000000000000000e+00  4.9348175994356766e-05 4.0191087781257379e-03 0.0000000000000000e+00  7.4663959125850221e-05 4.0909016969063669e-03 0.0000000000000000e+00  5.2622558895668310e-05 4.0749776350733086e-03 0.0000000000000000e+00  7.8099256886663998e-05 4.1466588179433564e-03 0.0000000000000000e+00  5.5996965459562520e-05 4.1312205862304111e-03 0.0000000000000000e+00  5.9459990433650521e-05 4.1878860819564130e-03 0.0000000000000000e+00  6.2976648140593321e-05 4.2450113293916285e-03 0.0000000000000000e+00  6.6496107084407566e-05 4.3026137817372212e-03 0.0000000000000000e+00  6.9958127378104670e-05 4.3606858213950635e-03 0.0000000000000000e+00  7.3299166895831957e-05 4.4191911026886903e-03 0.0000000000000000e+00  7.6459531974522749e-05 4.4780612178047484e-03 0.0000000000000000e+00  7.9390525482169304e-05 4.5371971182718938e-03 0.0000000000000000e+00  8.2059369594752801e-05 4.5964763625987578e-03 0.0000000000000000e+00  8.4451050422955248e-05 4.6557627727325315e-03 0.0000000000000000e+00  8.6567592670620453e-05 4.7149153431692275e-03 0.0000000000000000e+00  8.8425472070274792e-05 4.7737951148886593e-03 0.0000000000000000e+00  9.0051450523951176e-05 4.8322695139634327e-03 0.0000000000000000e+00  9.1476544968375917e-05 4.8902134876776839e-03 0.0000000000000000e+00  9.2727680219023315e-05 4.9475054509323267e-03 0.0000000000000000e+00  9.3817182949901200e-05 5.0040154872646337e-03 0.0000000000000000e+00  9.4734145416848611e-05 5.0595833652148188e-03 0.0000000000000000e+00  9.5445236957825830e-05 5.1139887933036665e-03 0.0000000000000000e+00  9.5917009535252779e-05 5.1669186599036816e-03 0.0000000000000000e+00  9.6158414384102996e-05 5.2179337946801248e-03 0.0000000000000000e+00  9.6426326524238747e-05 5.2663213339297459e-03 0.0000000000000000e+00  9.7136808759040112e-05 5.3118970986775482e-03 0.0000000000000000e+00  9.8620180435284824e-05 5.3548822881128305e-03 0.0000000000000000e+00  1.0103791636594699e-04 5.3961805786942717e-03 0.0000000000000000e+00  1.0382414309526025e-04 5.4355191410831432e-03 0.0000000000000000e+00  1.0883612010469071e-04 5.4746225944024181e-03 0.0000000000000000e+00  1.5287837339197556e-05 3.5541128835134910e-03 0.0000000000000000e+00  1.9860509502857500e-05 3.5984674143638507e-03 0.0000000000000000e+00  -1.9458483878225244e-06 3.5747184714138825e-03 0.0000000000000000e+00  2.0539581353991351e-06 3.6231453083831514e-03 0.0000000000000000e+00  6.1484492627675580e-06 3.6733320936870820e-03 0.0000000000000000e+00  1.0208866445973267e-05 3.7255578447142929e-03 0.0000000000000000e+00  1.3903145137773382e-05 3.7797437460094338e-03 0.0000000000000000e+00  1.7179242673610095e-05 3.8349913370235062e-03 0.0000000000000000e+00  2.0194329009110690e-05 3.8906946420299553e-03 0.0000000000000000e+00  2.3141363965297992e-05 3.9465944182191775e-03 0.0000000000000000e+00  2.6164865314120036e-05 4.0026600784362825e-03 0.0000000000000000e+00  2.9336617544078820e-05 4.0589781952067895e-03 0.0000000000000000e+00  3.2668862183824646e-05 4.1156577612190244e-03 0.0000000000000000e+00  3.6134780640195677e-05 4.1727928564832982e-03 0.0000000000000000e+00  3.9682699168082903e-05 4.2304525229004773e-03 0.0000000000000000e+00  4.3244931989885286e-05 4.2886759978954083e-03 0.0000000000000000e+00  4.6744216291186287e-05 4.3474689831363243e-03 0.0000000000000000e+00  5.0099952182748124e-05 4.4067999856724476e-03 0.0000000000000000e+00  5.3237486901127915e-05 4.4665940475380611e-03 0.0000000000000000e+00  5.6098026010089628e-05 4.5267349136733958e-03 0.0000000000000000e+00  5.8644826809020903e-05 4.5870771519441406e-03 0.0000000000000000e+00  6.0864759497094880e-05 4.6474608278702758e-03 0.0000000000000000e+00  6.2766782030955443e-05 4.7077237693731950e-03 0.0000000000000000e+00  6.4378769761019140e-05 4.7677106762169796e-03 0.0000000000000000e+00  6.5743188784301326e-05 4.8272795147155318e-03 0.0000000000000000e+00  6.6910967438609239e-05 4.8863054311082659e-03 0.0000000000000000e+00  6.7932132566626309e-05 4.9446799562645740e-03 0.0000000000000000e+00  6.8840313833865577e-05 5.0023014532972598e-03 0.0000000000000000e+00  6.9630673039291246e-05 5.0590457776611567e-03 0.0000000000000000e+00  7.0245099955839154e-05 5.1147180684959891e-03 0.0000000000000000e+00  7.0585713822276871e-05 5.1689810906651017e-03 0.0000000000000000e+00  7.0595636623775693e-05 5.2213043920999371e-03 0.0000000000000000e+00  7.0562813226290432e-05 5.2703492016345829e-03 0.0000000000000000e+00  7.0957986617861823e-05 5.3157982048423150e-03 0.0000000000000000e+00  7.2513840003179944e-05 5.3582970506812471e-03 0.0000000000000000e+00  7.4606263100731817e-05 5.3989915894408240e-03 0.0000000000000000e+00  7.8710600953813320e-05 5.4400208737501836e-03 0.0000000000000000e+00  7.7541815715330116e-05 5.4744266420098178e-03 0.0000000000000000e+00  7.6872910807641932e-05 5.5076279549755849e-03 0.0000000000000000e+00  -2.2084700144602804e-05 3.5999363724322714e-03 0.0000000000000000e+00  -1.7728126922794449e-05 3.6507486206742560e-03 0.0000000000000000e+00  -1.3409370959022673e-05 3.7039836891298332e-03 0.0000000000000000e+00  -9.7266416529551085e-06 3.7597836894595195e-03 0.0000000000000000e+00  -6.6775004156991642e-06 3.8164298795499841e-03 0.0000000000000000e+00  -3.9471512403311723e-06 3.8731320757858763e-03 0.0000000000000000e+00  -1.2383096227782692e-06 3.9296911498474816e-03 0.0000000000000000e+00  1.6355900089853465e-06 3.9862049837273107e-03 0.0000000000000000e+00  4.7424985067122888e-06 4.0428904142456408e-03 0.0000000000000000e+00  8.0733896426153415e-06 4.0999403550464122e-03 0.0000000000000000e+00  1.1579352913714042e-05 4.1574990772847145e-03 0.0000000000000000e+00  1.5189150713763724e-05 4.2156690538142959e-03 0.0000000000000000e+00  1.8816893625285160e-05 4.2745127909793283e-03 0.0000000000000000e+00  2.2366647297938038e-05 4.3340511344494275e-03 0.0000000000000000e+00  2.5737587457875003e-05 4.3942589153689758e-03 0.0000000000000000e+00  2.8836858060163649e-05 4.4550509617543614e-03 0.0000000000000000e+00  3.1594082669022943e-05 4.5162853779577182e-03 0.0000000000000000e+00  3.3968901369096865e-05 4.5777844403585228e-03 0.0000000000000000e+00  3.5951249180605039e-05 4.6393566233983033e-03 0.0000000000000000e+00  3.7558192524971844e-05 4.7008123775685497e-03 0.0000000000000000e+00  3.8829924447167691e-05 4.7619748801669059e-03 0.0000000000000000e+00  3.9825710277453754e-05 4.8226879593629415e-03 0.0000000000000000e+00  4.0618943606248114e-05 4.8828232413938326e-03 0.0000000000000000e+00  4.1289805201866301e-05 4.9422849363771606e-03 0.0000000000000000e+00  4.1909898684472699e-05 5.0010111388805760e-03 0.0000000000000000e+00  4.2509836399286008e-05 5.0589525822292520e-03 0.0000000000000000e+00  4.3015539250354284e-05 5.1159970459366301e-03 0.0000000000000000e+00  4.3246273519306731e-05 5.1718508296008372e-03 0.0000000000000000e+00  4.2951921646212700e-05 5.2258499092677812e-03 0.0000000000000000e+00  4.2979831113472175e-05 5.2757945920623153e-03 0.0000000000000000e+00  4.3104207125441506e-05 5.3210051581239984e-03 0.0000000000000000e+00  4.4080572710515193e-05 5.3617822545011240e-03 0.0000000000000000e+00  4.7724322469506148e-05 5.4036592739851010e-03 0.0000000000000000e+00  4.6278327292648915e-05 5.4396380888542409e-03 0.0000000000000000e+00  4.5716224470884901e-05 5.4740610558197643e-03 0.0000000000000000e+00  4.5258716242952168e-05 5.5074096742072313e-03 0.0000000000000000e+00  4.5093767085410061e-05 5.5396865126737622e-03 0.0000000000000000e+00  -4.3207929672152237e-05 3.6271189749886180e-03 0.0000000000000000e+00  -3.8494681196490479e-05 3.6814445492837546e-03 0.0000000000000000e+00  -3.4800204606346716e-05 3.7396301241876093e-03 0.0000000000000000e+00  -3.2022624186868546e-05 3.7980264410800595e-03 0.0000000000000000e+00  -2.9593353490328151e-05 3.8557837534102888e-03 0.0000000000000000e+00  -2.7093051018276561e-05 3.9129120408144154e-03 0.0000000000000000e+00  -2.4305142374715220e-05 3.9697390426483344e-03 0.0000000000000000e+00  -2.1190698546206826e-05 4.0266790774952099e-03 0.0000000000000000e+00  -1.7797071052904272e-05 4.0840195780656643e-03 0.0000000000000000e+00  -1.4200534785028930e-05 4.1419501783878715e-03 0.0000000000000000e+00  -1.0491428870967434e-05 4.2006044432138555e-03 0.0000000000000000e+00  -6.7721604739300822e-06 4.2600689831406666e-03 0.0000000000000000e+00  -3.1573104708259756e-06 4.3203832495136880e-03 0.0000000000000000e+00  2.2822277936832289e-07 4.3815331393070676e-03 0.0000000000000000e+00  3.2691425565745378e-06 4.4434182008358724e-03 0.0000000000000000e+00  5.8823802006080383e-06 4.5058580029094381e-03 0.0000000000000000e+00  8.0254693993570830e-06 4.5686299555411499e-03 0.0000000000000000e+00  9.6933780090793199e-06 4.6315019640794913e-03 0.0000000000000000e+00  1.0912253939657625e-05 4.6942508417935330e-03 0.0000000000000000e+00  1.1734064213286152e-05 4.7566730933921034e-03 0.0000000000000000e+00  1.2232939632609577e-05 4.8185928629934146e-03 0.0000000000000000e+00  1.2501928002877598e-05 4.8798716395003945e-03 0.0000000000000000e+00  1.2650062886737012e-05 4.9404179572135167e-03 0.0000000000000000e+00  1.2793699694499771e-05 5.0002059489849945e-03 0.0000000000000000e+00  1.3032986428005073e-05 5.0592869060388981e-03 0.0000000000000000e+00  1.3366170493397670e-05 5.1177732365722184e-03 0.0000000000000000e+00  1.3433409702148750e-05 5.1755058767726072e-03 0.0000000000000000e+00  1.2792686590376015e-05 5.2319776050131885e-03 0.0000000000000000e+00  1.2528529937355784e-05 5.2817811959294360e-03 0.0000000000000000e+00  1.5790168659804730e-05 5.3286639747630940e-03 0.0000000000000000e+00  1.4233414981804707e-05 5.3665555861186097e-03 0.0000000000000000e+00  1.3459854938601582e-05 5.4034528185183681e-03 0.0000000000000000e+00  1.2877802914008569e-05 5.4393271594120746e-03 0.0000000000000000e+00  1.2519711112453229e-05 5.4738852475778674e-03 0.0000000000000000e+00  1.2416859121852077e-05 5.5073979487031202e-03 0.0000000000000000e+00  1.2494428018151393e-05 5.5397711771867962e-03 0.0000000000000000e+00  1.3102734245732121e-05 5.5707086628434309e-03 0.0000000000000000e+00  -6.5480379041706852e-05 3.6573990589806949e-03 0.0000000000000000e+00  -6.1612549642571914e-05 3.7194830074972428e-03 0.0000000000000000e+00  -5.9080131120014135e-05 3.7800121437086788e-03 0.0000000000000000e+00  -5.6890015268840980e-05 3.8387863222716432e-03 0.0000000000000000e+00  -5.4495455996497647e-05 3.8962923995075256e-03 0.0000000000000000e+00  -5.1668226335422701e-05 3.9532233604989021e-03 0.0000000000000000e+00  -4.8434377017506777e-05 4.0102801367981151e-03 0.0000000000000000e+00  -4.4895984754455805e-05 4.0678278710595678e-03 0.0000000000000000e+00  -4.1154194978753350e-05 4.1260792335486296e-03 0.0000000000000000e+00  -3.7311026343692780e-05 4.1851924095727688e-03 0.0000000000000000e+00  -3.3478799172288710e-05 4.2452794321995212e-03 0.0000000000000000e+00  -2.9788312916098388e-05 4.3064058871278817e-03 0.0000000000000000e+00  -2.6394501752946420e-05 4.3685812477047420e-03 0.0000000000000000e+00  -2.3441238482921214e-05 4.4316817001598761e-03 0.0000000000000000e+00  -2.1024178039234272e-05 4.4954672782207706e-03 0.0000000000000000e+00  -1.9183953467457283e-05 4.5596536000832334e-03 0.0000000000000000e+00  -1.7917076743364449e-05 4.6239587872742814e-03 0.0000000000000000e+00  -1.7187260293888216e-05 4.6881210633307330e-03 0.0000000000000000e+00  -1.6932640741107263e-05 4.7519066190610665e-03 0.0000000000000000e+00  -1.7069105303406567e-05 4.8151152852519046e-03 0.0000000000000000e+00  -1.7492778233924275e-05 4.8775919767651346e-03 0.0000000000000000e+00  -1.8079255871816167e-05 4.9392368155584260e-03 0.0000000000000000e+00  -1.8686895659761219e-05 5.0000408120119038e-03 0.0000000000000000e+00  -1.9160785107887644e-05 5.0601312466622538e-03 0.0000000000000000e+00  -1.9383144446422207e-05 5.1199067348311174e-03 0.0000000000000000e+00  -1.9442633210484729e-05 5.1801004537679963e-03 0.0000000000000000e+00  -2.1439407671290425e-05 5.2399005866435693e-03 0.0000000000000000e+00  -1.9932392287942088e-05 5.2901568635567156e-03 0.0000000000000000e+00  -2.0532775135079830e-05 5.3284909463976841e-03 0.0000000000000000e+00  -2.0961485177709082e-05 5.3660977510102507e-03 0.0000000000000000e+00  -2.1541240944896870e-05 5.4032063941738019e-03 0.0000000000000000e+00  -2.1825086222012208e-05 5.4391710710248488e-03 0.0000000000000000e+00  -2.1856526428057788e-05 5.4739087527440940e-03 0.0000000000000000e+00  -2.1699246358984831e-05 5.5075337704941583e-03 0.0000000000000000e+00  -2.1155444700657795e-05 5.5400016149527677e-03 0.0000000000000000e+00  -2.4055651000997832e-05 5.5780177004840295e-03 0.0000000000000000e+00  -2.8664515787518174e-05 5.6153982515719340e-03 0.0000000000000000e+00  -9.0643503857715620e-05 3.6997866115656146e-03 0.0000000000000000e+00  -8.8047958022636108e-05 3.7626847310877004e-03 0.0000000000000000e+00  -8.5876872499824440e-05 3.8222725494927103e-03 0.0000000000000000e+00  -8.3396277937479400e-05 3.8798295953205893e-03 0.0000000000000000e+00  -8.0346370768188239e-05 3.9365666431290698e-03 0.0000000000000000e+00  -7.6859238020786326e-05 3.9935992435305885e-03 0.0000000000000000e+00  -7.3098635715563765e-05 4.0512859985582404e-03 0.0000000000000000e+00  -6.9172776297009918e-05 4.1098154056900399e-03 0.0000000000000000e+00  -6.5179442857646775e-05 4.1693638444122360e-03 0.0000000000000000e+00  -6.1229220806790393e-05 4.2300726673137716e-03 0.0000000000000000e+00  -5.7464259628425926e-05 4.2920491536928961e-03 0.0000000000000000e+00  -5.4081102860356882e-05 4.3553560546392795e-03 0.0000000000000000e+00  -5.1261528998906768e-05 4.4198301697914400e-03 0.0000000000000000e+00  -4.9110198367997608e-05 4.4851356736777797e-03 0.0000000000000000e+00  -4.7657354055458963e-05 4.5509042791352884e-03 0.0000000000000000e+00  -4.6885295348473511e-05 4.6167969850032806e-03 0.0000000000000000e+00  -4.6746215571762992e-05 4.6825115470541384e-03 0.0000000000000000e+00  -4.7170746549657946e-05 4.7477830326380314e-03 0.0000000000000000e+00  -4.8070379299556484e-05 4.8123843538087612e-03 0.0000000000000000e+00  -4.9340791125563496e-05 4.8761406285727123e-03 0.0000000000000000e+00  -5.0858657589048250e-05 4.9389324900600499e-03 0.0000000000000000e+00  -5.2491199406262162e-05 5.0007497055636228e-03 0.0000000000000000e+00  -5.4094384244013758e-05 5.0617391721016246e-03 0.0000000000000000e+00  -5.5559995599792530e-05 5.1224784894262042e-03 0.0000000000000000e+00  -5.6795615336703799e-05 5.1843121960081506e-03 0.0000000000000000e+00  -5.7124267302845572e-05 5.2520001600687306e-03 0.0000000000000000e+00  -5.7013189491364465e-05 5.2897488431361776e-03 0.0000000000000000e+00  -5.7346974992913719e-05 5.3282235849207689e-03 0.0000000000000000e+00  -5.7657348331115383e-05 5.3659664352634206e-03 0.0000000000000000e+00  -5.7822926486987881e-05 5.4031082918283907e-03 0.0000000000000000e+00  -5.7811991627645712e-05 5.4392036360004052e-03 0.0000000000000000e+00  -5.7570963303842984e-05 5.4741402831463603e-03 0.0000000000000000e+00  -5.5926227165017862e-05 5.5075485131766983e-03 0.0000000000000000e+00  -5.9336770446783366e-05 5.5475446315460973e-03 0.0000000000000000e+00  -6.4099751948463860e-05 5.5867920789739716e-03 0.0000000000000000e+00  -6.8922892589569194e-05 5.6251600610532923e-03 0.0000000000000000e+00  -7.3986223488199917e-05 5.6623326929534021e-03 0.0000000000000000e+00  -1.1848016516558060e-04 3.7464161151462821e-03 0.0000000000000000e+00  -1.1616442120625706e-04 3.8063852817460235e-03 0.0000000000000000e+00  -1.1346864812874836e-04 3.8634887437990