<?xml version="1.0"?>
<VTKFile type="UnstructuredGrid"  version="0.1"  >
<UnstructuredGrid>
<Piece  NumberOfPoints="607" NumberOfCells="1112">
<Points>
<DataArray  type="Float64"  NumberOfComponents="3"  format="ascii">0.4130434782608696 0 0  0.4295652173913043 0 0  0.4295652173913043 0.01666666666666667 0  0.4460869565217391 0 0  0.4460869565217391 0.01666666666666667 0  0.4626086956521739 0 0  0.4626086956521739 0.01666666666666667 0  0.4791304347826086 0 0  0.4791304347826086 0.01666666666666667 0  0.4956521739130435 0 0  0.4956521739130435 0.01666666666666667 0  0.5121739130434783 0 0  0.5121739130434783 0.01666666666666667 0  0.528695652173913 0 0  0.528695652173913 0.01666666666666667 0  0.5452173913043478 0 0  0.5452173913043478 0.01666666666666667 0  0.5617391304347825 0 0  0.5617391304347825 0.01666666666666667 0  0.5782608695652174 0 0  0.5782608695652174 0.01666666666666667 0  0.5947826086956521 0 0  0.5947826086956521 0.01666666666666667 0  0.6113043478260869 0 0  0.6113043478260869 0.01666666666666667 0  0.6278260869565218 0 0  0.6278260869565218 0.01666666666666667 0  0.6443478260869565 0 0  0.6443478260869565 0.01666666666666667 0  0.6608695652173913 0 0  0.6608695652173913 0.01666666666666667 0  0.677391304347826 0 0  0.677391304347826 0.01666666666666667 0  0.6939130434782609 0 0  0.6939130434782609 0.01666666666666667 0  0.7104347826086956 0 0  0.7104347826086956 0.01666666666666667 0  0.4460869565217391 0.03333333333333333 0  0.4626086956521739 0.03333333333333333 0  0.4791304347826086 0.03333333333333333 0  0.4956521739130435 0.03333333333333333 0  0.5121739130434783 0.03333333333333333 0  0.528695652173913 0.03333333333333333 0  0.5452173913043478 0.03333333333333333 0  0.5617391304347825 0.03333333333333333 0  0.5782608695652174 0.03333333333333333 0  0.5947826086956521 0.03333333333333333 0  0.6113043478260869 0.03333333333333333 0  0.6278260869565218 0.03333333333333333 0  0.6443478260869565 0.03333333333333333 0  0.6608695652173913 0.03333333333333333 0  0.677391304347826 0.03333333333333333 0  0.6939130434782609 0.03333333333333333 0  0.7104347826086956 0.03333333333333333 0  0.4626086956521739 0.05 0  0.4791304347826086 0.05 0  0.4956521739130435 0.05 0  0.5121739130434783 0.05 0  0.528695652173913 0.05 0  0.5452173913043478 0.05 0  0.5617391304347825 0.05 0  0.5782608695652174 0.05 0  0.5947826086956521 0.05 0  0.6113043478260869 0.05 0  0.6278260869565218 0.05 0  0.6443478260869565 0.05 0  0.6608695652173913 0.05 0  0.677391304347826 0.05 0  0.6939130434782609 0.05 0  0.7104347826086956 0.05 0  0.7269565217391304 0.05 0  0.4791304347826086 0.06666666666666667 0  0.4956521739130435 0.06666666666666667 0  0.5121739130434783 0.06666666666666667 0  0.528695652173913 0.06666666666666667 0  0.5452173913043478 0.06666666666666667 0  0.5617391304347825 0.06666666666666667 0  0.5782608695652174 0.06666666666666667 0  0.5947826086956521 0.06666666666666667 0  0.6113043478260869 0.06666666666666667 0  0.6278260869565218 0.06666666666666667 0  0.6443478260869565 0.06666666666666667 0  0.6608695652173913 0.06666666666666667 0  0.677391304347826 0.06666666666666667 0  0.6939130434782609 0.06666666666666667 0  0.7104347826086956 0.06666666666666667 0  0.7269565217391304 0.06666666666666667 0  0.7434782608695653 0.06666666666666667 0  0.4956521739130435 0.08333333333333333 0  0.5121739130434783 0.08333333333333333 0  0.528695652173913 0.08333333333333333 0  0.5452173913043478 0.08333333333333333 0  0.5617391304347825 0.08333333333333333 0  0.5782608695652174 0.08333333333333333 0  0.5947826086956521 0.08333333333333333 0  0.6113043478260869 0.08333333333333333 0  0.6278260869565218 0.08333333333333333 0  0.6443478260869565 0.08333333333333333 0  0.6608695652173913 0.08333333333333333 0  0.677391304347826 0.08333333333333333 0  0.6939130434782609 0.08333333333333333 0  0.7104347826086956 0.08333333333333333 0  0.7269565217391304 0.08333333333333333 0  0.7434782608695653 0.08333333333333333 0  0.7599999999999999 0.08333333333333333 0  0.5121739130434783 0.1 0  0.528695652173913 0.1 0  0.5452173913043478 0.1 0  0.5617391304347825 0.1 0  0.5782608695652174 0.1 0  0.5947826086956521 0.1 0  0.6113043478260869 0.1 0  0.6278260869565218 0.1 0  0.6443478260869565 0.1 0  0.6608695652173913 0.1 0  0.677391304347826 0.1 0  0.6939130434782609 0.1 0  0.7104347826086956 0.1 0  0.7269565217391304 0.1 0  0.7434782608695653 0.1 0  0.7599999999999999 0.1 0  0.7765217391304348 0.1 0  0.528695652173913 0.1166666666666667 0  0.5452173913043478 0.1166666666666667 0  0.5617391304347825 0.1166666666666667 0  0.5782608695652174 0.1166666666666667 0  0.5947826086956521 0.1166666666666667 0  0.6113043478260869 0.1166666666666667 0  0.6278260869565218 0.1166666666666667 0  0.6443478260869565 0.1166666666666667 0  0.6608695652173913 0.1166666666666667 0  0.677391304347826 0.1166666666666667 0  0.6939130434782609 0.1166666666666667 0  0.7104347826086956 0.1166666666666667 0  0.7269565217391304 0.1166666666666667 0  0.7434782608695653 0.1166666666666667 0  0.7599999999999999 0.1166666666666667 0  0.7765217391304348 0.1166666666666667 0  0.7930434782608695 0.1166666666666667 0  0.5452173913043478 0.1333333333333333 0  0.5617391304347825 0.1333333333333333 0  0.5782608695652174 0.1333333333333333 0  0.5947826086956521 0.1333333333333333 0  0.6113043478260869 0.1333333333333333 0  0.6278260869565218 0.1333333333333333 0  0.6443478260869565 0.1333333333333333 0  0.6608695652173913 0.1333333333333333 0  0.677391304347826 0.1333333333333333 0  0.6939130434782609 0.1333333333333333 0  0.7104347826086956 0.1333333333333333 0  0.7269565217391304 0.1333333333333333 0  0.7434782608695653 0.1333333333333333 0  0.7599999999999999 0.1333333333333333 0  0.7765217391304348 0.1333333333333333 0  0.7930434782608695 0.1333333333333333 0  0.8095652173913043 0.1333333333333333 0  0.5617391304347825 0.15 0  0.5782608695652174 0.15 0  0.5947826086956521 0.15 0  0.6113043478260869 0.15 0  0.6278260869565218 0.15 0  0.6443478260869565 0.15 0  0.6608695652173913 0.15 0  0.677391304347826 0.15 0  0.6939130434782609 0.15 0  0.7104347826086956 0.15 0  0.7269565217391304 0.15 0  0.7434782608695653 0.15 0  0.7599999999999999 0.15 0  0.7765217391304348 0.15 0  0.7930434782608695 0.15 0  0.8095652173913043 0.15 0  0.8260869565217391 0.15 0  0.5782608695652174 0.1666666666666667 0  0.5947826086956521 0.1666666666666667 0  0.6113043478260869 0.1666666666666667 0  0.6278260869565218 0.1666666666666667 0  0.6443478260869565 0.1666666666666667 0  0.6608695652173913 0.1666666666666667 0  0.677391304347826 0.1666666666666667 0  0.6939130434782609 0.1666666666666667 0  0.7104347826086956 0.1666666666666667 0  0.7269565217391304 0.1666666666666667 0  0.7434782608695653 0.1666666666666667 0  0.7599999999999999 0.1666666666666667 0  0.7765217391304348 0.1666666666666667 0  0.7930434782608695 0.1666666666666667 0  0.8095652173913043 0.1666666666666667 0  0.8260869565217391 0.1666666666666667 0  0.8426086956521739 0.1666666666666667 0  0.5947826086956521 0.1833333333333333 0  0.5782608695652174 0.1833333333333333 0  0.6113043478260869 0.1833333333333333 0  0.6278260869565218 0.1833333333333333 0  0.6443478260869565 0.1833333333333333 0  0.6608695652173913 0.1833333333333333 0  0.677391304347826 0.1833333333333333 0  0.6939130434782609 0.1833333333333333 0  0.7104347826086956 0.1833333333333333 0  0.7269565217391304 0.1833333333333333 0  0.7434782608695653 0.1833333333333333 0  0.7599999999999999 0.1833333333333333 0  0.7765217391304348 0.1833333333333333 0  0.7930434782608695 0.1833333333333333 0  0.8095652173913043 0.1833333333333333 0  0.8260869565217391 0.1833333333333333 0  0.8426086956521739 0.1833333333333333 0  0.8591304347826086 0.1833333333333333 0  0.5947826086956521 0.2 0  0.5782608695652174 0.2 0  0.6113043478260869 0.2 0  0.6278260869565218 0.2 0  0.6443478260869565 0.2 0  0.6608695652173913 0.2 0  0.677391304347826 0.2 0  0.6939130434782609 0.2 0  0.7104347826086956 0.2 0  0.7269565217391304 0.2 0  0.7434782608695653 0.2 0  0.7599999999999999 0.2 0  0.7765217391304348 0.2 0  0.7930434782608695 0.2 0  0.8095652173913043 0.2 0  0.8260869565217391 0.2 0  0.8426086956521739 0.2 0  0.8591304347826086 0.2 0  0.8756521739130434 0.2 0  0.5947826086956521 0.2166666666666667 0  0.5782608695652174 0.2166666666666667 0  0.6113043478260869 0.2166666666666667 0  0.6278260869565218 0.2166666666666667 0  0.6443478260869565 0.2166666666666667 0  0.6608695652173913 0.2166666666666667 0  0.677391304347826 0.2166666666666667 0  0.6939130434782609 0.2166666666666667 0  0.7104347826086956 0.2166666666666667 0  0.7269565217391304 0.2166666666666667 0  0.7434782608695653 0.2166666666666667 0  0.7599999999999999 0.2166666666666667 0  0.7765217391304348 0.2166666666666667 0  0.7930434782608695 0.2166666666666667 0  0.8095652173913043 0.2166666666666667 0  0.8260869565217391 0.2166666666666667 0  0.8426086956521739 0.2166666666666667 0  0.8591304347826086 0.2166666666666667 0  0.8756521739130434 0.2166666666666667 0  0.8921739130434783 0.2166666666666667 0  0.5947826086956521 0.2333333333333333 0  0.5782608695652174 0.2333333333333333 0  0.6113043478260869 0.2333333333333333 0  0.6278260869565218 0.2333333333333333 0  0.6443478260869565 0.2333333333333333 0  0.6608695652173913 0.2333333333333333 0  0.677391304347826 0.2333333333333333 0  0.6939130434782609 0.2333333333333333 0  0.7104347826086956 0.2333333333333333 0  0.7269565217391304 0.2333333333333333 0  0.7434782608695653 0.2333333333333333 0  0.7599999999999999 0.2333333333333333 0  0.7765217391304348 0.2333333333333333 0  0.7930434782608695 0.2333333333333333 0  0.8095652173913043 0.2333333333333333 0  0.8260869565217391 0.2333333333333333 0  0.8426086956521739 0.2333333333333333 0  0.8591304347826086 0.2333333333333333 0  0.8756521739130434 0.2333333333333333 0  0.8921739130434783 0.2333333333333333 0  0.908695652173913 0.2333333333333333 0  0.5947826086956521 0.25 0  0.6113043478260869 0.25 0  0.6278260869565218 0.25 0  0.6443
[...]
<PointData  Vectors="Displacement"> 
<DataArray  type="Float64"  Name="Displacement"  NumberOfComponents="3" format="ascii">1.1051610002119402e-04 7.7141165202023485e-04 0.0000000000000000e+00  1.0981274464556735e-04 8.0547314747349708e-04 0.0000000000000000e+00  7.6425552574514846e-05 8.0550518663051896e-04 0.0000000000000000e+00  1.0898445640694861e-04 8.3785195231937800e-04 0.0000000000000000e+00  7.7116914536762480e-05 8.3794930000038613e-04 0.0000000000000000e+00  1.0818015374535400e-04 8.6858205173269778e-04 0.0000000000000000e+00  7.7670377045256867e-05 8.6867926569843311e-04 0.0000000000000000e+00  1.0751450954724862e-04 8.9795222527145810e-04 0.0000000000000000e+00  7.8135434578392677e-05 8.9803490024807913e-04 0.0000000000000000e+00  1.0707574930432569e-04 9.2621079574094006e-04 0.0000000000000000e+00  7.8563132860381144e-05 9.2626085684626184e-04 0.0000000000000000e+00  1.0698600900302688e-04 9.5357790187040805e-04 0.0000000000000000e+00  7.9039428355704802e-05 9.5355375674110565e-04 0.0000000000000000e+00  1.0743134649098251e-04 9.8030481973181453e-04 0.0000000000000000e+00  7.9705619372253555e-05 9.8013047961559708e-04 0.0000000000000000e+00  1.0859399562890927e-04 1.0068188439024412e-03 0.0000000000000000e+00  8.0698279997301297e-05 1.0064270379730870e-03 0.0000000000000000e+00  1.1053614171864161e-04 1.0337254353987614e-03 0.0000000000000000e+00  8.2068323480033817e-05 1.0331010967106113e-03 0.0000000000000000e+00  1.1310884956825161e-04 1.0617059704518248e-03 0.0000000000000000e+00  8.3716205064828964e-05 1.0609076495650559e-03 0.0000000000000000e+00  1.1600228438164966e-04 1.0912208134635948e-03 0.0000000000000000e+00  8.5497502998655583e-05 1.0903282605536795e-03 0.0000000000000000e+00  1.1897628854387913e-04 1.1222706823659390e-03 0.0000000000000000e+00  8.7440806113564683e-05 1.1212127541612045e-03 0.0000000000000000e+00  1.2192590927798031e-04 1.1538259478105536e-03 0.0000000000000000e+00  9.0348123756126315e-05 1.1527633911504280e-03 0.0000000000000000e+00  1.2481859539612954e-04 1.1850249867691547e-03 0.0000000000000000e+00  9.3690517386371707e-05 1.1839742849525071e-03 0.0000000000000000e+00  1.2766846258072630e-04 1.2156324782540656e-03 0.0000000000000000e+00  9.7123835364145843e-05 1.2146005197186099e-03 0.0000000000000000e+00  1.3052479021065020e-04 1.2455728573001971e-03 0.0000000000000000e+00  1.0056417625708352e-04 1.2445362230648640e-03 0.0000000000000000e+00  1.3339875866439488e-04 1.2749830186283757e-03 0.0000000000000000e+00  1.0395457086567010e-04 1.2739446272796600e-03 0.0000000000000000e+00  1.3627422725016389e-04 1.3039201385882811e-03 0.0000000000000000e+00  1.0731314987735440e-04 1.3028940914239281e-03 0.0000000000000000e+00  4.5581005682486623e-05 8.3771333927539003e-04 0.0000000000000000e+00  4.7350717931264018e-05 8.6846514862734103e-04 0.0000000000000000e+00  4.8783012850174819e-05 8.9789924737962185e-04 0.0000000000000000e+00  4.9879080448989153e-05 9.2622646708815726e-04 0.0000000000000000e+00  5.0689014805463444e-05 9.5357576474599289e-04 0.0000000000000000e+00  5.1379461918652583e-05 9.8005390097770330e-04 0.0000000000000000e+00  5.2144553301270646e-05 1.0061098624589984e-03 0.0000000000000000e+00  5.3078409646545786e-05 1.0325136386130055e-03 0.0000000000000000e+00  5.4037421320557799e-05 1.0602312380870599e-03 0.0000000000000000e+00  5.4739630128290264e-05 1.0897068431291955e-03 0.0000000000000000e+00  5.5498857128952547e-05 1.1204468619925485e-03 0.0000000000000000e+00  5.7407348672431796e-05 1.1517678524334577e-03 0.0000000000000000e+00  6.1585064670825634e-05 1.1828778442404865e-03 0.0000000000000000e+00  6.6007434876042966e-05 1.2134550497272429e-03 0.0000000000000000e+00  7.0791831181764645e-05 1.2433896586559990e-03 0.0000000000000000e+00  7.4571023139522743e-05 1.2728038040972472e-03 0.0000000000000000e+00  7.8202851897003685e-05 1.3017605776614166e-03 0.0000000000000000e+00  1.7848773965495564e-05 8.6801748639950781e-04 0.0000000000000000e+00  2.0100366813071170e-05 8.9763673276444238e-04 0.0000000000000000e+00  2.1732402294162729e-05 9.2623662484700225e-04 0.0000000000000000e+00  2.2735072470815890e-05 9.5381605248226378e-04 0.0000000000000000e+00  2.3326519588716087e-05 9.8020432465824054e-04 0.0000000000000000e+00  2.3819657904474223e-05 1.0058595337669319e-03 0.0000000000000000e+00  2.4428284852644558e-05 1.0317633436489053e-03 0.0000000000000000e+00  2.4973646927056439e-05 1.0593355399996173e-03 0.0000000000000000e+00  2.5214891007869146e-05 1.0890833942375582e-03 0.0000000000000000e+00  2.5001357900936342e-05 1.1199710629860359e-03 0.0000000000000000e+00  2.9002410906579485e-05 1.1438679125582284e-03 0.0000000000000000e+00  3.4280042072944504e-05 1.1716481089515049e-03 0.0000000000000000e+00  3.9807803243521325e-05 1.2003125295342123e-03 0.0000000000000000e+00  4.5316345301190172e-05 1.2289381728569275e-03 0.0000000000000000e+00  5.0636487412901789e-05 1.2575097770026408e-03 0.0000000000000000e+00  5.5769020418519164e-05 1.2857177752355850e-03 0.0000000000000000e+00  6.0773350817567747e-05 1.3136725750519573e-03 0.0000000000000000e+00  -7.3490465579272051e-06 8.9729733248948378e-04 0.0000000000000000e+00  -5.2710571424418429e-06 9.2636005168906946e-04 0.0000000000000000e+00  -4.1048956347832161e-06 9.5443444011707363e-04 0.0000000000000000e+00  -3.6227998835906500e-06 9.8072760176584400e-04 0.0000000000000000e+00  -3.3972207281963745e-06 1.0056686821606992e-03 0.0000000000000000e+00  -2.9466307588545430e-06 1.0305162230451565e-03 0.0000000000000000e+00  -2.2904907634619938e-06 1.0575066977444626e-03 0.0000000000000000e+00  -2.0243315784144200e-06 1.0868424620730410e-03 0.0000000000000000e+00  1.2649325742493328e-06 1.1105478783350203e-03 0.0000000000000000e+00  6.2350255096735307e-06 1.1340224553152050e-03 0.0000000000000000e+00  1.1273529572336014e-05 1.1597232322628223e-03 0.0000000000000000e+00  1.6875159666124696e-05 1.1866654083710496e-03 0.0000000000000000e+00  2.2822122693551045e-05 1.2139992157899884e-03 0.0000000000000000e+00  2.8926372619963585e-05 1.2414738123993768e-03 0.0000000000000000e+00  3.5099496373837043e-05 1.2688718816184336e-03 0.0000000000000000e+00  4.1254771568912848e-05 1.2962022949758872e-03 0.0000000000000000e+00  4.7341237295404713e-05 1.3235532505740237e-03 0.0000000000000000e+00  -3.1257141620309097e-05 9.2639272013758851e-04 0.0000000000000000e+00  -2.9327088244871312e-05 9.5555189570202873e-04 0.0000000000000000e+00  -2.8686026534553010e-05 9.8180971819004600e-04 0.0000000000000000e+00  -2.8643003991371019e-05 1.0057404051019348e-03 0.0000000000000000e+00  -2.8612616304293640e-05 1.0286507674662812e-03 0.0000000000000000e+00  -2.7737276265114344e-05 1.0539935083457303e-03 0.0000000000000000e+00  -2.4599900718717649e-05 1.0769284201618740e-03 0.0000000000000000e+00  -1.9897289321039981e-05 1.1000454860768782e-03 0.0000000000000000e+00  -1.4977865236019890e-05 1.1230318425273493e-03 0.0000000000000000e+00  -9.7568859812543322e-06 1.1473947759090917e-03 0.0000000000000000e+00  -3.9746142374940920e-06 1.1727342609243894e-03 0.0000000000000000e+00  2.3472292027930405e-06 1.1986623247856464e-03 0.0000000000000000e+00  9.0563530192176394e-06 1.2249347438574067e-03 0.0000000000000000e+00  1.6023085291413176e-05 1.2513830549107507e-03 0.0000000000000000e+00  2.3123351377093016e-05 1.2779864140943359e-03 0.0000000000000000e+00  3.0260903297728800e-05 1.3047850813574602e-03 0.0000000000000000e+00  3.7367719130842897e-05 1.3318116033406734e-03 0.0000000000000000e+00  -5.0701761159445099e-05 9.5811015425996795e-04 0.0000000000000000e+00  -5.0536908667335317e-05 9.8361484463190484e-04 0.0000000000000000e+00  -5.0443210108927325e-05 1.0061869080291641e-03 0.0000000000000000e+00  -5.0310608618750461e-05 1.0267046998476798e-03 0.0000000000000000e+00  -4.9691884537040885e-05 1.0447331805418171e-03 0.0000000000000000e+00  -4.5487036210215917e-05 1.0659206054723811e-03 0.0000000000000000e+00  -4.0579887315187721e-05 1.0890035475415265e-03 0.0000000000000000e+00  -3.5332377863322303e-05 1.1114414381145341e-03 0.0000000000000000e+00  -2.9671624285982001e-05 1.1345203918232407e-03 0.0000000000000000e+00  -2.3436741881679506e-05 1.1583805235040997e-03 0.0000000000000000e+00  -1.6633850560298380e-05 1.1828883491211183e-03 0.0000000000000000e+00  -9.3464853297307377e-06 1.2078995835495075e-03 0.0000000000000000e+00  -1.6843645863555757e-06 1.2333031550408034e-03 0.0000000000000000e+00  6.2269144790884567e-06 1.2590838834494232e-03 0.0000000000000000e+00  1.4268127411589188e-05 1.2852630342185007e-03 0.0000000000000000e+00  2.2339861735941614e-05 1.3118488876616092e-03 0.0000000000000000e+00  3.0364566130210632e-05 1.3388244805974043e-03 0.0000000000000000e+00  -6.8758832104126754e-05 9.8660316477524571e-04 0.0000000000000000e+00  -6.8859521505359065e-05 1.0073375702169048e-03 0.0000000000000000e+00  -6.8789080187936960e-05 1.0257162667991831e-03 0.0000000000000000e+00  -6.8627250995110904e-05 1.0413910837592983e-03 0.0000000000000000e+00  -6.8232641631066766e-05 1.0532286075083219e-03 0.0000000000000000e+00  -6.1298319503570229e-05 1.0777844876950957e-03 0.0000000000000000e+00  -5.5071681615110743e-05 1.0992596717162044e-03 0.0000000000000000e+00  -4.8627495416526949e-05 1.1210189050857168e-03 0.0000000000000000e+00  -4.1756719973542371e-05 1.1434634906461513e-03 0.0000000000000000e+00  -3.4385337247377597e-05 1.1665866563038863e-03 0.0000000000000000e+00  -2.6517344587460234e-05 1.1903202176902193e-03 0.0000000000000000e+00  -1.8209743475331648e-05 1.2146175541894923e-03 0.0000000000000000e+00  -9.5713622434413388e-06 1.2395064980144589e-03 0.0000000000000000e+00  -7.3411208250394848e-07 1.2650172771276214e-03 0.0000000000000000e+00  8.1782508271293306e-06 1.2911407422854743e-03 0.0000000000000000e+00  1.7064321489703336e-05 1.3178345174881922e-03 0.0000000000000000e+00  2.5845806063724188e-05 1.3450400393521845e-03 0.0000000000000000e+00  -8.3853065496207956e-05 1.0093316038758732e-03 0.0000000000000000e+00  -8.3708414267811995e-05 1.0256102826774300e-03 0.0000000000000000e+00  -8.3367221700878836e-05 1.0395922168007772e-03 0.0000000000000000e+00  -8.3088035987033125e-05 1.0505246553244244e-03 0.0000000000000000e+00  -7.9469225587708704e-05 1.0668902940468193e-03 0.0000000000000000e+00  -7.3107219988110427e-05 1.0864952220703047e-03 0.0000000000000000e+00  -6.6193665388266127e-05 1.1068554931559170e-03 0.0000000000000000e+00  -5.8829443277689764e-05 1.1279375948942854e-03 0.0000000000000000e+00  -5.0968389595379704e-05 1.1497118085623767e-03 0.0000000000000000e+00  -4.2580483249759310e-05 1.1721563818935538e-03 0.0000000000000000e+00  -3.3683987101739549e-05 1.1952913185689661e-03 0.0000000000000000e+00  -2.4382403282896848e-05 1.2192331138972381e-03 0.0000000000000000e+00  -1.4829234610930064e-05 1.2440463197393220e-03 0.0000000000000000e+00  -5.1735286414798566e-06 1.2697042818319046e-03 0.0000000000000000e+00  4.4636491552766973e-06 1.2961313879440379e-03 0.0000000000000000e+00  1.3989860812008135e-05 1.3232373280595709e-03 0.0000000000000000e+00  2.3335936315671107e-05 1.3509317883003849e-03 0.0000000000000000e+00  -9.5672241463260155e-05 1.0262836335054775e-03 0.0000000000000000e+00  -9.5394430090671467e-05 1.0388174630900481e-03 0.0000000000000000e+00  -9.5229216475152453e-05 1.0489692689342948e-03 0.0000000000000000e+00  -9.5441433819945458e-05 1.0561074731923238e-03 0.0000000000000000e+00  -8.9388216676221160e-05 1.0733840945845554e-03 0.0000000000000000e+00  -8.2344154071265033e-05 1.0921889147276511e-03 0.0000000000000000e+00  -7.4682814046425064e-05 1.1118887756669329e-03 0.0000000000000000e+00  -6.6459613104834664e-05 1.1323002977711423e-03 0.0000000000000000e+00  -5.7642713021156137e-05 1.1534049319823797e-03 0.0000000000000000e+00  -4.8215892943993891e-05 1.1752861803105701e-03 0.0000000000000000e+00  -3.8299202789745886e-05 1.1982202125809011e-03 0.0000000000000000e+00  -2.8090128828728562e-05 1.2223241528241640e-03 0.0000000000000000e+00  -1.7769284141943619e-05 1.2475354082233676e-03 0.0000000000000000e+00  -7.4735820532581205e-06 1.2737291452259915e-03 0.0000000000000000e+00  2.6958975626472371e-06 1.3007757976889194e-03 0.0000000000000000e+00  1.2663280724487329e-05 1.3285550709623429e-03 0.0000000000000000e+00  2.2372685326833079e-05 1.3569547051938966e-03 0.0000000000000000e+00  -1.0486646984816718e-04 1.0388124566726191e-03 0.0000000000000000e+00  -1.0451178805113164e-04 1.0482019829534863e-03 0.0000000000000000e+00  -1.0455910460277449e-04 1.0551060778015606e-03 0.0000000000000000e+00  -1.0488469703634810e-04 1.0597227940157478e-03 0.0000000000000000e+00  -9.7444773409302961e-05 1.0770662524358528e-03 0.0000000000000000e+00  -8.9463868949188260e-05 1.0954002408601862e-03 0.0000000000000000e+00  -8.0950134221388645e-05 1.1144183898277103e-03 0.0000000000000000e+00  -7.1797404225507142e-05 1.1340850321702237e-03 0.0000000000000000e+00  -6.1894137364097325e-05 1.1545493718303186e-03 0.0000000000000000e+00  -5.1396398073473036e-05 1.1763982743828877e-03 0.0000000000000000e+00  -4.0579438808879138e-05 1.1998043282133769e-03 0.0000000000000000e+00  -2.9661816668041900e-05 1.2246151221981328e-03 0.0000000000000000e+00  -1.8789569261970108e-05 1.2506294966306562e-03 0.0000000000000000e+00  -8.0662577732527286e-06 1.2776719923633781e-03 0.0000000000000000e+00  2.4281103822649047e-06 1.3055925465481814e-03 0.0000000000000000e+00  1.2632204890450215e-05 1.3342531072492731e-03 0.0000000000000000e+00  2.2506228984143971e-05 1.3635183013299508e-03 0.0000000000000000e+00  -1.1153222096520387e-04 1.0480724937364009e-03 0.0000000000000000e+00  -1.1219826646408407e-04 1.0392696372650177e-03 0.0000000000000000e+00  -1.1114442667893594e-04 1.0546991632501930e-03 0.0000000000000000e+00  -1.1121994642080740e-04 1.0591175631480597e-03 0.0000000000000000e+00  -1.1156838624997990e-04 1.0613212639275012e-03 0.0000000000000000e+00  -1.0313469209068024e-04 1.0784995392081054e-03 0.0000000000000000e+00  -9.4407052528778289e-05 1.0961581540618959e-03 0.0000000000000000e+00  -8.5076023013081563e-05 1.1142472026211567e-03 0.0000000000000000e+00  -7.4775192716086119e-05 1.1329974958196793e-03 0.0000000000000000e+00  -6.3731094958557378e-05 1.1536635380447078e-03 0.0000000000000000e+00  -5.2356420175755610e-05 1.1764246887456277e-03 0.0000000000000000e+00  -4.0910977203567712e-05 1.2009165242554732e-03 0.0000000000000000e+00  -2.9538341235235602e-05 1.2268264497640826e-03 0.0000000000000000e+00  -1.8339425002790971e-05 1.2539336542068673e-03 0.0000000000000000e+00  -7.3995343945367784e-06 1.2820645757565714e-03 0.0000000000000000e+00  3.2112674174733571e-06 1.3110574975994302e-03 0.0000000000000000e+00  1.3448908358928817e-05 1.3407440200039801e-03 0.0000000000000000e+00  2.3299764995291345e-05 1.3709625154340317e-03 0.0000000000000000e+00  -1.1682900977021310e-04 1.0483477927807673e-03 0.0000000000000000e+00  -1.1803097021114122e-04 1.0397610043007947e-03 0.0000000000000000e+00  -1.1574761927889381e-04 1.0546838157704614e-03 0.0000000000000000e+00  -1.1518127285727324e-04 1.0588056365116608e-03 0.0000000000000000e+00  -1.1511816720738411e-04 1.0609604667083860e-03 0.0000000000000000e+00  -1.1536902339230669e-04 1.0612544064577888e-03 0.0000000000000000e+00  -1.0655549454009660e-04 1.0777422259614262e-03 0.0000000000000000e+00  -9.7411668126299951e-05 1.0940533326675962e-03 0.0000000000000000e+00  -8.6899710835895323e-05 1.1104971382560078e-03 0.0000000000000000e+00  -7.5372489746717230e-05 1.1298666299577422e-03 0.0000000000000000e+00  -6.3506827701888214e-05 1.1521152623183591e-03 0.0000000000000000e+00  -5.1606057660760634e-05 1.1764115018215759e-03 0.0000000000000000e+00  -3.9798280838136621e-05 1.2023078832333707e-03 0.0000000000000000e+00  -2.8183389284066636e-05 1.2295583598755464e-03 0.0000000000000000e+00  -1.6860565364960358e-05 1.2579817609196071e-03 0.0000000000000000e+00  -5.9171923356748850e-06 1.2873965796889692e-03 0.0000000000000000e+00  4.5960501786090059e-06 1.3175907595252740e-03 0.0000000000000000e+00  1.4672491363393200e-05 1.3483571832895763e-03 0.0000000000000000e+00  2.4338247691687351e-05 1.3795279473032768e-03 0.0000000000000000e+00  -1.1940143821907201e-04 1.0489950610089161e-03 0.0000000000000000e+00  -1.1704201546979594e-04 1.0224732435722566e-03 0.0000000000000000e+00  -1.1808011114488138e-04 1.0550597961223186e-03 0.0000000000000000e+00  -1.1712363629241432e-04 1.0587669783463163e-03 0.0000000000000000e+00  -1.1651797572858682e-04 1.0607287733294941e-03 0.0000000000000000e+00  -1.1637647353419592e-04 1.0610770849938710e-03 0.0000000000000000e+00  -1.1653916928906786e-04 1.0597127712096974e-03 0.0000000000000000e+00  -1.0845384761266174e-04 1.0740305052048241e-03 0.0000000000000000e+00  -9.8399496961114991e-05 1.0868096208026074e-03 0.0000000000000000e+00  -8.6517584816193626e-05 1.1047814347962734e-03 0.0000000000000000e+00  -7.4220424073421918e-05 1.1268041382845036e-03 0.0000000000000000e+00  -6.1905312847159986e-05 1.1510701134270177e-03 0.0000000000000000e+00  -4.9685664590000860e-05 1.1770488894589711e-03 0.0000000000000000e+00  -3.7674672674447555e-05 1.2045260118698075e-03 0.0000000000000000e+00  -2.6001015842253315e-05 1.2333400020921651e-03 0.0000000000000000e+00  -1.4781793286742761e-05 1.2632933753705211e-03 0.0000000000000000e+00  -4.0746129548490210e-06 1.2941071004552401e-03 0.0000000000000000e+00  6.1296619961186792e-06 1.3255091098599802e-03 0.0000000000000000e+00  1.5882580587931557e-05 1.3572935831827270e-03 0.0000000000000000e+00  2.5250349054690588e-05 1.3893325307029812e-03 0.0000000000000000e+00  -1.1657782948701639e-04 1.0316378366201466e-03 0.0000000000000000e+00  -1.1476320305234538e-04 1.0055536819677760e-03 0.0000000000000000e+00  -1.1834659325127368e-04 1.0556402503234870e-03 0.0000000000000000e+00  -1.1723728302464277e-04 1.0590744320180298e-03 0.0000000000000000e+00  -1.1628007571161310e-04 1.0606890089922100e-03 0.0000000000000000e+00  -1.1561347386545566e-04 1.0610029211594800e-03 0.0000000000000000e+00  -1.1533937613540954e-04 1.0596544417326190e-03 0.0000000000000000e+00  -1.1533729104573285e-04 1.0566341536435329e-03 0.0000000000000000e+00  -1.1049100249336287e-04 1.0612792332066580e-03 0.0000000000000000e+00  -9.7934846185128804e-05 1.0779620817396743e-03 0.0000000000000000e+00  -8.4939364916369740e-05 1.1003944681950548e-03 0.0000000000000000e+00  -7.2060548157075989e-05 1.1248372500607057e-03 0.0000000000000000e+00  -5.9338244132172811e-05 1.1509920746371484e-03 0.0000000000000000e+00  -4.6883381092478881e-05 1.1787853324880266e-03 0.0000000000000000e+00  -3.4852763747026740e-05 1.2081138940860272e-03 0.0000000000000000e+00  -2.3400234643913023e-05 1.2387670426481040e-03 0.0000000000000000e+00  -1.2581827313096194e-05 1.2703498445974031e-03 0.0000000000000000e+00  -2.3537045922045823e-06 1.3024948279276507e-03 0.0000000000000000e+00  7.3781889304016776e-06 1.3349536969999595e-03 0.0000000000000000e+00  1.6714758519863324e-05 1.3675961064102463e-03 0.0000000000000000e+00  2.5739733321205831e-05 1.4003778556666816e-03 0.0000000000000000e+00  -1.1276770039445866e-04 1.0147279623709032e-03 0.0000000000000000e+00  -1.1429918385298398e-04 1.0380436012085872e-03 0.0000000000000000e+00  -1.1550105933102098e-04 1.0597252178066374e-03 0.0000000000000000e+00  -1.1483457868432705e-04 1.0607206492795527e-03 0.0000000000000000e+00  -1.1349192170442760e-04 1.0610830434315873e-03 0.0000000000000000e+00  -1.1251332804167351e-04 1.0596029251304583e-03 0.0000000000000000e+00  -1.1192164923085258e-04 1.0566307137768213e-03 0.0000000000000000e+00  -1.1163743041963250e-04 1.0527155116277576e-03 0.0000000000000000e+00  -1.1148853016426998e-04 1.0481770808313897e-03 0.0000000000000000e+00  -9.6169191303816694e-05 1.0726993331811605e-03 0.0000000000000000e+00  -8.2199531866775248e-05 1.0975966315020932e-03 0.0000000000000000e+00  -6.8776491892639827e-05 1.1240332620130193e-03 0.0000000000000000e+00  -5.5800331231366792e-05 1.1522477951380287e-03 0.0000000000000000e+00  -4.3398275611548883e-05 1.1822559446906