<?xml version="1.0"?>
<VTKFile type="UnstructuredGrid"  version="0.1"  >
<UnstructuredGrid>
<Piece  NumberOfPoints="640" NumberOfCells="1181">
<Points>
<DataArray  type="Float64"  NumberOfComponents="3"  format="ascii">2.973913043478261 0 0  2.990434782608696 0 0  2.990434782608696 0.01666666666666667 0  2.973913043478261 0.01666666666666667 0  3.006956521739131 0 0  3.006956521739131 0.01666666666666667 0  3.023478260869565 0 0  3.023478260869565 0.01666666666666667 0  3.04 0 0  3.04 0.01666666666666667 0  3.056521739130435 0 0  3.056521739130435 0.01666666666666667 0  3.073043478260869 0 0  3.073043478260869 0.01666666666666667 0  3.089565217391304 0 0  3.089565217391304 0.01666666666666667 0  3.106086956521739 0 0  3.106086956521739 0.01666666666666667 0  3.122608695652174 0 0  3.122608695652174 0.01666666666666667 0  3.139130434782609 0 0  3.139130434782609 0.01666666666666667 0  3.155652173913043 0 0  3.155652173913043 0.01666666666666667 0  3.172173913043478 0 0  3.172173913043478 0.01666666666666667 0  3.188695652173913 0 0  3.188695652173913 0.01666666666666667 0  3.205217391304347 0 0  3.205217391304347 0.01666666666666667 0  3.221739130434782 0 0  3.221739130434782 0.01666666666666667 0  3.238260869565217 0 0  3.238260869565217 0.01666666666666667 0  2.990434782608696 0.03333333333333333 0  2.973913043478261 0.03333333333333333 0  3.006956521739131 0.03333333333333333 0  3.023478260869565 0.03333333333333333 0  3.04 0.03333333333333333 0  3.056521739130435 0.03333333333333333 0  3.073043478260869 0.03333333333333333 0  3.089565217391304 0.03333333333333333 0  3.106086956521739 0.03333333333333333 0  3.122608695652174 0.03333333333333333 0  3.139130434782609 0.03333333333333333 0  3.155652173913043 0.03333333333333333 0  3.172173913043478 0.03333333333333333 0  3.188695652173913 0.03333333333333333 0  3.205217391304347 0.03333333333333333 0  3.221739130434782 0.03333333333333333 0  3.238260869565217 0.03333333333333333 0  3.254782608695652 0.03333333333333333 0  2.990434782608696 0.05 0  3.006956521739131 0.05 0  3.023478260869565 0.05 0  3.04 0.05 0  3.056521739130435 0.05 0  3.073043478260869 0.05 0  3.089565217391304 0.05 0  3.106086956521739 0.05 0  3.122608695652174 0.05 0  3.139130434782609 0.05 0  3.155652173913043 0.05 0  3.172173913043478 0.05 0  3.188695652173913 0.05 0  3.205217391304347 0.05 0  3.221739130434782 0.05 0  3.238260869565217 0.05 0  3.254782608695652 0.05 0  3.271304347826087 0.05 0  3.006956521739131 0.06666666666666667 0  2.990434782608696 0.06666666666666667 0  3.023478260869565 0.06666666666666667 0  3.04 0.06666666666666667 0  3.056521739130435 0.06666666666666667 0  3.073043478260869 0.06666666666666667 0  3.089565217391304 0.06666666666666667 0  3.106086956521739 0.06666666666666667 0  3.122608695652174 0.06666666666666667 0  3.139130434782609 0.06666666666666667 0  3.155652173913043 0.06666666666666667 0  3.172173913043478 0.06666666666666667 0  3.188695652173913 0.06666666666666667 0  3.205217391304347 0.06666666666666667 0  3.221739130434782 0.06666666666666667 0  3.238260869565217 0.06666666666666667 0  3.254782608695652 0.06666666666666667 0  3.271304347826087 0.06666666666666667 0  3.287826086956521 0.06666666666666667 0  3.006956521739131 0.08333333333333333 0  3.023478260869565 0.08333333333333333 0  3.04 0.08333333333333333 0  3.056521739130435 0.08333333333333333 0  3.073043478260869 0.08333333333333333 0  3.089565217391304 0.08333333333333333 0  3.106086956521739 0.08333333333333333 0  3.122608695652174 0.08333333333333333 0  3.139130434782609 0.08333333333333333 0  3.155652173913043 0.08333333333333333 0  3.172173913043478 0.08333333333333333 0  3.188695652173913 0.08333333333333333 0  3.205217391304347 0.08333333333333333 0  3.221739130434782 0.08333333333333333 0  3.238260869565217 0.08333333333333333 0  3.254782608695652 0.08333333333333333 0  3.271304347826087 0.08333333333333333 0  3.287826086956521 0.08333333333333333 0  3.304347826086957 0.08333333333333333 0  3.023478260869565 0.1 0  3.006956521739131 0.1 0  3.04 0.1 0  3.056521739130435 0.1 0  3.073043478260869 0.1 0  3.089565217391304 0.1 0  3.106086956521739 0.1 0  3.122608695652174 0.1 0  3.139130434782609 0.1 0  3.155652173913043 0.1 0  3.172173913043478 0.1 0  3.188695652173913 0.1 0  3.205217391304347 0.1 0  3.221739130434782 0.1 0  3.238260869565217 0.1 0  3.254782608695652 0.1 0  3.271304347826087 0.1 0  3.287826086956521 0.1 0  3.304347826086957 0.1 0  3.320869565217391 0.1 0  3.023478260869565 0.1166666666666667 0  3.04 0.1166666666666667 0  3.056521739130435 0.1166666666666667 0  3.073043478260869 0.1166666666666667 0  3.089565217391304 0.1166666666666667 0  3.106086956521739 0.1166666666666667 0  3.122608695652174 0.1166666666666667 0  3.139130434782609 0.1166666666666667 0  3.155652173913043 0.1166666666666667 0  3.172173913043478 0.1166666666666667 0  3.188695652173913 0.1166666666666667 0  3.205217391304347 0.1166666666666667 0  3.221739130434782 0.1166666666666667 0  3.238260869565217 0.1166666666666667 0  3.254782608695652 0.1166666666666667 0  3.271304347826087 0.1166666666666667 0  3.287826086956521 0.1166666666666667 0  3.304347826086957 0.1166666666666667 0  3.320869565217391 0.1166666666666667 0  3.337391304347826 0.1166666666666667 0  3.04 0.1333333333333333 0  3.023478260869565 0.1333333333333333 0  3.056521739130435 0.1333333333333333 0  3.073043478260869 0.1333333333333333 0  3.089565217391304 0.1333333333333333 0  3.106086956521739 0.1333333333333333 0  3.122608695652174 0.1333333333333333 0  3.139130434782609 0.1333333333333333 0  3.155652173913043 0.1333333333333333 0  3.172173913043478 0.1333333333333333 0  3.188695652173913 0.1333333333333333 0  3.205217391304347 0.1333333333333333 0  3.221739130434782 0.1333333333333333 0  3.238260869565217 0.1333333333333333 0  3.254782608695652 0.1333333333333333 0  3.271304347826087 0.1333333333333333 0  3.287826086956521 0.1333333333333333 0  3.304347826086957 0.1333333333333333 0  3.320869565217391 0.1333333333333333 0  3.337391304347826 0.1333333333333333 0  3.353913043478261 0.1333333333333333 0  3.04 0.15 0  3.056521739130435 0.15 0  3.073043478260869 0.15 0  3.089565217391304 0.15 0  3.106086956521739 0.15 0  3.122608695652174 0.15 0  3.139130434782609 0.15 0  3.155652173913043 0.15 0  3.172173913043478 0.15 0  3.188695652173913 0.15 0  3.205217391304347 0.15 0  3.221739130434782 0.15 0  3.238260869565217 0.15 0  3.254782608695652 0.15 0  3.271304347826087 0.15 0  3.287826086956521 0.15 0  3.304347826086957 0.15 0  3.320869565217391 0.15 0  3.337391304347826 0.15 0  3.353913043478261 0.15 0  3.370434782608696 0.15 0  3.056521739130435 0.1666666666666667 0  3.073043478260869 0.1666666666666667 0  3.089565217391304 0.1666666666666667 0  3.106086956521739 0.1666666666666667 0  3.122608695652174 0.1666666666666667 0  3.139130434782609 0.1666666666666667 0  3.155652173913043 0.1666666666666667 0  3.172173913043478 0.1666666666666667 0  3.188695652173913 0.1666666666666667 0  3.205217391304347 0.1666666666666667 0  3.221739130434782 0.1666666666666667 0  3.238260869565217 0.1666666666666667 0  3.254782608695652 0.1666666666666667 0  3.271304347826087 0.1666666666666667 0  3.287826086956521 0.1666666666666667 0  3.304347826086957 0.1666666666666667 0  3.320869565217391 0.1666666666666667 0  3.337391304347826 0.1666666666666667 0  3.353913043478261 0.1666666666666667 0  3.370434782608696 0.1666666666666667 0  3.386956521739131 0.1666666666666667 0  3.073043478260869 0.1833333333333333 0  3.089565217391304 0.1833333333333333 0  3.106086956521739 0.1833333333333333 0  3.122608695652174 0.1833333333333333 0  3.139130434782609 0.1833333333333333 0  3.155652173913043 0.1833333333333333 0  3.172173913043478 0.1833333333333333 0  3.188695652173913 0.1833333333333333 0  3.205217391304347 0.1833333333333333 0  3.221739130434782 0.1833333333333333 0  3.238260869565217 0.1833333333333333 0  3.254782608695652 0.1833333333333333 0  3.271304347826087 0.1833333333333333 0  3.287826086956521 0.1833333333333333 0  3.304347826086957 0.1833333333333333 0  3.320869565217391 0.1833333333333333 0  3.337391304347826 0.1833333333333333 0  3.353913043478261 0.1833333333333333 0  3.370434782608696 0.1833333333333333 0  3.386956521739131 0.1833333333333333 0  3.403478260869565 0.1833333333333333 0  3.089565217391304 0.2 0  3.106086956521739 0.2 0  3.122608695652174 0.2 0  3.139130434782609 0.2 0  3.155652173913043 0.2 0  3.172173913043478 0.2 0  3.188695652173913 0.2 0  3.205217391304347 0.2 0  3.221739130434782 0.2 0  3.238260869565217 0.2 0  3.254782608695652 0.2 0  3.271304347826087 0.2 0  3.287826086956521 0.2 0  3.304347826086957 0.2 0  3.320869565217391 0.2 0  3.337391304347826 0.2 0  3.353913043478261 0.2 0  3.370434782608696 0.2 0  3.386956521739131 0.2 0  3.403478260869565 0.2 0  3.419999999999999 0.2 0  3.106086956521739 0.2166666666666667 0  3.122608695652174 0.2166666666666667 0  3.139130434782609 0.2166666666666667 0  3.155652173913043 0.2166666666666667 0  3.172173913043478 0.2166666666666667 0  3.188695652173913 0.2166666666666667 0  3.205217391304347 0.2166666666666667 0  3.221739130434782 0.2166666666666667 0  3.238260869565217 0.2166666666666667 0  3.254782608695652 0.2166666666666667 0  3.271304347826087 0.2166666666666667 0  3.287826086956521 0.2166666666666667 0  3.304347826086957 0.2166666666666667 0  3.320869565217391 0.2166666666666667 0  3.337391304347826 0.2166666666666667 0  3.353913043478261 0.2166666666666667 0  3.370434782608696 0.2166666666666667 0  3.386956521739131 0.2166666666666667 0  3.403478260869565 0.2166666666666667 0  3.419999999999999 0.2166666666666667 0  3.436521739130435 0.2166666666666667 0  3.122608695652174 0.2333333333333333 0  3.139130434782609 0.2333333333333333 0  3.155652173913043 0.2333333333333333 0  3.172173913043478 0.2333333333333333 0  3.188695652173913 0.2333333333333333 0  3.205217391304347 0.2333333333333333 0  3.221739130434782 0.2333333333333333 0  3.238260869565217 0.2333333333333333 0  3.254782
[...]
<CellData  Scalars="rho_bar"> 
<DataArray  type="Float64"  Name="rho_bar"  format="ascii">2.5941304192621051e-01   2.5778445762256635e-01   2.5441261814139726e-01   2.5307389751367532e-01   2.4902259658543913e-01   2.4801762740038968e-01   2.4314883295447495e-01   2.4252193476405692e-01   2.3670031444822262e-01   2.3649460639619097e-01   2.2959592967577916e-01   2.2985034092221276e-01   2.2178461165212890e-01   2.2252416335982766e-01   2.1326732253770994e-01   2.1449451917465034e-01   2.0409219208432169e-01   2.0579143093533786e-01   1.9431882604675491e-01   1.9647080876880746e-01   1.8395230007497360e-01   1.8656230347108849e-01   1.7289722585993186e-01   1.7600806806805727e-01   1.6102160376435981e-01   1.6467689582600850e-01   1.4828712468204347e-01   1.5247811103636094e-01   1.3484236942454930e-01   1.3947702957810201e-01   1.2098866855948243e-01   1.2592010884611526e-01   2.4445075333973926e-01   2.3701154158262977e-01   2.4031196913372962e-01   2.3342776002518745e-01   2.3584321155501853e-01   2.2957740696269119e-01   2.3095159250295497e-01   2.2536955753190827e-01   2.2554754058019155e-01   2.2071361123422903e-01   2.1955040031887474e-01   2.1552590935204677e-01   2.1290224522132675e-01   2.0973719078740094e-01   2.0559027427470755e-01   2.0331236878353090e-01   1.9764386726375838e-01   1.9626055813939772e-01   1.8910212005059862e-01   1.8861239789838324e-01   1.7996061137002736e-01   1.8037647198040935e-01   1.7012929735787266e-01   1.7149162800254281e-01   1.5947411328963851e-01   1.6182802392738965e-01   1.4792308901841433e-01   1.5127021593415327e-01   1.3555565524818575e-01   1.3981312046349548e-01   1.2260770786854777e-01   1.2760853440643502e-01   1.1492686679264133e-01   2.1548889813961841e-01   2.1290506492676528e-01   2.0253625413481316e-01   2.1010360756194424e-01   2.0043328166457186e-01   2.0699655058108410e-01   1.9810109842264936e-01   2.0349841182175116e-01   1.9545504790118673e-01   1.9952993991040946e-01   1.9241523457733714e-01   1.9502676056832116e-01   1.8891057290591706e-01   1.8995771301158848e-01   1.8489230409323659e-01   1.8432712080350047e-01   1.8034686979837788e-01   1.7814427602159505e-01   1.7527746889681239e-01   1.7138220940757151e-01   1.6966623980871062e-01   1.6394631372570889e-01   1.6343993114636282e-01   1.5569754073162267e-01   1.5646663623811491e-01   1.4652025034882779e-01   1.4860372272136524e-01   1.3639080771072409e-01   1.3976069029351637e-01   1.2541317595807397e-01   1.2994978420838438e-01   1.1380366336441228e-01   1.1930367678439345e-01   1.0805731969964635e-01   1.7926409941284707e-01   1.6793784869355369e-01   1.7829093043413799e-01   1.6754274153221294e-01   1.7715927520086289e-01   1.6706475405271995e-01   1.7579321486918331e-01   1.6643144682183059e-01   1.7411914448685098e-01   1.6557246137355783e-01   1.7206960606917940e-01   1.6441873705339094e-01   1.6960027544190487e-01   1.6291430235546150e-01   1.6669542364218090e-01   1.6103032023027733e-01   1.6334457710372544e-01   1.5875504115517544e-01   1.5950496042859680e-01   1.5605903663270337e-01   1.5507801586024014e-01   1.5286530178780627e-01   1.4992150434866811e-01   1.4904436158506046e-01   1.4387879803797235e-01   1.4443371358601026e-01   1.3681572460563265e-01   1.3886043143617879e-01   1.2867508117253246e-01   1.3218721475164072e-01   1.1951313166679380e-01   1.2437077591937669e-01   1.0951001572602188e-01   1.1549479955190776e-01   1.0576905280308174e-01   1.4628947938578535e-01   1.4680033207632587e-01   1.3683372781677172e-01   1.4729963147109618e-01   1.3774726613937149e-01   1.4772840589171890e-01   1.3865839485409209e-01   1.4802616414903430e-01   1.3951444931699242e-01   1.4812839874677619e-01   1.4025636514336876e-01   1.4798463073604318e-01   1.4082701229550751e-01   1.4757086989602766e-01   1.4119236519959791e-01   1.4687416315538179e-01   1.4133998352009441e-01   1.4585840298770300e-01   1.4125119974433886e-01   1.4443748924717359e-01   1.4086756606638728e-01   1.4248036231528799e-01   1.4008044881112627e-01   1.3980936151657483e-01   1.3873161937359796e-01   1.3619333362720717e-01   1.3659172863356175e-01   1.3141371548891054e-01   1.3338719679849442e-01   1.2534710991630171e-01   1.2889858375858559e-01   1.1800666986662053e-01   1.2303019473065345e-01   1.0954486988686203e-01   1.1583302479294559e-01   1.0748932265985496e-01   1.1985255500127480e-01   1.1167058183100841e-01   1.2138389837671290e-01   1.1337222422854586e-01   1.2298295090248222e-01   1.1518626810727309e-01   1.2461247457340097e-01   1.1708534789546228e-01   1.2622257901131070e-01   1.1903342306229160e-01   1.2776326002451419e-01   1.2098247385010334e-01   1.2920841262909205e-01   1.2289706130415579e-01   1.3055427361845229e-01   1.2476942463196943e-01   1.3179078208318168e-01   1.2660343448972827e-01   1.3286857599481175e-01   1.2838049820563829e-01   1.3369181900784360e-01   1.3003668825953521e-01   1.3410017289901321e-01   1.3145204262156387e-01   1.3381377642548339e-01   1.3239699979800915e-01   1.3248304105816416e-01   1.3251463780127834e-01   1.2981962636810893e-01   1.3144130978048943e-01   1.2566033528838616e-01   1.2891650147951533e-01   1.1998274462516935e-01   1.2481154935772451e-01   1.1289658207289748e-01   1.1913203694346357e-01   1.1200657688779736e-01   9.9130412431699372e-02   1.0111353455076075e-01   9.4969549315426227e-02   1.0325125263808874e-01   9.7114313226459401e-02   1.0553299229280501e-01   9.9428136179983639e-02   1.0793745199190873e-01   1.0190505073618943e-01   1.1042787812539530e-01   1.0452123335294190e-01   1.1297681603997896e-01   1.0724607040833870e-01   1.1558678749222112e-01   1.1007148973701451e-01   1.1827684188877675e-01   1.1301867039279137e-01   1.2104846032339255e-01   1.1611234616022410e-01   1.2386324676561582e-01   1.1934863677489860e-01   1.2661590414966190e-01   1.2267190153127343e-01   1.2905434316230890e-01   1.2591426636116340e-01   1.3077736271470591e-01   1.2873011038115151e-01   1.3138204159193767e-01   1.3068681116599795e-01   1.3055911283368424e-01   1.3140787558913350e-01   1.2811091203814776e-01   1.3061212138176648e-01   1.2395544099379960e-01   1.2812012829207908e-01   1.1812783547058425e-01   1.2385993194369918e-01   1.1787654275465027e-01   8.6538980973431628e-02   8.2180210318572866e-02   8.8729587101641388e-02   8.4243982454867403e-02   9.1117990688011366e-02   8.6507261274474279e-02   9.3710525227005154e-02   8.8984508829738670e-02   9.6495997126774966e-02   9.1679315483391324e-02   9.9453276430232024e-02   9.4577229495132614e-02   1.0258392469669918e-01   9.7669942781844737e-02   1.0592369965963506e-01   1.0098380197593049e-01   1.0951825879880446e-01   1.0457281986145281e-01   1.1339201742902207e-01   1.0848730581861267e-01   1.1751458127941823e-01   1.1274211882290669e-01   1.2172452262892938e-01   1.1726344643191447e-01   1.2567738405520293e-01   1.2180735786034894e-01   1.2894642758497202e-01   1.2598060089148114e-01   1.3114048550560922e-01   1.2937183773832361e-01   1.3193377323067124e-01   1.3161273213311861e-01   1.3107341842906317e-01   1.3238771849541353e-01   1.2838922572829403e-01   1.3144309484079753e-01   1.2381653237167786e-01   1.2860574044788484e-01   1.2381742951494766e-01   7.6883644494561157e-02   7.8802404599534359e-02   7.5771144836255008e-02   8.0925721402264505e-02   7.7678869496612291e-02   8.3273412263449920e-02   7.9800179893676187e-02   8.5855154304446249e-02   8.2152823647406531e-02   8.8665680284896520e-02   8.4740932514012809e-02   9.1709048068842683e-02   8.7565075208520776e-02   9.5026314607589063e-02   9.0653796226447522e-02   9.8688383317819539e-02   9.4074089914145564e-02   1.0276768055781339e-01   9.7910208265281629e-02   1.0730315402967136e-01   1.0223237995485084e-01   1.1224095065834618e-01   1.0705377463518208e-01   1.1736897074219511e-01   1.1226449436272284e-01   1.2234335491422173e-01   1.1760180769590256e-01   1.2678106414691176e-01   1.2271736361784022e-01   1.3030854532543482e-01   1.2724351306590218e-01   1.3257418190290327e-01   1.3081361206986775e-01   1.3325506198214604e-01   1.3306996516548336e-01   1.3207788545345797e-01   1.3367329379990930e-01   1.2886526857009864e-01   1.3233946888226772e-01   1.2889517720268925e-01   7.2561671837829703e-02   7.4183780795665663e-02   7.2086109949779292e-02   7.6007355052662220e-02   7.3626789036241674e-02   7.8049809491912578e-02   7.5367641804933799e-02   8.0320687526486384e-02   7.7323418261784474e-02   8.2834793010340621e-02   7.9508581001612039e-02   8.5637540459421180e-02   8.1958401361494487e-02   8.8809979130860320e-02   8.4744779318976338e-02   9.2451084371267048e-02   8.7967131517088112e-02   9.6648856312462367e-02   9.1729980315251675e-02   1.0143545364332385e-01   9.6108501020136392e-02   1.0673498213297848e-01   1.0110122471734849e-01   1.1234901774049179e-01   1.0659415026574387e-01   1.1799263846614511e-01   1.1237159108311282e-01   1.2333423944879675e-01   1.1815052475970325e-01   1.2801701381376160e-01   1.2360370749377216e-01   1.3166287692638734e-01   1.2836947125738435e-01   1.3387544459617032e-01   1.3204808940964033e-01   1.3427714190392601e-01   1.3421628929504612e-01   1.3257261914874829e-01   1.3448128976654997e-01   1.3254993970565851e-01   7.0038219831047868e-02   7.1169400223207405e-02   6.9675357033543189e-02   7.2473021632039947e-02   7.0652579548814737e-02   7.3967007344520219e-02   7.1796728026255613e-02   7.5677830469482579e-02   7.3132577770713400e-02   7.7656451922460790e-02   7.4702778350359683e-02   7.9986455369550638e-02   7.6580222909094817e-02   8.2778728984571351e-02   7.8869021832692232e-02   8.6152446332325300e-02   8.1693924340892718e-02   9.0197763258018718e-02   8.5172021592705288e-02   9.4935472878946298e-02   8.9372137683874628e-02   1.0029930191354000e-01   9.4287925169076039e-02   1.0613976987297984e-01   9.9834835881502410e-02   1.1223486203061284e-01   1.0585546191139250e-01   1.1830360655620088e-01   1.1212585576759462e-01   1.2401095355299314e-01   1.1836244990880856e-01   1.2895488418529619e-01   1.2421205157889929e-01   1.3267462690067122e-01   1.2923935446778545e-01   1.3470018873637815e-01   1.3295285032901616e-01   1.3462435548271459e-01   1.3486620194052909e-01   1.3457411008410347e-01   6.8013497046603741e-02   6.8487729541424042e-02   6.7342792731519455e-02   6.9101137458555104e-02   6.7613215298168952e-02   6.9886657952208345e-02   6.8026957219222237e-02   7.0897655424391637e-02   6.8629494496827009e-02   7.2215306626515083e-02   6.9490939905752155e-02   7.3954021876989740e-02   7.0713503341539807e-02   7.6253998128223532e-02   7.2433577658744155e-02   7.9244525012410277e-02   7.4797483103100401e-02   8.3005225025150467e-02   7.7917892320724352e-02   8.7554730618343263e-02   8.1851041183409134e-02   9.2853404427535050e-02   8.6600299932770103e-02   9.8799100488957223e-02   9.2116311586244948e-02   1.0522659880117675e-01   9.8291198466976745e-02   1.1190433405151805e-01   1.0495497229131784e-01   1.1851656433206308e-01   1.1186233808319158e-01   1.2464714428097708e-01   1.1866847787050300e-01   1.2979379949426989e-01   1.2492192617211620e-01   1.3341879109136870e-01   1.3009140430006277e-01   1.3502146505348925e-01   1.3362341963514071e-01   1.3501754229940310e-01   6.5494422900397697e-02   6.5228884902877871e-02   6.4256364256408308e-02   6.5089785736559824e-02   6.3781686860484535e-02   6.5128157927999669e-02   6.3451149966108691e-02   6.5419186377591365e-02   6.3328874523869635e-02   6.6074688302058759e-02   6.3510833428982741e-02   6.7245785925846721e-02   6.4135693452731860e-02   6.9086589822367539e-02   6.5365775975208831e-02   7.1710777769458542e-02   6.7338800401922930e-02   7.5183303809228871e-02   7.0143949944639156e-02   7.9531277516317236e-02   7.3832159253650997e-02   8.4741613445235606e-02   7.8423584331064541e-02   9.0754045368128755e-02   8.3899870301192961e-02   9.7450731128623971e-02   9.0195580723550717e-02   1.0463404943111031e-01   9.7179153330612986e-02   1.1200731542923070e-01   1.0463086656207447e-01   1.1916117179175859e-01   1.1222528435451949e-01   1.2558376573664259e-01   1.1952250247980152e-01   1.3070106230051223e-01   1.2598461959245588e-01   1.3394109299905876e-01   1.3101960330280421e-01   1.3405073404898676e-01   6.1898181847468169e-02   6.0925429587766596e-02   6.0016577748615074e-02   6.0091450727707614e-02   5.8876530734507229e-02   5.9463097141661904e-02   5.7906058079921746e-02   5.9144029013789422e-02   5.7190924153278450e-02   5.9284936245152471e-02   5.6862723107718192e-02   6.0049377869408754e-02   5.7085552852841261e-02   6.1566640083452383e-02   5.8006040836580237e-02   6.3923240527181333e-02   5.9726741350319738e-02   6.7178682502777157e-02   6.2318545202304856e-02   7.1371420071815503e-02   6.5835322073744665e-02   7.6513487095651589e-02   7.0312518523942089e-02   8.2578339239942483e-02   7.5758991475793999e-02   8.9476015616216861e-02   8.2137290209493258e-02   9.7034544103439882e-02   8.9339187417200136e-02   1.0498606495880845e-01   9.7173360728305694e-02   1.1295167016060051e-01   1.0534932977891490e-01   1.2043939111968267e-01   1.1346289880787221e-01   1.2686501130881370e-01   1.2099481815510435e-01   1.3160668410948897e-01   1.2733674657586758e-01   1.3185785277164208e-01   5.7077580010306522e-02   5.5540000816765127e-02   5.4652319473911998e-02   5.4177635241521221e-02   5.3028949845638870e-02   5.3081053097652743e-02   5.1627399542502755e-02   5.2388902487754963e-02   5.0563359813408197e-02   5.2261521484647140e-02   4.9990606166233395e-02   5.2830316716292444e-02   5.0053445554539458e-02   5.4186895885894815e-02   5.0855044014216561e-02   5.6400301328105154e-02   5.2469267554259097e-02   5.9529171867353875e-02   5.4958590079698069e-02   6.3622350000824529e-02   5.8379585945969224e-02   6.8710813565400805e-02   6.2779680493832174e-02   7.4786759197430747e-02   6.8183844365171997e-02   8.1781856172820952e-02   7.4571457248274478e-02   8.9554246116998151e-02   8.1859822034245772e-02   9.7876037299416366e-02   8.9893062115201802e-02   1.0641434184526943e-01   9.8426313146040875e-02   1.1471327236849843e-01   1.0710285220778688e-01   1.2219651521806404e-01   1.1543491394917951e-01   1.2821860542795810e-01   1.2281912705141669e-01   1.2860041038467923e-01   5.1291480817205221e-02   4.9412350240064386e-02   4.8564031448715614e-02   4.7770007324837334e-02   4.6704657711055475e-02   4.6483002021541556e-02   4.5144106174326820e-02   4.5697443162512369e-02   4.4016082532485297e-02   4.5539090138122434e-02   4.3454428228639770e-02   4.6095457578507075e-02   4.3556418361524407e-02   4.7432379705854261e-02   4.4390163942162442e-02   4.9609357946559025e-02   4.6013812939354644e-02   5.2684663215554942e-02   4.8484760694557948e-02   5.6712629552310968e-02   5.1860426746520083e-02   6.1732261474686648e-02   5.6192570015189860e-02   6.7749508544521234e-02   6.1513709224962743e-02   7.4719863561037714e-02   6.7820052019937974e-02   8.2536251056783153e-02   7.5056616242338337e-02   9.1015401930321579e-02   8.3105802441289553e-02   9.9874294967923008e-02   9.1769999066540861e-02   1.0869935550178304e-01   1.0074157188369309e-01   1.1694311993759832e-01   1.0957526904068748e-01   1.2396691356648587e-01   1.1769908873408795e-01   1.2446141392102204e-01   4.5111082424577995e-02   4.3146795430893475e-02   4.2400646499838157e-02   4.1498553440668155e-02   4.0565150739206968e-02   4.0290825821341032e-02   3.9110329120981904e-02   3.9636888387126389e-02   3.8152226615188148e-02   3.9616305625889039e-02   3.7778360728476533e-02   4.0286568995663824e-02   3.8048104295313259e-02   4.1699551380227975e-02   3.9010514976706226e-02   4.3908620784627601e-02   4.0714850835157530e-02   4.6969316280119543e-02   4.3213497865375552e-02   5.0935174786555931e-02   4.6560647995687716e-02   5.5849231051035092e-02   5.0807439853924607e-02   6.1730129271001001e-02   5.5992522068089162e-02   6.8556903422455989e-02   6.2127631247076015e-02   7.6255979600509477e-02   6.9183617667504180e-02   8.4687088753359438e-02   7.7078431531368535e-02   9.3615201631280578e-02   8.5658818553372762e-02   1.0267876070047273e-01   9.4667676596087755e-02   1.1138074024173102e-01   1.0371705393283920e-01   1.1910832070181943e-01   1.1228330494990553e-01   1.1973275570989637e-01   3.9274958696429212e-02   3.7465190442709122e-02   3.6917215595795812e-02   3.6042449219639484e-02   3.5326362984410990e-02   3.5102289493680397e-02   3.4168142994248342e-02   3.4713833107422910e-02   3.3516941373838025e-02   3.4925373434197132e-02   3.3422991285261439e-02   3.5778582693687597e-02   3.3925427385519596e-02   3.7316416981172856e-02   3.5062495914766172e-02   3.9585539224732756e-02   3.6875580295405205e-02   4.2636018393242194e-02   3.9410381554676500e-02   4.6519072435623601e-02   4.2716345374539368e-02   5.1280954897440750e-02   4.6844047389234172e-02   5.6951358379912137e-02   5.1837472540400366e-02   6.3528858104201044e-02   5.7721149269001425e-02   7.0969831294714514e-02   6.4487524953847353e-02   7.9173732771671806e-02   7.2087245407820175e-02   8.7955267749201912e-02   8.0409554417956816e-02   9.7013368297336339e-02   8.9251703828521628e-02   1.0590526795080470e-01   9.8285225005299334e-02   1.1405180341292297e-01   1.0703398083900063e-01   1.1488949379976621e-01   3.4566838254398984e-02   3.3089652841524445e-02   3.2872103201905950e-02   3.2030963269577294e-02   3.1662408970785427e-02   3.1447684899702663e-02   3.0889449168797482e-02   3.1379262970122002e-02   3.0594173907775215e-02   3.1857443442833283e-02   3.0806774637788307e-02   3.2913545839940501e-02   3.1554653748677934e-02   3.4582213813451154e-02   3.2867130131188339e-02   3.6903135007667745e-02   3.4778126641019515e-02   3.9921723784548592e-02   3.7327656991476506e-02   4.3687942537203275e-02   4.0562246621311304e-02   4.8251166022488377e-02   4.4532810224415756e-02   5.3649278239215593e-02   4.9287609013667133e-02   5.9897475364349223e-02   5.4861158045825302e-02   6.6980550320135585e-02   6.1266562771380942e-02   7.4837225437310695e-02   6.8486652731326633e-02   8.3331572639310403e-02   7.6452259837039863e-02   9.2213870858158825e-02   8.5008029447836642e-02   1.0108819417989370e-01   9.3870880619412747e-02   1.0940756078952459e-01   1.0260464061602995e-01   1.1061859160972232e-01   3.1732251695073307e-02   3.0669772355468115e-02   3.0952840123728086e-02   3.0015386003220335e-02   3.0160210013159362e-02   2.9799946892993579e-02   2.9775521630613529e-02   3.0046754956113982e-02   2.9821273142143202e-02   3.0777021475961310e-02   3.0316152792062206e-02   3.2014002691286132e-02   3.1279242076947732e-02   3.3785935329407865e-02   3.2733442890319792e-02   3.6127912868837687e-02   3.4707834799867762e-02   3.9082836313885004e-02   3.7239274244508229e-02   4.2700391712547733e-02   4.0372834655961448e-02   4.7032049536984109e-02   4.4159785972640468e-02   5.2123089330618384e-02   4.8651840483269294e-02   5.8007139014431705e-02   5.3895322494827591e-02   6.4698609390871631e-02   5.9926951919563515e-02   7.2172457158292555e-02   6.6760963853718089e-02   8.0329426930347711e-02   7.4361556531743048e-02   8.8954642210846493e-02   8.2603464861986650e-02   9.7682888716421126e-02   9.1230647784031602e-02   1.0597843192634401e-01   9.9823345453599124e-02   1.0778329512562640e-01   3.1430957693232814e-02   3.0774402260650792e-02   3.1766002239581190e-02   3.0492930951012027e-02   3.1351360825109031e-02   3.0602879843163403e-02   3.1303654010065303e-02   3.1117912707695677e-02   3.1635013558437640e-02   3.2052495814231204e-02   3.2357022442652275e-02   3.3424998890536656e-02   3.3483795145720217e-02   3.5260070209168173e-02   3.5034604506662730e-02   3.7590340300627197e-02   3.7035880033077395e-02   4.0457356765561246e-02   3.9522756364219001e-02   4.3910671998542247e-02   4.2539644809085904e-02   4.8004934787371736e-02   4.6139157347739282e-02   5.2797341203041852e-02   5.0380255173916255e-02   5.8344040170447246e-02   5.5326742378313490e-02   6.4687155708047783e-02   6.1040222173031698e-02   7.1827996852054640e-02   6.7560507559684513e-02   7.9687290841410019e-02   7.48713911