<?xml version="1.0"?>
<VTKFile type="UnstructuredGrid"  version="0.1"  >
<UnstructuredGrid>
<Piece  NumberOfPoints="640" NumberOfCells="1175">
<Points>
<DataArray  type="Float64"  NumberOfComponents="3"  format="ascii">2.577391304347826 0 0  2.593913043478261 0 0  2.593913043478261 0.01666666666666667 0  2.577391304347826 0.01666666666666667 0  2.610434782608696 0 0  2.610434782608696 0.01666666666666667 0  2.62695652173913 0 0  2.62695652173913 0.01666666666666667 0  2.643478260869565 0 0  2.643478260869565 0.01666666666666667 0  2.66 0 0  2.66 0.01666666666666667 0  2.676521739130435 0 0  2.676521739130435 0.01666666666666667 0  2.693043478260869 0 0  2.693043478260869 0.01666666666666667 0  2.709565217391304 0 0  2.709565217391304 0.01666666666666667 0  2.726086956521739 0 0  2.726086956521739 0.01666666666666667 0  2.742608695652174 0 0  2.742608695652174 0.01666666666666667 0  2.759130434782609 0 0  2.759130434782609 0.01666666666666667 0  2.775652173913044 0 0  2.775652173913044 0.01666666666666667 0  2.792173913043478 0 0  2.792173913043478 0.01666666666666667 0  2.808695652173913 0 0  2.808695652173913 0.01666666666666667 0  2.825217391304347 0 0  2.825217391304347 0.01666666666666667 0  2.841739130434783 0 0  2.841739130434783 0.01666666666666667 0  2.858260869565217 0 0  2.858260869565217 0.01666666666666667 0  2.874782608695652 0 0  2.874782608695652 0.01666666666666667 0  2.891304347826087 0 0  2.891304347826087 0.01666666666666667 0  2.907826086956522 0 0  2.907826086956522 0.01666666666666667 0  2.924347826086957 0 0  2.924347826086957 0.01666666666666667 0  2.940869565217391 0 0  2.940869565217391 0.01666666666666667 0  2.957391304347826 0 0  2.957391304347826 0.01666666666666667 0  2.973913043478261 0 0  2.973913043478261 0.01666666666666667 0  2.593913043478261 0.03333333333333333 0  2.610434782608696 0.03333333333333333 0  2.62695652173913 0.03333333333333333 0  2.643478260869565 0.03333333333333333 0  2.66 0.03333333333333333 0  2.676521739130435 0.03333333333333333 0  2.693043478260869 0.03333333333333333 0  2.709565217391304 0.03333333333333333 0  2.726086956521739 0.03333333333333333 0  2.742608695652174 0.03333333333333333 0  2.759130434782609 0.03333333333333333 0  2.775652173913044 0.03333333333333333 0  2.792173913043478 0.03333333333333333 0  2.808695652173913 0.03333333333333333 0  2.825217391304347 0.03333333333333333 0  2.841739130434783 0.03333333333333333 0  2.858260869565217 0.03333333333333333 0  2.874782608695652 0.03333333333333333 0  2.891304347826087 0.03333333333333333 0  2.907826086956522 0.03333333333333333 0  2.924347826086957 0.03333333333333333 0  2.940869565217391 0.03333333333333333 0  2.957391304347826 0.03333333333333333 0  2.973913043478261 0.03333333333333333 0  2.610434782608696 0.05 0  2.62695652173913 0.05 0  2.643478260869565 0.05 0  2.66 0.05 0  2.676521739130435 0.05 0  2.693043478260869 0.05 0  2.709565217391304 0.05 0  2.726086956521739 0.05 0  2.742608695652174 0.05 0  2.759130434782609 0.05 0  2.775652173913044 0.05 0  2.792173913043478 0.05 0  2.808695652173913 0.05 0  2.825217391304347 0.05 0  2.841739130434783 0.05 0  2.858260869565217 0.05 0  2.874782608695652 0.05 0  2.891304347826087 0.05 0  2.907826086956522 0.05 0  2.924347826086957 0.05 0  2.940869565217391 0.05 0  2.957391304347826 0.05 0  2.973913043478261 0.05 0  2.990434782608696 0.05 0  2.62695652173913 0.06666666666666667 0  2.643478260869565 0.06666666666666667 0  2.66 0.06666666666666667 0  2.676521739130435 0.06666666666666667 0  2.693043478260869 0.06666666666666667 0  2.709565217391304 0.06666666666666667 0  2.726086956521739 0.06666666666666667 0  2.742608695652174 0.06666666666666667 0  2.759130434782609 0.06666666666666667 0  2.775652173913044 0.06666666666666667 0  2.792173913043478 0.06666666666666667 0  2.808695652173913 0.06666666666666667 0  2.825217391304347 0.06666666666666667 0  2.841739130434783 0.06666666666666667 0  2.858260869565217 0.06666666666666667 0  2.874782608695652 0.06666666666666667 0  2.891304347826087 0.06666666666666667 0  2.907826086956522 0.06666666666666667 0  2.924347826086957 0.06666666666666667 0  2.940869565217391 0.06666666666666667 0  2.957391304347826 0.06666666666666667 0  2.973913043478261 0.06666666666666667 0  2.990434782608696 0.06666666666666667 0  2.643478260869565 0.08333333333333333 0  2.66 0.08333333333333333 0  2.676521739130435 0.08333333333333333 0  2.693043478260869 0.08333333333333333 0  2.709565217391304 0.08333333333333333 0  2.726086956521739 0.08333333333333333 0  2.742608695652174 0.08333333333333333 0  2.759130434782609 0.08333333333333333 0  2.775652173913044 0.08333333333333333 0  2.792173913043478 0.08333333333333333 0  2.808695652173913 0.08333333333333333 0  2.825217391304347 0.08333333333333333 0  2.841739130434783 0.08333333333333333 0  2.858260869565217 0.08333333333333333 0  2.874782608695652 0.08333333333333333 0  2.891304347826087 0.08333333333333333 0  2.907826086956522 0.08333333333333333 0  2.924347826086957 0.08333333333333333 0  2.940869565217391 0.08333333333333333 0  2.957391304347826 0.08333333333333333 0  2.973913043478261 0.08333333333333333 0  2.990434782608696 0.08333333333333333 0  3.006956521739131 0.08333333333333333 0  2.66 0.1 0  2.676521739130435 0.1 0  2.693043478260869 0.1 0  2.709565217391304 0.1 0  2.726086956521739 0.1 0  2.742608695652174 0.1 0  2.759130434782609 0.1 0  2.775652173913044 0.1 0  2.792173913043478 0.1 0  2.808695652173913 0.1 0  2.825217391304347 0.1 0  2.841739130434783 0.1 0  2.858260869565217 0.1 0  2.874782608695652 0.1 0  2.891304347826087 0.1 0  2.907826086956522 0.1 0  2.924347826086957 0.1 0  2.940869565217391 0.1 0  2.957391304347826 0.1 0  2.973913043478261 0.1 0  2.990434782608696 0.1 0  3.006956521739131 0.1 0  2.676521739130435 0.1166666666666667 0  2.693043478260869 0.1166666666666667 0  2.709565217391304 0.1166666666666667 0  2.726086956521739 0.1166666666666667 0  2.742608695652174 0.1166666666666667 0  2.759130434782609 0.1166666666666667 0  2.775652173913044 0.1166666666666667 0  2.792173913043478 0.1166666666666667 0  2.808695652173913 0.1166666666666667 0  2.825217391304347 0.1166666666666667 0  2.841739130434783 0.1166666666666667 0  2.858260869565217 0.1166666666666667 0  2.874782608695652 0.1166666666666667 0  2.891304347826087 0.1166666666666667 0  2.907826086956522 0.1166666666666667 0  2.924347826086957 0.1166666666666667 0  2.940869565217391 0.1166666666666667 0  2.957391304347826 0.1166666666666667 0  2.973913043478261 0.1166666666666667 0  2.990434782608696 0.1166666666666667 0  3.006956521739131 0.1166666666666667 0  3.023478260869565 0.1166666666666667 0  2.693043478260869 0.1333333333333333 0  2.709565217391304 0.1333333333333333 0  2.726086956521739 0.1333333333333333 0  2.742608695652174 0.1333333333333333 0  2.759130434782609 0.1333333333333333 0  2.775652173913044 0.1333333333333333 0  2.792173913043478 0.1333333333333333 0  2.808695652173913 0.1333333333333333 0  2.825217391304347 0.1333333333333333 0  2.841739130434783 0.1333333333333333 0  2.858260869565217 0.1333333333333333 0  2.874782608695652 0.1333333333333333 0  2.891304347826087 0.1333333333333333 0  2.907826086956522 0.1333333333333333 0  2.924347826086957 0.1333333333333333 0  2.940869565217391 0.1333333333333333 0  2.957391304347826 0.1333333333333333 0  2.973913043478261 0.1333333333333333 0  2.990434782608696 0.1333333333333333 0  3.006956521739131 0.1333333333333333 0  3.023478260869565 0.1333333333333333 0  2.726086956521739 0.15 0  2.742608695652174 0.15 0  2.759130434782609 0.15 0  2.775652173913044 0.15 0  2.792173913043478 0.15 0  2.808695652173913 0.15 0  2.825217391304347 0.15 0  2.841739130434783 0.15 0  2.858260869565217 0.15 0  2.874782608695652 0.15 0  2.891304347826087 0.15 0  2.907826086956522 0.15 0  2.924347826086957 0.15 0  2.940869565217391 0.15 0  2.957391304347826 0.15 0  2.973913043478261 0.15 0  2.990434782608696 0.15 0  3.006956521739131 0.15 0  3.023478260869565 0.15 0  3.04 0.15 0  2.742608695652174 0.1666666666666667 0  2.759130434782609 0.1666666666666667 0  2.775652173913044 0.1666666666666667 0  2.792173913043478 0.1666666666666667 0  2.808695652173913 0.1666666666666667 0  2.825217391304347 0.1666666666666667 0  2.841739130434783 0.1666666666666667 0  2.858260869565217 0.1666666666666667 0  2.874782608695652 0.1666666666666667 0  2.891304347826087 0.1666666666666667 0  2.907826086956522 0.1666666666666667 0  2.924347826086957 0.1666666666666667 0  2.940869565217391 0.1666666666666667 0  2.957391304347826 0.1666666666666667 0  2.973913043478261 0.1666666666666667 0  2.990434782608696 0.1666666666666667 0  3.006956521739131 0.1666666666666667 0  3.023478260869565 0.1666666666666667 0  3.04 0.1666666666666667 0  3.056521739130435 0.1666666666666667 0  2.759130434782609 0.1833333333333333 0  2.775652173913044 0.1833333333333333 0  2.792173913043478 0.1833333333333333 0  2.808695652173913 0.1833333333333333 0  2.825217391304347 0.1833333333333333 0  2.841739130434783 0.1833333333333333 0  2.858260869565217 0.1833333333333333 0  2.874782608695652 0.1833333333333333 0  2.891304347826087 0.1833333333333333 0  2.907826086956522 0.1833333333333333 0  2.924347826086957 0.1833333333333333 0  2.940869565217391 0.1833333333333333 0  2.957391304347826 0.1833333333333333 0  2.973913043478261 0.1833333333333333 0  2.990434782608696 0.1833333333333333 0  3.006956521739131 0.1833333333333333 0  3.023478260869565 0.1833333333333333 0  3.04 0.1833333333333333 0  3.056521739130435 0.1833333333333333 0  3.073043478260869 0.1833333333333333 0  2.775652173913044 0.2 0  2.792173913043478 0.2 0  2.808695652173913 0.2 0  2.825217391304347 0.2 0  2.841739130434783 0.2 0  2.858260869565217 0.2 0  2.874782608695652 0.2 0  2.891304347826087 0.2 0  2.907826086956522 0.2 0  2.924347826086957 0.2 0  2.940869565217391 0.2 0  2.957391304347826 0.2 0  2.973913043478261 0.2 0  2.990434782608696 0.2 0  3.006956521739131 0.2 0  3.023478260869565 0.2 0  3.04 0.2 0  3.056521739130435 0.
[...]
<PointData  Vectors="Displacement"> 
<DataArray  type="Float64"  Name="Displacement"  NumberOfComponents="3" format="ascii">3.9393974028729175e-04 4.7829708332278297e-03 0.0000000000000000e+00  3.9509379749618498e-04 4.8318471078693716e-03 0.0000000000000000e+00  3.4605816052706403e-04 4.8313862029057981e-03 0.0000000000000000e+00  3.4449513745575359e-04 4.7825079979892937e-03 0.0000000000000000e+00  3.9621348435021599e-04 4.8802890782122226e-03 0.0000000000000000e+00  3.4764435437735383e-04 4.8798300534758513e-03 0.0000000000000000e+00  3.9729905026963572e-04 4.9282398956375009e-03 0.0000000000000000e+00  3.4925369904504093e-04 4.9277826530559846e-03 0.0000000000000000e+00  3.9835072199176548e-04 4.9756430823803917e-03 0.0000000000000000e+00  3.5088628890631387e-04 4.9751874469185914e-03 0.0000000000000000e+00  3.9936860294468668e-04 5.0224422928528299e-03 0.0000000000000000e+00  3.5254251822691040e-04 5.0219880439421891e-03 0.0000000000000000e+00  4.0035259279319033e-04 5.0685806245003920e-03 0.0000000000000000e+00  3.5422322578251923e-04 5.0681275415914596e-03 0.0000000000000000e+00  4.0130239153695257e-04 5.1139997969703510e-03 0.0000000000000000e+00  3.5592966796000312e-04 5.1135476900203095e-03 0.0000000000000000e+00  4.0221757676358509e-04 5.1586395067638371e-03 0.0000000000000000e+00  3.5766337556861422e-04 5.1581882578447414e-03 0.0000000000000000e+00  4.0309773541097462e-04 5.2024370960248850e-03 0.0000000000000000e+00  3.5942589819283675e-04 5.2019867138532912e-03 0.0000000000000000e+00  4.0394262170412044e-04 5.2453278008884685e-03 0.0000000000000000e+00  3.6121836127120594e-04 5.2448784679819506e-03 0.0000000000000000e+00  4.0475223383317334e-04 5.2872459034235837e-03 0.0000000000000000e+00  3.6304082655335426e-04 5.2867980318244759e-03 0.0000000000000000e+00  4.0552676534569255e-04 5.3281265378746969e-03 0.0000000000000000e+00  3.6489173090176896e-04 5.3276808307701666e-03 0.0000000000000000e+00  4.0626665117852101e-04 5.3679073265159175e-03 0.0000000000000000e+00  3.6676783646439877e-04 5.3674647803119788e-03 0.0000000000000000e+00  4.0697300942568114e-04 5.4065296281915970e-03 0.0000000000000000e+00  3.6866462104762987e-04 5.4060913949395542e-03 0.0000000000000000e+00  4.0764851448093755e-04 5.4439409820262515e-03 0.0000000000000000e+00  3.7057630159849266e-04 5.4435076824706774e-03 0.0000000000000000e+00  4.0829753937015760e-04 5.4801008535343724e-03 0.0000000000000000e+00  3.7249584249701310e-04 5.4796716866850241e-03 0.0000000000000000e+00  4.0892393980729920e-04 5.5149850198467779e-03 0.0000000000000000e+00  3.7441711488383307e-04 5.5145582937099194e-03 0.0000000000000000e+00  4.0952838967502032e-04 5.5485783850070013e-03 0.0000000000000000e+00  3.7633895128324281e-04 5.5481527157619408e-03 0.0000000000000000e+00  4.1010832389650907e-04 5.5808606330085110e-03 0.0000000000000000e+00  3.7826650355841110e-04 5.5804349026111841e-03 0.0000000000000000e+00  4.1065952793589055e-04 5.6117983803531018e-03 0.0000000000000000e+00  3.8020889545720740e-04 5.6113708305189428e-03 0.0000000000000000e+00  4.1117651155116999e-04 5.6413443200168389e-03 0.0000000000000000e+00  3.8217777041807687e-04 5.6409122605232190e-03 0.0000000000000000e+00  4.1165030183993445e-04 5.6694317800027915e-03 0.0000000000000000e+00  3.8418919423812109e-04 5.6689945934917472e-03 0.0000000000000000e+00  4.1206881963735259e-04 5.6959528465020393e-03 0.0000000000000000e+00  3.8626433373896375e-04 5.6955169409652739e-03 0.0000000000000000e+00  4.1243398365324547e-04 5.7207460536038727e-03 0.0000000000000000e+00  3.8841826024763743e-04 5.7203134641641475e-03 0.0000000000000000e+00  2.9676409920565306e-04 4.8308645487798296e-03 0.0000000000000000e+00  2.9879232766902335e-04 4.8793001499421122e-03 0.0000000000000000e+00  3.0090113318233805e-04 4.9272443948836066e-03 0.0000000000000000e+00  3.0308917341799154e-04 4.9746407584464174e-03 0.0000000000000000e+00  3.0535502583820771e-04 5.0214328874482123e-03 0.0000000000000000e+00  3.0769931461225588e-04 5.0675638782793969e-03 0.0000000000000000e+00  3.1012521015447739e-04 5.1129754390044019e-03 0.0000000000000000e+00  3.1263773748879963e-04 5.1576072550636575e-03 0.0000000000000000e+00  3.1524325284145252e-04 5.2013966589442538e-03 0.0000000000000000e+00  3.1794807614055482e-04 5.2442789148350192e-03 0.0000000000000000e+00  3.2075524148125056e-04 5.2861885520842644e-03 0.0000000000000000e+00  3.2366276750796891e-04 5.3270612593617258e-03 0.0000000000000000e+00  3.2666702737840466e-04 5.3668351221182334e-03 0.0000000000000000e+00  3.2976713988878422e-04 5.4054512747465410e-03 0.0000000000000000e+00  3.3296069295650678e-04 5.4428561691145447e-03 0.0000000000000000e+00  3.3621938942853408e-04 5.4790087912949658e-03 0.0000000000000000e+00  3.3947947393769454e-04 5.5138862585547262e-03 0.0000000000000000e+00  3.4270170613083642e-04 5.5474740121297288e-03 0.0000000000000000e+00  3.4591028417578447e-04 5.5797508794606775e-03 0.0000000000000000e+00  3.4914613598859679e-04 5.6106824284743390e-03 0.0000000000000000e+00  3.5242455966457965e-04 5.6402211085079699e-03 0.0000000000000000e+00  3.5575222573558819e-04 5.6683040161450253e-03 0.0000000000000000e+00  3.5923993817830714e-04 5.6948281914566976e-03 0.0000000000000000e+00  3.6320996924206185e-04 5.7196046295339394e-03 0.0000000000000000e+00  2.9058357766358664e-04 4.8707346079813352e-03 0.0000000000000000e+00  2.9268752572685487e-04 4.9191232004544439e-03 0.0000000000000000e+00  2.9482315982454465e-04 4.9669608132429316e-03 0.0000000000000000e+00  2.9699124158757842e-04 5.0141858231258678e-03 0.0000000000000000e+00  2.9919444408067877e-04 5.0607355174511134e-03 0.0000000000000000e+00  3.0143765443003224e-04 5.1065459528914503e-03 0.0000000000000000e+00  3.0372773466028535e-04 5.1515519555314542e-03 0.0000000000000000e+00  3.0607285659652007e-04 5.1956872516832281e-03 0.0000000000000000e+00  3.0848143359895811e-04 5.2388852087977321e-03 0.0000000000000000e+00  3.1096077178775409e-04 5.2810802260371938e-03 0.0000000000000000e+00  3.1351605927351639e-04 5.3222088806417879e-03 0.0000000000000000e+00  3.1615009946028486e-04 5.3622105005039456e-03 0.0000000000000000e+00  3.1886290527981015e-04 5.4010285496557562e-03 0.0000000000000000e+00  3.2164975564356473e-04 5.4386143935691257e-03 0.0000000000000000e+00  3.2449852675881961e-04 5.4749328733167853e-03 0.0000000000000000e+00  3.2739243690086008e-04 5.5099594951046318e-03 0.0000000000000000e+00  3.3032212187885632e-04 5.5436649005299581e-03 0.0000000000000000e+00  3.3329473627720016e-04 5.5760111299031027e-03 0.0000000000000000e+00  3.3632900108233058e-04 5.6069590708691499e-03 0.0000000000000000e+00  3.3944646968788421e-04 5.6364641303546983e-03 0.0000000000000000e+00  3.4267331899944675e-04 5.6644612063014247e-03 0.0000000000000000e+00  3.4605134167084287e-04 5.6908426240116312e-03 0.0000000000000000e+00  3.4962298758627167e-04 5.7154748681562135e-03 0.0000000000000000e+00  3.5335428035612997e-04 5.7383586306391709e-03 0.0000000000000000e+00  2.8344050051840611e-04 4.9112056762517413e-03 0.0000000000000000e+00  2.8553376836780811e-04 4.9595349432358582e-03 0.0000000000000000e+00  2.8761938805597323e-04 5.0072423674901159e-03 0.0000000000000000e+00  2.8970155393014585e-04 5.0542594451532738e-03 0.0000000000000000e+00  2.9178690005846622e-04 5.1005165895082203e-03 0.0000000000000000e+00  2.9388434364661594e-04 5.1459435210029448e-03 0.0000000000000000e+00  2.9600459270958719e-04 5.1904698682091466e-03 0.0000000000000000e+00  2.9815933070576251e-04 5.2340261689712703e-03 0.0000000000000000e+00  3.0036022392600312e-04 5.2765452002533604e-03 0.0000000000000000e+00  3.0261792517605727e-04 5.3179631290835140e-03 0.0000000000000000e+00  3.0494109532089113e-04 5.3582203661710929e-03 0.0000000000000000e+00  3.0733541172323753e-04 5.3972629076206912e-03 0.0000000000000000e+00  3.0980292342096971e-04 5.4350446959406532e-03 0.0000000000000000e+00  3.1234278071764517e-04 5.4715295939431700e-03 0.0000000000000000e+00  3.1495422250993641e-04 5.5066877539896664e-03 0.0000000000000000e+00  3.1764004731213403e-04 5.5404862087016773e-03 0.0000000000000000e+00  3.2040710422495287e-04 5.5728866571832653e-03 0.0000000000000000e+00  3.2326412671403968e-04 5.6038499410655486e-03 0.0000000000000000e+00  3.2621842639390188e-04 5.6333336082547486e-03 0.0000000000000000e+00  3.2927118485486147e-04 5.6612820973827149e-03 0.0000000000000000e+00  3.3241337365219311e-04 5.6876135277288036e-03 0.0000000000000000e+00  3.3561717582813116e-04 5.7122499090957648e-03 0.0000000000000000e+00  3.3882638748368703e-04 5.7352118226498949e-03 0.0000000000000000e+00  2.7524401735792598e-04 4.9523588164504025e-03 0.0000000000000000e+00  2.7725944124304484e-04 5.0005969071400137e-03 0.0000000000000000e+00  2.7923727441251837e-04 5.0481289147962464e-03 0.0000000000000000e+00  2.8118583330208064e-04 5.0948792099107295e-03 0.0000000000000000e+00  2.8311628618702360e-04 5.1407718618734664e-03 0.0000000000000000e+00  2.8504229922563721e-04 5.1857316084745111e-03 0.0000000000000000e+00  2.8697937983275735e-04 5.2296851411903489e-03 0.0000000000000000e+00  2.8894396408723154e-04 5.2725625807957107e-03 0.0000000000000000e+00  2.9095229744655374e-04 5.3142988443410756e-03 0.0000000000000000e+00  2.9301916497232486e-04 5.3548347213116226e-03 0.0000000000000000e+00  2.9515671080271598e-04 5.3941178354532035e-03 0.0000000000000000e+00  2.9737394059519919e-04 5.4321034626398229e-03 0.0000000000000000e+00  2.9967755722929540e-04 5.4687543543187056e-03 0.0000000000000000e+00  3.0207393518251084e-04 5.5040377604263146e-03 0.0000000000000000e+00  3.0457051663884894e-04 5.5379205300032687e-03 0.0000000000000000e+00  3.0717468991537029e-04 5.5703684538484545e-03 0.0000000000000000e+00  3.0989043052241134e-04 5.6013489259681944e-03 0.0000000000000000e+00  3.1271277804109269e-04 5.6308305591131974e-03 0.0000000000000000e+00  3.1561826707458823e-04 5.6587789865961127e-03 0.0000000000000000e+00  3.1856265706148106e-04 5.6851381531183003e-03 0.0000000000000000e+00  3.2147794695256728e-04 5.7098500772748244e-03 0.0000000000000000e+00  3.2429685221979784e-04 5.7329246931653085e-03 0.0000000000000000e+00  3.2696758387306779e-04 5.7545212132467088e-03 0.0000000000000000e+00  2.6591990731016085e-04 4.9942461452925427e-03 0.0000000000000000e+00  2.6780696425966592e-04 5.0423399032474940e-03 0.0000000000000000e+00  2.6963616189816959e-04 5.0896289142197265e-03 0.0000000000000000e+00  2.7142103439336119e-04 5.1360307734967942e-03 0.0000000000000000e+00  2.7317851353153403e-04 5.1814643122218701e-03 0.0000000000000000e+00  2.7492838763900837e-04 5.2258512399848403e-03 0.0000000000000000e+00  2.7669239354220640e-04 5.2691179635877437e-03 0.0000000000000000e+00  2.7849289591786857e-04 5.3111973614301889e-03 0.0000000000000000e+00  2.8035123374568549e-04 5.3520301045910474e-03 0.0000000000000000e+00  2.8228607826088684e-04 5.3915652220719555e-03 0.0000000000000000e+00  2.8431245140674358e-04 5.4297595954298280e-03 0.0000000000000000e+00  2.8644195006965036e-04 5.4665762797970596e-03 0.0000000000000000e+00  2.8868405377380528e-04 5.5019819387322052e-03 0.0000000000000000e+00  2.9104780128285171e-04 5.5359444158308889e-03 0.0000000000000000e+00  2.9354182504748273e-04 5.5684342236500635e-03 0.0000000000000000e+00  2.9617086573404603e-04 5.5994286893259956e-03 0.0000000000000000e+00  2.9892633673409122e-04 5.6289151384129677e-03 0.0000000000000000e+00  3.0177012602137127e-04 5.6568938009963860e-03 0.0000000000000000e+00  3.0463478000458845e-04 5.6833299882996366e-03 0.0000000000000000e+00  3.0743285759502929e-04 5.7081795276911346e-03 0.0000000000000000e+00  3.1003010674069998e-04 5.7313769995799750e-03 0.0000000000000000e+00  3.1238888794419151e-04 5.7530478979946967e-03 0.0000000000000000e+00  2.5540516983832819e-04 5.0368910564513860e-03 0.0000000000000000e+00  2.5712889788505414e-04 5.0847641339755653e-03 0.0000000000000000e+00  2.5878543136102045e-04 5.1317181585243139e-03 0.0000000000000000e+00  2.6039521371539116e-04 5.1776647817562286e-03 0.0000000000000000e+00  2.6198277053890169e-04 5.2225193621703832e-03 0.0000000000000000e+00  2.6357579422409014e-04 5.2662033298345335e-03 0.0000000000000000e+00  2.6520354652423189e-04 5.3086466712150733e-03 0.0000000000000000e+00  2.6689464628108485e-04 5.3497897299430953e-03 0.0000000000000000e+00  2.6867465863329287e-04 5.3895835440942313e-03 0.0000000000000000e+00  2.7056423967885624e-04 5.4279880922040880e-03 0.0000000000000000e+00  2.7257839161326850e-04 5.4649690273060663e-03 0.0000000000000000e+00  2.7472688875721256e-04 5.5004944322903293e-03 0.0000000000000000e+00  2.7701734198546019e-04 5.5345321802637770e-03 0.0000000000000000e+00  2.7945982819773280e-04 5.5670541485625270e-03 0.0000000000000000e+00  2.8206667991317690e-04 5.5980456764059298e-03 0.0000000000000000e+00  2.8483987278271367e-04 5.6275186981826668e-03 0.0000000000000000e+00  2.8773571650905240e-04 5.6555242458701371e-03 0.0000000000000000e+00  2.9069249189584388e-04 5.6820529337303057e-03 0.0000000000000000e+00  2.9359947141202537e-04 5.7070418316447118e-03 0.0000000000000000e+00  2.9640439103852150e-04 5.7304995416365507e-03 0.0000000000000000e+00  2.9853815345045573e-04 5.7521308386050312e-03 0.0000000000000000e+00  2.9984561018256314e-04 5.7734798804345046e-03 0.0000000000000000e+00  2.4364473561967536e-04 5.0802866674484679e-03 0.0000000000000000e+00  2.4518610019394482e-04 5.1278361718039020e-03 0.0000000000000000e+00  2.4666423999925301e-04 5.1743349989741535e-03 0.0000000000000000e+00  2.4810890863225004e-04 5.2196904215969023e-03 0.0000000000000000e+00  2.4955456946939550e-04 5.2638172424026731e-03 0.0000000000000000e+00  2.5103843252488535e-04 5.3066414782365475e-03 0.0000000000000000e+00  2.5259750615358353e-04 5.3481030802426657e-03 0.0000000000000000e+00  2.5426521333059087e-04 5.3881563353536006e-03 0.0000000000000000e+00  2.5606854037576960e-04 5.4267668006140650e-03 0.0000000000000000e+00  2.5802600048600990e-04 5.4639061842962130e-03 0.0000000000000000e+00  2.6014609795088015e-04 5.4995477255199883e-03 0.0000000000000000e+00  2.6242982587949273e-04 5.5336578979026949e-03 0.0000000000000000e+00  2.6488234352683662e-04 5.5661997071867640e-03 0.0000000000000000e+00  2.6752909945823670e-04 5.5971552782699560e-03 0.0000000000000000e+00  2.7039915989034543e-04 5.6265594316175080e-03 0.0000000000000000e+00  2.7346538393997863e-04 5.6545601049946201e-03 0.0000000000000000e+00  2.7666243279096870e-04 5.6811126771377767e-03 0.0000000000000000e+00  2.8003814851085740e-04 5.7062478121778799e-03 0.0000000000000000e+00  2.8326577345950390e-04 5.7296040778862930e-03 0.0000000000000000e+00  2.8710183437806875e-04 5.7525248679556901e-03 0.0000000000000000e+00  2.8501234580206175e-04 5.7740090243327841e-03 0.0000000000000000e+00  2.3194748221646010e-04 5.1714823866370148e-03 0.0000000000000000e+00  2.3326328028958678e-04 5.2173717130193789e-03 0.0000000000000000e+00  2.3457933842306678e-04 5.2619652406405886e-03 0.0000000000000000e+00  2.3594215016315014e-04 5.3051835427925945e-03 0.0000000000000000e+00  2.3739845977298433e-04 5.3469660805781499e-03 0.0000000000000000e+00  2.3899086767286684e-04 5.3872719949026792e-03 0.0000000000000000e+00  2.4075439968637949e-04 5.4260753879565990e-03 0.0000000000000000e+00  2.4271349411049821e-04 5.4633586547876162e-03 0.0000000000000000e+00  2.4487628720060471e-04 5.4991074928787617e-03 0.0000000000000000e+00  2.4723484678004608e-04 5.5332932544880590e-03 0.0000000000000000e+00  2.4976868557938849e-04 5.5658572565249918e-03 0.0000000000000000e+00  2.5249116192676695e-04 5.5967391942106067e-03 0.0000000000000000e+00  2.5548400784445045e-04 5.6260015561878400e-03 0.0000000000000000e+00  2.5868310650781716e-04 5.6539498068769595e-03 0.0000000000000000e+00  2.6212662746938863e-04 5.6806216528016221e-03 0.0000000000000000e+00  2.6536336541318383e-04 5.7056959640090906e-03 0.0000000000000000e+00  2.6920821850284922e-04 5.7304673622789086e-03 0.0000000000000000e+00  2.6782069995037044e-04 5.7525614582540664e-03 0.0000000000000000e+00  2.6709627602558231e-04 5.7735046755546075e-03 0.0000000000000000e+00  2.6661701092554218e-04 5.7933423685039270e-03 0.0000000000000000e+00  2.1739227914552392e-04 5.2155774070112813e-03 0.0000000000000000e+00  2.1859076533540863e-04 5.2606603409219976e-03 0.0000000000000000e+00  2.1984978769043148e-04 5.3042821736975429e-03 0.0000000000000000e+00  2.2122706907693084e-04 5.3463818246717500e-03 0.0000000000000000e+00  2.2277508541465206e-04 5.3869250309753723e-03 0.0000000000000000e+00  2.2453889789358564e-04 5.4258968583888369e-03 0.0000000000000000e+00  2.2655368535089357e-04 5.4632941219232593e-03 0.0000000000000000e+00  2.2883438103343633e-04 5.4991273252071758e-03 0.0000000000000000e+00  2.3136726594341921e-04 5.5333829901833831e-03 0.0000000000000000e+00  2.3411988863017891e-04 5.5660113894807454e-03 0.0000000000000000e+00  2.3699012342549641e-04 5.5968333010873068e-03 0.0000000000000000e+00  2.4003224937435013e-04 5.6258115477656415e-03 0.0000000000000000e+00  2.4334742198194080e-04 5.6538117793407811e-03 0.0000000000000000e+00  2.4654733916853853e-04 5.6803472146422073e-03 0.0000000000000000e+00  2.5051554732202449e-04 5.7069717979047604e-03 0.0000000000000000e+00  2.4935825576992177e-04 5.7301318791804527e-03 0.0000000000000000e+00  2.4876748623597325e-04 5.7520815254456107e-03 0.0000000000000000e+00  2.4816499897609010e-04 5.7732186122217083e-03 0.0000000000000000e+00  2.4784781004109788e-04 5.7931834643117084e-03 0.0000000000000000e+00  2.4777801727704908e-04 5.8122381295235602e-03 0.0000000000000000e+00  2.0151879233180407e-04 5.2599235131955717e-03 0.0000000000000000e+00  2.0268675574692567e-04 5.3039543330550033e-03 0.0000000000000000e+00  2.0400500767028251e-04 5.3463610067127111e-03 0.0000000000000000e+00  2.0553414017282322e-04 5.3871184724964194e-03 0.0000000000000000e+00  2.0732827896925913e-04 5.4262221933904830e-03 0.0000000000000000e+00  2.0944089955214775e-04 5.4636834704039124e-03 0.0000000000000000e+00  2.1190235866820511e-04 5.4995477310928083e-03 0.0000000000000000e+00  2.1472642601650039e-04 5.5338429243063777e-03 0.0000000000000000e+00  2.1785490854181247e-04 5.5665070561970210e-03 0.0000000000000000e+00  2.2132415798524461e-04 5.5975231647976591e-03 0.0000000000000000e+00  2.2431617721186756e-04 5.6262046589521672e-03 0.0000000000000000e+00  2.2683758872930565e-04 5.6539245947729794e-03 0.0000000000000000e+00  2.3066233263848283e-04 5.6819304128293809e-03 0.0000000000000000e+00  2.2924524374312162e-04 5.7066658267901438e-03 0.0000000000000000e+00  2.2867695970117625e-04 5.7298225910601399e-03 0.0000000000000000e+00  2.2823659905598224e-04 5.7519188258300302e-03 0.0000000000000000e+00  2.2803792969728536e-04 5.7731042606041800e-03 0.0000000000000000e+00  2.2806898742810038e-04 5.7932155899658973e-03 0.0000000000000000e+00  2.2819243672576506e-04 5.8123985714387946e-03 0.0000000000000000e+00  2.2845705917395366e-04 5.8307480689443166e-03 0.0000000000000000e+00  1.8436735534533739e-04 5.3042235455160094e-03 0.0000000000000000e+00  1.8564734395439290e-04 5.3469202036789459e-03 0.0000000000000000e+00  1.8718245231715848e-04 5.3878650476990612e-03 0.0000000000000000e+00  1.8902717541033015e-04 5.4270598691840144e-03 0.0000000000000000e+00  1.9125130283443911e-04 5.4645121406479893e-03 0.0000000000000000e+00  1.9392828786586006e-04 5.5003295197090830e-03 0.0000000000000000e+00  1.9708890964018113e-04 5.5345342921727806e-03 0.0000000000000000e+00  2.0089396099991178e-04 5.5672307687978867e-03 0.0000000000000000e+00  2.0498244173475957e-04 5.5978723947657559e-03 0.0000000000000000e+00  2.1076380131773308e-04 5.6284824723072929e-03 0.0000000000000000e+00  2.0869361796235216e-04 5.6557659291884476e-03 0.0000000000000000e+00  2.0784372004541683e-04 5.6816877859229781e-03 0.0000000000000000e+00  2.0722737673155642e-04 5.7063677772932180e-03 0.0000000000000000e+00  2.0684811525683317e-04 5.7296376151722899e-03 0.0000000000000000e+00  2.0675927395841942e-04 5.7519121109288213e-03 0.0000000000000000e+