<?xml version="1.0"?>
<VTKFile type="UnstructuredGrid"  version="0.1"  >
<UnstructuredGrid>
<Piece  NumberOfPoints="614" NumberOfCells="1122">
<Points>
<DataArray  type="Float64"  NumberOfComponents="3"  format="ascii">2.792173913043478 0.2166666666666667 0  2.792173913043478 0.2333333333333333 0  2.808695652173913 0.2333333333333333 0  2.445217391304348 0.2333333333333333 0  2.461739130434782 0.2333333333333333 0  2.461739130434782 0.25 0  2.445217391304348 0.25 0  2.478260869565217 0.2333333333333333 0  2.478260869565217 0.25 0  2.494782608695652 0.2333333333333333 0  2.494782608695652 0.25 0  2.511304347826087 0.2333333333333333 0  2.511304347826087 0.25 0  2.527826086956522 0.2333333333333333 0  2.527826086956522 0.25 0  2.544347826086956 0.2333333333333333 0  2.544347826086956 0.25 0  2.560869565217391 0.2333333333333333 0  2.560869565217391 0.25 0  2.577391304347826 0.2333333333333333 0  2.577391304347826 0.25 0  2.593913043478261 0.2333333333333333 0  2.593913043478261 0.25 0  2.610434782608696 0.2333333333333333 0  2.610434782608696 0.25 0  2.62695652173913 0.2333333333333333 0  2.62695652173913 0.25 0  2.643478260869565 0.2333333333333333 0  2.643478260869565 0.25 0  2.66 0.2333333333333333 0  2.66 0.25 0  2.676521739130435 0.2333333333333333 0  2.676521739130435 0.25 0  2.693043478260869 0.2333333333333333 0  2.693043478260869 0.25 0  2.709565217391304 0.2333333333333333 0  2.709565217391304 0.25 0  2.726086956521739 0.2333333333333333 0  2.726086956521739 0.25 0  2.742608695652174 0.2333333333333333 0  2.742608695652174 0.25 0  2.759130434782609 0.2333333333333333 0  2.759130434782609 0.25 0  2.775652173913044 0.2333333333333333 0  2.775652173913044 0.25 0  2.792173913043478 0.25 0  2.808695652173913 0.25 0  2.825217391304347 0.25 0  2.28 0.25 0  2.296521739130434 0.25 0  2.296521739130434 0.2666666666666667 0  2.28 0.2666666666666667 0  2.31304347826087 0.25 0  2.31304347826087 0.2666666666666667 0  2.329565217391304 0.25 0  2.329565217391304 0.2666666666666667 0  2.346086956521739 0.25 0  2.346086956521739 0.2666666666666667 0  2.362608695652174 0.25 0  2.362608695652174 0.2666666666666667 0  2.379130434782609 0.25 0  2.379130434782609 0.2666666666666667 0  2.395652173913044 0.25 0  2.395652173913044 0.2666666666666667 0  2.412173913043478 0.25 0  2.412173913043478 0.2666666666666667 0  2.428695652173913 0.25 0  2.428695652173913 0.2666666666666667 0  2.445217391304348 0.2666666666666667 0  2.461739130434782 0.2666666666666667 0  2.478260869565217 0.2666666666666667 0  2.494782608695652 0.2666666666666667 0  2.511304347826087 0.2666666666666667 0  2.527826086956522 0.2666666666666667 0  2.544347826086956 0.2666666666666667 0  2.560869565217391 0.2666666666666667 0  2.577391304347826 0.2666666666666667 0  2.593913043478261 0.2666666666666667 0  2.610434782608696 0.2666666666666667 0  2.62695652173913 0.2666666666666667 0  2.643478260869565 0.2666666666666667 0  2.66 0.2666666666666667 0  2.676521739130435 0.2666666666666667 0  2.693043478260869 0.2666666666666667 0  2.709565217391304 0.2666666666666667 0  2.726086956521739 0.2666666666666667 0  2.742608695652174 0.2666666666666667 0  2.759130434782609 0.2666666666666667 0  2.775652173913044 0.2666666666666667 0  2.792173913043478 0.2666666666666667 0  2.808695652173913 0.2666666666666667 0  2.825217391304347 0.2666666666666667 0  2.841739130434783 0.2666666666666667 0  2.24695652173913 0.2666666666666667 0  2.263478260869565 0.2666666666666667 0  2.263478260869565 0.2833333333333333 0  2.28 0.2833333333333333 0  2.296521739130434 0.2833333333333333 0  2.31304347826087 0.2833333333333333 0  2.329565217391304 0.2833333333333333 0  2.346086956521739 0.2833333333333333 0  2.362608695652174 0.2833333333333333 0  2.379130434782609 0.2833333333333333 0  2.395652173913044 0.2833333333333333 0  2.412173913043478 0.2833333333333333 0  2.428695652173913 0.2833333333333333 0  2.445217391304348 0.2833333333333333 0  2.461739130434782 0.2833333333333333 0  2.478260869565217 0.2833333333333333 0  2.494782608695652 0.2833333333333333 0  2.511304347826087 0.2833333333333333 0  2.527826086956522 0.2833333333333333 0  2.544347826086956 0.2833333333333333 0  2.560869565217391 0.2833333333333333 0  2.577391304347826 0.2833333333333333 0  2.593913043478261 0.2833333333333333 0  2.610434782608696 0.2833333333333333 0  2.62695652173913 0.2833333333333333 0  2.643478260869565 0.2833333333333333 0  2.66 0.2833333333333333 0  2.676521739130435 0.2833333333333333 0  2.693043478260869 0.2833333333333333 0  2.709565217391304 0.2833333333333333 0  2.726086956521739 0.2833333333333333 0  2.742608695652174 0.2833333333333333 0  2.759130434782609 0.2833333333333333 0  2.775652173913044 0.2833333333333333 0  2.792173913043478 0.2833333333333333 0  2.808695652173913 0.2833333333333333 0  2.825217391304347 0.2833333333333333 0  2.841739130434783 0.2833333333333333 0  2.858260869565217 0.2833333333333333 0  2.28 0.3 0  2.296521739130434 0.3 0  2.31304347826087 0.3 0  2.329565217391304 0.3 0  2.346086956521739 0.3 0  2.362608695652174 0.3 0  2.379130434782609 0.3 0  2.395652173913044 0.3 0  2.412173913043478 0.3 0  2.428695652173913 0.3 0  2.445217391304348 0.3 0  2.461739130434782 0.3 0  2.478260869565217 0.3 0  2.494782608695652 0.3 0  2.511304347826087 0.3 0  2.527826086956522 0.3 0  2.544347826086956 0.3 0  2.560869565217391 0.3 0  2.577391304347826 0.3 0  2.593913043478261 0.3 0  2.610434782608696 0.3 0  2.62695652173913 0.3 0  2.643478260869565 0.3 0  2.66 0.3 0  2.676521739130435 0.3 0  2.693043478260869 0.3 0  2.709565217391304 0.3 0  2.726086956521739 0.3 0  2.742608695652174 0.3 0  2.759130434782609 0.3 0  2.775652173913044 0.3 0  2.792173913043478 0.3 0  2.808695652173913 0.3 0  2.825217391304347 0.3 0  2.841739130434783 0.3 0  2.858260869565217 0.3 0  2.874782608695652 0.3 0  2.296521739130434 0.3166666666666667 0  2.31304347826087 0.3166666666666667 0  2.329565217391304 0.3166666666666667 0  2.346086956521739 0.3166666666666667 0  2.362608695652174 0.3166666666666667 0  2.379130434782609 0.3166666666666667 0  2.395652173913044 0.3166666666666667 0  2.412173913043478 0.3166666666666667 0  2.428695652173913 0.3166666666666667 0  2.445217391304348 0.3166666666666667 0  2.461739130434782 0.3166666666666667 0  2.478260869565217 0.3166666666666667 0  2.494782608695652 0.3166666666666667 0  2.511304347826087 0.3166666666666667 0  2.527826086956522 0.3166666666666667 0  2.544347826086956 0.3166666666666667 0  2.560869565217391 0.3166666666666667 0  2.577391304347826 0.3166666666666667 0  2.593913043478261 0.3166666666666667 0  2.610434782608696 0.3166666666666667 0  2.62695652173913 0.3166666666666667 0  2.643478260869565 0.3166666666666667 0  2.66 0.3166666666666667 0  2.676521739130435 0.3166666666666667 0  2.693043478260869 0.3166666666666667 0  2.709565217391304 0.3166666666666667 0  2.726086956521739 0.3166666666666667 0  2.742608695652174 0.3166666666666667 0  2.759130434782609 0.3166666666666667 0  2.775652173913044 0.3166666666666667 0  2.792173913043478 0.3166666666666667 0  2.808695652173913 0.3166666666666667 0  2.825217391304347 0.3166666666666667 0  2.841739130434783 0.3166666666666667 0  2.858260869565217 0.3166666666666667 0  2.874782608695652 0.3166666666666667 0  2.891304347826087 0.3166666666666667 0  2.31304347826087 0.3333333333333333 0  2.329565217391304 0.3333333333333333 0  2.346086956521739 0.3333333333333333 0  2.362608695652174 0.3333333333333333 0  2.379130434782609 0.3333333333333333 0  2.395652173913044 0.3333333333333333 0  2.412173913043478 0.3333333333333333 0  2.428695652173913 0.3333333333333333 0  2.445217391304348 0.3333333333333333 0  2.461739130434782 0.3333333333333333 0  2.478260869565217 0.3333333333333333 0  2.494782608695652 0.3333333333333333 0  2.511304347826087 0.3333333333333333 0  2.527826086956522 0.3333333333333333 0  2.544347826086956 0.3333333333333333 0  2.560869565217391 0.3333333333333333 0  2.577391304347826 0.3333333333333333 0  2.593913043478261 0.3333333333333333 0  2.610434782608696 0.3333333333333333 0  2.62695652173913 0.3333333333333333 0  2.643478260869565 0.3333333333333333 0  2.66 0.3333333333333333 0  2.676521739130435 0.3333333333333333 0  2.693043478260869 0.3333333333333333 0  2.709565217391304 0.3333333333333333 0  2.726086956521739 0.3333333333333333 0  2.742608695652174 0.3333333333333333 0  2.759130434782609 0.3333333333333333 0  2.775652173913044 0.3333333333333333 0  2.792173913043478 0.3333333333333333 0  2.808695652173913 0.3333333333333333 0  2.825217391304347 0.3333333333333333 0  2.841739130434783 0.3333333333333333 0  2.858260869565217 0.3333333333333333 0  2.874782608695652 0.3333333333333333 0  2.891304347826087 0.3333333333333333 0  2.907826086956522 0.3333333333333333 0  2.329565217391304 0.35 0  2.346086956521739 0.35 0  2.362608695652174 0.35 0  2.379130434782609 0.35 0  2.395652173913044 0.35 0  2.412173913043478 0.35 0  2.428695652173913 0.35 0  2.445217391304348 0.35 0  2.461739130434782 0.35 0  2.478260869565217 0.35 0  2.494782608695652 0.35 0  2.511304347826087 0.35 0  2.527826086956522 0.35 0  2.544347826086956 0.35 0  2.560869565217391 0.35 0  2.577391304347826 0.35 0  2.593913043478261 0.35 0  2.610434782608696 0.35 0  2.62695652173913 0.35 0  2.643478260869565 0.35 0  2.66 0.35 0  2.676521739130435 0.35 0  2.693043478260869 0.35 0  2.709565217391304 0.35 0  2.726086956521739 0.35 0  2.742608695652174 0.35 0  2.759130434782609 0.35 0  2.775652173913044 0.35 0  2.792173913043478 0.35 0  2.808695652173913 0.35 0  2.825217391304347 0.35 0  2.841739130434783 0.35 0  2.858260869565217 0.35 0  2.874782608695652 0.35 0  2.891304347826087 0.35 0  2.907826086956522 0.35 0  2.924347826086957 0.35 0  2.346086956521739 0.3666666666666666 0  2.362608695652174 0.3666666666666666 0  2.379130434782609 0.3666666666666666 0  2.395652173913044 0.3666666666666666 0  2.412173913043478 0.3666666666666666 0  2.428695652173913 0.3666666666666666 0  2.445217391304348 0.3666666666666666 0  2.461739130434782 0.3
[...]
<CellData  Scalars="rho"> 
<DataArray  type="Float64"  Name="rho"  format="ascii">2.7804944344662924e-01   3.2707150002270607e-01   3.2232891742826186e-01   3.2336643575058038e-01   3.1780626684441804e-01   3.1893281794695622e-01   3.1386581086545007e-01   3.1897164678231343e-01   3.1211918018888901e-01   3.2192713884376767e-01   3.1387155820769957e-01   3.2800104701161226e-01   3.1773586065719178e-01   3.3624970007077254e-01   3.2599134751996783e-01   3.5324193095079920e-01   3.3536836034578604e-01   3.5905648605147128e-01   3.5358390672734669e-01   3.5999897664381719e-01   3.5677062399703097e-01   3.5672937225883722e-01   3.5617190742957927e-01   3.4873552440371774e-01   3.5099062721839691e-01   3.3633410290430116e-01   3.4121034268468065e-01   3.3528130665865902e-01   3.4100800491329208e-01   2.8849769643188922e-01   3.1628406168108375e-01   2.7321476577384590e-01   2.8008733313370782e-01   2.5953858058507295e-01   2.6923962964030779e-01   2.5315110323107537e-01   2.6175384899789000e-01   2.2903675782265714e-01   2.6742376847945265e-01   2.4124617112531094e-01   2.7869330828307742e-01   2.8266431206142612e-01   3.1514298623679887e-01   3.0692364984313764e-01   3.4472721025463754e-01   3.7947679457671568e-01   3.4956310630928822e-01   3.6055091539506395e-01   3.3149567405812752e-01   3.4592786091479755e-01   3.1506597785576013e-01   3.5228945494669800e-01   3.1269879271357048e-01   3.4106724071685601e-01   3.1461058973174605e-01   3.3890818118233312e-01   3.2248180874630367e-01   3.3904651979001527e-01   3.2488077875203419e-01   3.3980523485766545e-01   3.2589279226109885e-01   3.3970896776614867e-01   3.2481076916861840e-01   3.3784019270836291e-01   3.2174140996579859e-01   3.3405967086353877e-01   3.1313850294389334e-01   3.2492205493276333e-01   3.0701629093441063e-01   3.1771406444664146e-01   3.0253927433648692e-01   3.1182478766011579e-01   3.0118541203824051e-01   3.0888996534811503e-01   3.0375993663565237e-01   3.0996933764157120e-01   3.1021480254874528e-01   3.1531657005475888e-01   3.1881205121146006e-01   3.1339135247717803e-01   3.3007281444326808e-01   3.2380939924009544e-01   3.5040668607277420e-01   3.4548014241890668e-01   3.5454276865841494e-01   3.5364714999818342e-01   3.5483351429224436e-01   3.5640104326992572e-01   3.5064376075018400e-01   3.5497957359810361e-01   3.4219222966101942e-01   3.4926964142365508e-01   3.4434926105447600e-01   3.5295304450616216e-01   3.3488518811902712e-01   3.4435086163617612e-01   2.8974255244287689e-01   3.2295792335315321e-01   2.8087182424963553e-01   3.1605759690221163e-01   2.8279082053789750e-01   2.9228006628441205e-01   3.1643594322757174e-01   3.2443102572798338e-01   3.3011561206380780e-01   3.3697947913445336e-01   3.5845687972486034e-01   3.6415844673049685e-01   3.9159119213198168e-01   4.0591117949805150e-01   4.2855072112260467e-01   4.3172093925859450e-01   4.5966306925591616e-01   4.4715818010541614e-01   4.2412022029570756e-01   4.4837710040329842e-01   4.0370737833055342e-01   4.2755754615677682e-01   3.7426613821135013e-01   4.0880911111169738e-01   3.5368407079302444e-01   3.9462897502647010e-01   3.4614132058460001e-01   3.6786278237613079e-01   3.4190037318055971e-01   3.6041983723323762e-01   3.3948085446916215e-01   3.5000806187845290e-01   3.3956653224359612e-01   3.4596771378551494e-01   3.3866418822898270e-01   3.4353672601404073e-01   3.4106364850717091e-01   3.3995383024007086e-01   3.3455775322070641e-01   3.3277202741929862e-01   3.2222294508453664e-01   3.2015305148967843e-01   3.1382351391462404e-01   3.1066038907697330e-01   3.0774351295427027e-01   3.0308441166160965e-01   3.0540703639199029e-01   2.9895092911708016e-01   3.0759793352053000e-01   2.9925346579269779e-01   3.1429036146975403e-01   3.0424113092925203e-01   3.2462132362136431e-01   3.1334760179993426e-01   3.3699804311424980e-01   3.2525132538734314e-01   3.6001180549137984e-01   3.3805556015917898e-01   3.6762858071124155e-01   3.5941087347606404e-01   3.7171934619688674e-01   3.6743095753064253e-01   3.7199612654508440e-01   3.7006558141049228e-01   3.6858270960796341e-01   3.6914705909393281e-01   3.6249891368090176e-01   3.6537931042478305e-01   3.6986674921703583e-01   3.6027337311334551e-01   3.6672553937859803e-01   3.6463574391298392e-01   3.5713282543824038e-01   3.7070165279109868e-01   3.6124183434805773e-01   3.8332055821723321e-01   3.7066971489404110e-01   3.9260708497796609e-01   4.0258993511659141e-01   3.8006930976273318e-01   4.2155806630246856e-01   4.0262994728135232e-01   4.4515448859708323e-01   4.2339790154750978e-01   4.7283254218594672e-01   4.9384672183581102e-01   5.1132889613372867e-01   5.1575884922126891e-01   5.4033318070000558e-01   4.8576937984749402e-01   4.5986816953923271e-01   4.5881636299674888e-01   4.3547886171466232e-01   4.4241151825598357e-01   4.1921349507472588e-01   4.2749950749832166e-01   3.9565668598434639e-01   4.0437350271020728e-01   3.8445052682036085e-01   3.8462979505760259e-01   3.7049389013663936e-01   3.6396986018799515e-01   3.6218884595976364e-01   3.5359404543398026e-01   3.5369279543183574e-01   3.3946810849017545e-01   3.4606771139445142e-01   3.2915800921732941e-01   3.1328529977875985e-01   3.2182619046247468e-01   2.9806623745291039e-01   3.0618053452883193e-01   2.8776160461939881e-01   2.9451298971573714e-01   2.7780927070307554e-01   2.8533335424988665e-01   2.7447005503120869e-01   2.7995608848499604e-01   2.7587645824460016e-01   2.7924547239073028e-01   2.8201742666062507e-01   2.8342945793703311e-01   2.9214308671929601e-01   2.9203495296024634e-01   3.0485174652939417e-01   3.0393275122743180e-01   3.3090707530174857e-01   3.1008893894044465e-01   3.4270891928317976e-01   3.4016605153027374e-01   3.4963474819363172e-01   3.5399234916957961e-01   3.5460606100000297e-01   3.5980148299529535e-01   3.5568087240622032e-01   3.6334886941978461e-01   3.5508686600546491e-01   3.6521132413384805e-01   3.5428300417676006e-01   3.7195757339303903e-01   3.6085328993354571e-01   3.8166790199634232e-01   3.7829150132923117e-01   3.9533815703259662e-01   3.9495405841678582e-01   4.0024964496957499e-01   4.0699108828730118e-01   4.1315809434318035e-01   4.3055106066754145e-01   4.2958152814939748e-01   4.4755433924724453e-01   4.4902860227828273e-01   4.6497937245512166e-01   4.7154411614931019e-01   4.8641576534425035e-01   4.9107135461193657e-01   5.1010470706106015e-01   5.1269657854242801e-01   5.2985071545171891e-01   5.3052249206235813e-01   5.4387961294320086e-01   4.7784430265256372e-01   4.5697432473282407e-01   4.9483366992059585e-01   4.3473912773684753e-01   4.7232293772818901e-01   4.2208200677881680e-01   4.4822735391690643e-01   3.9641155955048968e-01   4.1997058258747438e-01   3.8243006846133143e-01   4.0164944276517900e-01   3.6983602341982996e-01   3.8697895143722533e-01   3.5262526835028907e-01   3.7320544478090567e-01   3.3594611170084088e-01   3.5436824211966106e-01   3.2005017289982157e-01   3.4029705218725775e-01   3.0529732061403825e-01   3.2860440707967148e-01   2.9333137943528098e-01   3.0558039841121093e-01   2.8471089685044865e-01   2.9509048126253878e-01   2.8409011356882297e-01   2.8876072783698181e-01   2.8464054171713477e-01   2.8728113987275844e-01   2.9011332023801017e-01   2.8947605021141354e-01   2.9989698389127445e-01   3.0081540008960883e-01   3.1604901412954772e-01   3.1177072312572646e-01   3.4631211431525144e-01   3.2047437678259272e-01   3.5863481204207931e-01   3.5164343647796309e-01   3.6735913931420744e-01   3.6464741048600757e-01   3.7488107029778234e-01   3.7433890449880713e-01   3.8133190499150527e-01   3.8331237226903875e-01   3.9250999047378149e-01   3.9653840072985852e-01   3.9971301120351116e-01   4.0578216992920685e-01   4.1609651204643167e-01   4.2374722959819372e-01   4.2757401455105920e-01   4.3412763953765032e-01   4.3869156424184147e-01   4.4998435787274804e-01   4.6063164989899574e-01   4.6826508585113041e-01   4.7940685570250424e-01   4.8696189614041152e-01   5.0013773522810479e-01   5.0581564973916304e-01   5.1996363486123232e-01   5.2376414995371967e-01   5.3807516885290518e-01   5.3942121192876791e-01   5.5238227220987679e-01   5.5103657400247696e-01   5.6059382191908502e-01   5.6323443118462668e-01   5.5157524181099349e-01   5.6129227936185899e-01   5.4744069505131376e-01   5.3818733773087390e-01   5.1067667319720300e-01   5.3984959237280361e-01   4.8029620917499399e-01   5.0739633077387691e-01   4.5101254479221814e-01   4.7267621179749025e-01   4.1515461203575693e-01   4.3971145654811078e-01   3.9337810658647088e-01   4.0108383982938645e-01   3.7399872085366914e-01   3.7730201610024466e-01   3.5942296597242768e-01   3.5623069672073876e-01   3.3638263998590578e-01   3.3361800666818203e-01   3.2146242986689805e-01   3.1583551021517048e-01   3.0299133419511048e-01   2.9561660296599279e-01   2.9189420643169156e-01   2.8307780165726582e-01   2.8501262609525263e-01   2.7742254210985778e-01   2.8415819213546689e-01   2.7479395440099780e-01   2.8861776644152842e-01   2.7761195392299898e-01   2.9789952004993869e-01   2.8559050925050800e-01   3.3915928416069113e-01   3.3173189575737516e-01   3.3986071685137142e-01   3.3340133826347734e-01   3.5487940095836118e-01   3.4833672927705345e-01   3.7292508436748628e-01   3.6554236141537910e-01   3.8565302357087466e-01   3.8129864494560456e-01   4.0310688236962722e-01   3.9391001977478618e-01   4.1714811024333714e-01   4.0997546728964046e-01   4.3912817588328390e-01   4.3376242001757903e-01   4.5403676661416870e-01   4.5087477646106389e-01   4.7349913897983076e-01   4.7308877486225420e-01   4.9520203617294933e-01   4.9582793568815559e-01   5.1654126303911674e-01   5.3042272522281564e-01   5.3689247220520175e-01   5.5178319365567130e-01   5.5494044063880021e-01   5.6995134244832035e-01   5.7323444384502098e-01   5.8361787172193613e-01   5.8361756225122585e-01   5.9158357323141553e-01   5.8701638154899249e-01   5.9263197047240779e-01   5.8220438538853581e-01   5.8557641882973233e-01   5.6446670968674906e-01   5.7222827422653888e-01   5.2623277493419285e-01   5.4529315759816077e-01   5.1772859451687347e-01   5.6212882041559575e-01   4.9937190185298347e-01   5.3375606588469593e-01   4.6045737569269923e-01   4.6726385397406223e-01   4.2173876168265217e-01   4.2564807877055438e-01   3.7985766408498295e-01   3.8726800239660503e-01   3.5084426910901068e-01   3.4512049324464228e-01   3.2826466189173004e-01   3.2026301870789564e-01   3.1189679460625613e-01   2.9918221231549258e-01   2.8696836749067867e-01   2.7655120728043775e-01   2.6679403008233038e-01   2.5556690763256334e-01   2.5548676944805854e-01   2.4252311291718492e-01   2.4945334984291742e-01   2.3466491271262888e-01   2.4908077369577444e-01   2.3169068418681574e-01   2.5361601755161600e-01   2.3489451833617728e-01   2.6331138265712067e-01   2.4301165250490020e-01   3.0282274076850829e-01   2.8186038687006321e-01   3.0840597081267657e-01   2.9975738311182681e-01   3.2758137102731344e-01   3.0611556522070016e-01   3.4581073416255892e-01   3.2504715551533364e-01   3.7246582837517023e-01   3.4968866118231356e-01   3.9383579181462453e-01   3.7269815675989065e-01   4.2279899087406225e-01   4.0403782888119028e-01   4.5073945491736639e-01   4.3343775821422503e-01   4.7868910686637511e-01   4.6368669482968911e-01   5.0807889700057840e-01   4.9552610097351774e-01   5.3716398059780390e-01   5.2767031028950284e-01   5.6370855224180572e-01   5.6203486577444028e-01   5.8557183943336055e-01   5.8691712626460490e-01   6.0108854191095273e-01   6.0308543899728362e-01   6.0909757487039751e-01   6.0486190449714394e-01   6.0875930384993449e-01   6.0289266869250879e-01   5.9940603537672765e-01   5.9151557818887313e-01   5.5257958969496335e-01   5.7076148234447166e-01   5.2544500124306248e-01   5.1654929855061804e-01   4.9653729297443405e-01   4.8318334122944190e-01   4.6178158297284400e-01   4.4838808905677646e-01   4.0878645116182544e-01   5.0960391223399926e-01   4.4494231897928382e-01   4.5085177972146279e-01   3.7944899958349404e-01   3.7318790393332524e-01   3.3816335597886921e-01   3.3306650774521823e-01   2.9460933584075921e-01   2.8909613171673548e-01   2.6957111659361549e-01   2.5705845625605694e-01   2.4882916561617296e-01   2.3469355350136659e-01   2.2380007455304260e-01   2.1666933804210817e-01   2.1736083032897469e-01   1.9690136215910839e-01   2.0611633926132733e-01   1.7914689281458887e-01   2.0019029657341247e-01   1.7126812722917722e-01   1.9854581096858240e-01   1.6768469564588284e-01   2.0353099122062382e-01   1.7124137010288268e-01   2.3983919980723484e-01   1.7948320457483277e-01   2.5081774139131885e-01   2.1539147502204783e-01   2.6933277634025932e-01   2.3290994474114265e-01   2.7998622784654131e-01   2.5692572394498397e-01   3.0163549647886007e-01   2.7277699791750587e-01   3.2994055267870792e-01   3.0125764999920662e-01   3.6340047230926592e-01   3.2985418717419962e-01   3.9158667244435463e-01   3.6415568821531968e-01   4.2494550040776097e-01   3.9848743738449410e-01   4.6059517068356459e-01   4.3550236694029365e-01   4.9928813302416714e-01   4.7659117010934426e-01   5.4061833617749466e-01   5.1721478708102264e-01   5.7075452421050932e-01   5.6328261550580327e-01   6.0123740579725771e-01   5.8949251720301943e-01   5.9626710342871880e-01   5.9619775643232176e-01   5.9010428695648642e-01   5.7645332018758200e-01   5.6883483292594739e-01   5.5173687492929047e-01   5.4492397801392900e-01   5.2655418689012734e-01   5.1242214359703153e-01   4.9282626256953938e-01   4.5127563137936899e-01   4.3062711440675117e-01   4.1586976454200825e-01   3.9495939701804172e-01   3.7627279684803766e-01   3.5596495108586601e-01   3.3416383628729851e-01   3.1176526183253539e-01   2.4579449117615673e-01   3.8702221839144574e-01   3.0851723145414495e-01   3.2979108758580572e-01   2.6922004662384458e-01   2.5888540165093038e-01   2.2680014124053430e-01   2.2341656729104581e-01   1.9632482319675720e-01   1.8495228445756304e-01   1.7572741388750257e-01   1.6333262165336584e-01   1.6840663376678183e-01   1.5355984338549780e-01   1.5651814568043851e-01   1.4210458654135763e-01   1.2656173531842249e-01   1.1402001309887758e-01   1.2035609020879708e-01   1.0661290450347920e-01   1.1920978240882105e-01   1.0393481190330285e-01   1.2304280117757041e-01   1.0852275661291208e-01   1.5625183931018230e-01   1.3918612447337944e-01   1.6677269152505766e-01   1.4895280816906556e-01   1.8481639551911230e-01   1.6551560529744833e-01   1.9964592552284680e-01   1.7994665245871341e-01   2.1856582914694628e-01   1.9670446631325203e-01   2.4879213487460403e-01   2.2563952314260530e-01   3.0100287238461354e-01   2.5556364765361234e-01   3.3217972727075262e-01   2.9149923310183684e-01   3.9491986256056971e-01   3.5182287453331806e-01   4.4091132461830745e-01   4.3731567911933922e-01   5.3412496908839391e-01   4.9119192211217166e-01   5.9263932938132657e-01   5.5331016975690117e-01   5.4197373215265798e-01   5.4099630085228911e-01   5.5349717254160091e-01   5.2290895199086507e-01   5.5621481106095494e-01   5.1765638944148284e-01   5.2053762219090083e-01   4.9362635886425726e-01   4.8405848989570283e-01   4.4784347146683628e-01   4.4894974153291106e-01   4.0625160762664586e-01   3.8424335238709328e-01   3.4399670544008487e-01   3.5155964270902001e-01   3.1226865083871014e-01   3.1375818342327649e-01   2.9045330060962327e-01   2.6990341449219724e-01   2.5333219409727403e-01   2.2622181691638868e-01   2.1266736620635940e-01   1.7443290998664113e-01   1.6343155010111868e-01   1.3307106277579117e-01   2.4927950277250099e-01   2.0884839544359080e-01   2.0595484929054755e-01   1.6740557764422692e-01   1.6487035814655643e-01   1.4691561985176727e-01   1.4429869230164558e-01   1.3315615247774409e-01   1.3388882560217963e-01   1.2379944386789979e-01   1.2412376063956901e-01   1.1485002551745589e-01   1.2075544931126518e-01   9.0442488608564006e-02   1.1420235319861657e-01   8.3469313284984373e-02   9.1428198066353258e-02   8.2510569625250538e-02   8.8112478176893841e-02   8.4575179323790162e-02   8.9150696383195061e-02   1.1407001222570280e-01   9.0979606782049444e-02   1.2473721789937681e-01   1.1763581398671367e-01   1.4164943171882846e-01   1.2782260776653856e-01   1.5632707670737100e-01   1.3768415477569187e-01   1.7418953590132519e-01   1.4993367990720147e-01   2.0389868633270278e-01   1.7036982997613637e-01   2.4112051478289212e-01   2.1982886515098313e-01   2.7830497467208881e-01   2.5795791138988172e-01   3.4124347466819965e-01   2.9123562811911224e-01   4.3054359475651366e-01   3.5647099280031752e-01   4.9538045688675336e-01   4.0878543055229427e-01   4.9470956586148090e-01   4.2488250116556481e-01   4.8825264483799352e-01   4.5466333520935326e-01   4.9150505137872913e-01   4.6261768991233898e-01   4.5585646017170250e-01   4.4792075339457466e-01   4.0833228405816535e-01   4.1448195668603927e-01   3.6516370299866346e-01   3.6265195322205251e-01   3.2409828974657140e-01   3.1797828518060789e-01   2.9192045344029871e-01   2.8022264718796086e-01   2.5671622415441314e-01   2.4818610937801433e-01   2.2081041097023035e-01   2.0962787772743907e-01   1.8183191805323864e-01   1.7591020339958791e-01   1.3172863570963872e-01   1.3319271472447197e-01   1.0848106426889756e-01   1.1112409813494013e-01   8.7789272076751287e-02   9.1716718255894780e-02   5.0573312128064832e-02   1.9752201005549500e-01   1.7342068601252825e-01   1.8516824658985526e-01   1.5478318362016580e-01   1.6413643318456611e-01   1.4566686127383979e-01   1.5390533269609014e-01   1.4109244656291028e-01   1.4869007168237350e-01   1.3639448456500014e-01   1.4360044397844726e-01   1.2984755286550415e-01   1.3825889863222435e-01   1.0954319736521155e-01   1.3483482613526698e-01   1.0711596933220840e-01   1.1611286128419701e-01   1.0704824378742064e-01   1.1603656770768456e-01   1.3039614465601548e-01   1.1853487623138936e-01   1.3211912294223299e-01   1.4142464924775858e-01   1.4175462236079564e-01   1.5119780031245297e-01   1.5408073937382447e-01   1.6058661655408413e-01   1.6488515573164844e-01   1.6911093996745871e-01   1.8504270281226745e-01   1.8582781756364242e-01   2.0423356950911503e-01   2.0809911448721310e-01   2.4648816168272122e-01   2.2921146557630598e-01   2.7402922474982738e-01   2.5670058631325454e-01   3.0819537792446056e-01   2.9945252340784428e-01   3.4598804256574939e-01   3.3436166312339727e-01   3.9569794763172622e-01   3.8158748084330074e-01   4.1359643244071237e-01   4.0383925944834775e-01   4.0920350546567530e-01   4.0370177122035422e-01   3.8425646883905251e-01   3.8402678724472888e-01   3.3095226985731407e-01   3.3604329379157521e-01   2.9496845271357525e-01   3.0360477087880838e-01   2.6526420262183303e-01   2.7499980205971208e-01   2.3945749829814453e-01   2.4989238064918734e-01   2.1180049445852478e-01   2.2291199842068685e-01   1.8131488478868799e-01   1.9281713635015416e-01   1.5998391430126313e-01   1.5929541658852675e-01   1.2706824896307717e-01   1.3532066363629117e-01   1.0441954265823061e-01   1.2035209240379774e-01   9.0005581918727637e-02   1.0728055350554248e-01   7.6191971443005643e-02   9.5707635229139110e-02   6.9470622787791300e-02   2.2255078323055447e-01   2.1185258811980825e-01   2.4332871935628186e-01   2.0445763295760563e-01   2.3590919482388198e-01   1.9939729722847563e-01   2.3089238201893494e-01   1.9587703842385473e-01   2.2738967799799215e-01   1.9331810026632490e-01   2.2292887891350902e-01   1.8955155822714556e-01   2.2079834195588532e-01   1.8694066138075038e-01   2.1846402951521679e-01   1.8660528016948821e-01   2.1170870761695959e-01   1.8693618201960793e-01   2.1101253510887788e-01   1.8710268457691467e-01   2.1160914161031968e-01   1.9594464410301554e-01   2.1501830006438555e-01   2.0065923839050703e-01   2.1702990282472365e-01   2.0831594230566186e-01   2.2163608049135583e-01   2.1977213720708447e-01   2.3420757748928983e-01   2.4804641714397066e-01   2.4683241429946068e-01   2.6332159855647064e-01   2.7005974258984300e-01   2.8878298573263200e-01   2.9689878439149908e-01   3.1233312349542447