<?xml version="1.0"?>
<VTKFile type="UnstructuredGrid"  version="0.1"  >
<UnstructuredGrid>
<Piece  NumberOfPoints="611" NumberOfCells="1123">
<Points>
<DataArray  type="Float64"  NumberOfComponents="3"  format="ascii">1.883478260869565 0.01666666666666667 0  1.9 0.01666666666666667 0  1.9 0.03333333333333333 0  1.883478260869565 0.03333333333333333 0  1.916521739130435 0.03333333333333333 0  1.9 0.05 0  1.883478260869565 0.05 0  1.916521739130435 0.05 0  1.933043478260869 0.05 0  1.9 0.06666666666666667 0  1.883478260869565 0.06666666666666667 0  1.916521739130435 0.06666666666666667 0  1.933043478260869 0.06666666666666667 0  1.949565217391304 0.06666666666666667 0  1.9 0.08333333333333333 0  1.883478260869565 0.08333333333333333 0  1.916521739130435 0.08333333333333333 0  1.933043478260869 0.08333333333333333 0  1.949565217391304 0.08333333333333333 0  1.966086956521739 0.08333333333333333 0  1.9 0.1 0  1.883478260869565 0.1 0  1.916521739130435 0.1 0  1.933043478260869 0.1 0  1.949565217391304 0.1 0  1.966086956521739 0.1 0  1.982608695652174 0.1 0  1.9 0.1166666666666667 0  1.883478260869565 0.1166666666666667 0  1.916521739130435 0.1166666666666667 0  1.933043478260869 0.1166666666666667 0  1.949565217391304 0.1166666666666667 0  1.966086956521739 0.1166666666666667 0  1.982608695652174 0.1166666666666667 0  1.999130434782608 0.1166666666666667 0  1.9 0.1333333333333333 0  1.883478260869565 0.1333333333333333 0  1.916521739130435 0.1333333333333333 0  1.933043478260869 0.1333333333333333 0  1.949565217391304 0.1333333333333333 0  1.966086956521739 0.1333333333333333 0  1.982608695652174 0.1333333333333333 0  1.999130434782608 0.1333333333333333 0  2.015652173913043 0.1166666666666667 0  2.015652173913043 0.1333333333333333 0  2.032173913043478 0.1166666666666667 0  2.032173913043478 0.1333333333333333 0  2.048695652173913 0.1166666666666667 0  2.048695652173913 0.1333333333333333 0  2.065217391304348 0.1166666666666667 0  2.065217391304348 0.1333333333333333 0  2.081739130434782 0.1166666666666667 0  2.081739130434782 0.1333333333333333 0  2.098260869565217 0.1333333333333333 0  1.9 0.15 0  1.883478260869565 0.15 0  1.916521739130435 0.15 0  1.933043478260869 0.15 0  1.949565217391304 0.15 0  1.966086956521739 0.15 0  1.982608695652174 0.15 0  1.999130434782608 0.15 0  2.015652173913043 0.15 0  2.032173913043478 0.15 0  2.048695652173913 0.15 0  2.065217391304348 0.15 0  2.081739130434782 0.15 0  2.098260869565217 0.15 0  2.114782608695652 0.15 0  1.9 0.1666666666666667 0  1.883478260869565 0.1666666666666667 0  1.916521739130435 0.1666666666666667 0  1.933043478260869 0.1666666666666667 0  1.949565217391304 0.1666666666666667 0  1.966086956521739 0.1666666666666667 0  1.982608695652174 0.1666666666666667 0  1.999130434782608 0.1666666666666667 0  2.015652173913043 0.1666666666666667 0  2.032173913043478 0.1666666666666667 0  2.048695652173913 0.1666666666666667 0  2.065217391304348 0.1666666666666667 0  2.081739130434782 0.1666666666666667 0  2.098260869565217 0.1666666666666667 0  2.114782608695652 0.1666666666666667 0  2.131304347826087 0.1666666666666667 0  1.9 0.1833333333333333 0  1.883478260869565 0.1833333333333333 0  1.916521739130435 0.1833333333333333 0  1.933043478260869 0.1833333333333333 0  1.949565217391304 0.1833333333333333 0  1.966086956521739 0.1833333333333333 0  1.982608695652174 0.1833333333333333 0  1.999130434782608 0.1833333333333333 0  2.015652173913043 0.1833333333333333 0  2.032173913043478 0.1833333333333333 0  2.048695652173913 0.1833333333333333 0  2.065217391304348 0.1833333333333333 0  2.081739130434782 0.1833333333333333 0  2.098260869565217 0.1833333333333333 0  2.114782608695652 0.1833333333333333 0  2.131304347826087 0.1833333333333333 0  2.147826086956522 0.1833333333333333 0  1.9 0.2 0  1.883478260869565 0.2 0  1.916521739130435 0.2 0  1.933043478260869 0.2 0  1.949565217391304 0.2 0  1.966086956521739 0.2 0  1.982608695652174 0.2 0  1.999130434782608 0.2 0  2.015652173913043 0.2 0  2.032173913043478 0.2 0  2.048695652173913 0.2 0  2.065217391304348 0.2 0  2.081739130434782 0.2 0  2.098260869565217 0.2 0  2.114782608695652 0.2 0  2.131304347826087 0.2 0  2.147826086956522 0.2 0  2.164347826086956 0.2 0  1.9 0.2166666666666667 0  1.883478260869565 0.2166666666666667 0  1.916521739130435 0.2166666666666667 0  1.933043478260869 0.2166666666666667 0  1.949565217391304 0.2166666666666667 0  1.966086956521739 0.2166666666666667 0  1.982608695652174 0.2166666666666667 0  1.999130434782608 0.2166666666666667 0  2.015652173913043 0.2166666666666667 0  2.032173913043478 0.2166666666666667 0  2.048695652173913 0.2166666666666667 0  2.065217391304348 0.2166666666666667 0  2.081739130434782 0.2166666666666667 0  2.098260869565217 0.2166666666666667 0  2.114782608695652 0.2166666666666667 0  2.131304347826087 0.2166666666666667 0  2.147826086956522 0.2166666666666667 0  2.164347826086956 0.2166666666666667 0  2.180869565217391 0.2166666666666667 0  1.9 0.2333333333333333 0  1.883478260869565 0.2333333333333333 0  1.916521739130435 0.2333333333333333 0  1.933043478260869 0.2333333333333333 0  1.949565217391304 0.2333333333333333 0  1.966086956521739 0.2333333333333333 0  1.982608695652174 0.2333333333333333 0  1.999130434782608 0.2333333333333333 0  2.015652173913043 0.2333333333333333 0  2.032173913043478 0.2333333333333333 0  2.048695652173913 0.2333333333333333 0  2.065217391304348 0.2333333333333333 0  2.081739130434782 0.2333333333333333 0  2.098260869565217 0.2333333333333333 0  2.114782608695652 0.2333333333333333 0  2.131304347826087 0.2333333333333333 0  2.147826086956522 0.2333333333333333 0  2.164347826086956 0.2333333333333333 0  2.180869565217391 0.2333333333333333 0  2.197391304347826 0.2333333333333333 0  1.9 0.25 0  1.916521739130435 0.25 0  1.933043478260869 0.25 0  1.949565217391304 0.25 0  1.966086956521739 0.25 0  1.982608695652174 0.25 0  1.999130434782608 0.25 0  2.015652173913043 0.25 0  2.032173913043478 0.25 0  2.048695652173913 0.25 0  2.065217391304348 0.25 0  2.081739130434782 0.25 0  2.098260869565217 0.25 0  2.114782608695652 0.25 0  2.131304347826087 0.25 0  2.147826086956522 0.25 0  2.164347826086956 0.25 0  2.180869565217391 0.25 0  2.197391304347826 0.25 0  2.213913043478261 0.25 0  1.916521739130435 0.2666666666666667 0  1.9 0.2666666666666667 0  1.933043478260869 0.2666666666666667 0  1.949565217391304 0.2666666666666667 0  1.966086956521739 0.2666666666666667 0  1.982608695652174 0.2666666666666667 0  1.999130434782608 0.2666666666666667 0  2.015652173913043 0.2666666666666667 0  2.032173913043478 0.2666666666666667 0  2.048695652173913 0.2666666666666667 0  2.065217391304348 0.2666666666666667 0  2.081739130434782 0.2666666666666667 0  2.098260869565217 0.2666666666666667 0  2.114782608695652 0.2666666666666667 0  2.131304347826087 0.2666666666666667 0  2.147826086956522 0.2666666666666667 0  2.164347826086956 0.2666666666666667 0  2.180869565217391 0.2666666666666667 0  2.197391304347826 0.2666666666666667 0  2.213913043478261 0.2666666666666667 0  2.230434782608695 0.25 0  2.230434782608695 0.2666666666666667 0  2.24695652173913 0.2666666666666667 0  1.916521739130435 0.2833333333333333 0  1.9 0.2833333333333333 0  1.933043478260869 0.2833333333333333 0  1.949565217391304 0.2833333333333333 0  1.966086956521739 0.2833333333333333 0  1.982608695652174 0.2833333333333333 0  1.999130434782608 0.2833333333333333 0  2.015652173913043 0.2833333333333333 0  2.032173913043478 0.2833333333333333 0  2.048695652173913 0.2833333333333333 0  2.065217391304348 0.2833333333333333 0  2.081739130434782 0.2833333333333333 0  2.098260869565217 0.2833333333333333 0  2.114782608695652 0.2833333333333333 0  2.131304347826087 0.2833333333333333 0  2.147826086956522 0.2833333333333333 0  2.164347826086956 0.2833333333333333 0  2.180869565217391 0.2833333333333333 0  2.197391304347826 0.2833333333333333 0  2.213913043478261 0.2833333333333333 0  2.230434782608695 0.2833333333333333 0  2.24695652173913 0.2833333333333333 0  2.263478260869565 0.2833333333333333 0  1.916521739130435 0.3 0  1.9 0.3 0  1.933043478260869 0.3 0  1.949565217391304 0.3 0  1.966086956521739 0.3 0  1.982608695652174 0.3 0  1.999130434782608 0.3 0  2.015652173913043 0.3 0  2.032173913043478 0.3 0  2.048695652173913 0.3 0  2.065217391304348 0.3 0  2.081739130434782 0.3 0  2.098260869565217 0.3 0  2.114782608695652 0.3 0  2.131304347826087 0.3 0  2.147826086956522 0.3 0  2.164347826086956 0.3 0  2.180869565217391 0.3 0  2.197391304347826 0.3 0  2.213913043478261 0.3 0  2.230434782608695 0.3 0  2.24695652173913 0.3 0  2.263478260869565 0.3 0  2.28 0.3 0  1.916521739130435 0.3166666666666667 0  1.9 0.3166666666666667 0  1.933043478260869 0.3166666666666667 0  1.949565217391304 0.3166666666666667 0  1.966086956521739 0.3166666666666667 0  1.982608695652174 0.3166666666666667 0  1.999130434782608 0.3166666666666667 0  2.015652173913043 0.3166666666666667 0  2.032173913043478 0.3166666666666667 0  2.048695652173913 0.3166666666666667 0  2.065217391304348 0.3166666666666667 0  2.081739130434782 0.3166666666666667 0  2.098260869565217 0.3166666666666667 0  2.114782608695652 0.3166666666666667 0  2.131304347826087 0.3166666666666667 0  2.147826086956522 0.3166666666666667 0  2.164347826086956 0.3166666666666667 0  2.180869565217391 0.3166666666666667 0  2.197391304347826 0.3166666666666667 0  2.213913043478261 0.3166666666666667 0  2.230434782608695 0.3166666666666667 0  2.24695652173913 0.3166666666666667 0  2.263478260869565 0.3166666666666667 0  2.28 0.3166666666666667 0  2.296521739130434 0.3166666666666667 0  1.916521739130435 0.3333333333333333 0  1.9 0.3333333333333333 0  1.933043478260869 0.3333333333333333 0  1.949565217391304 0.3333333333333333 0  1.966086956521739 0.3333333333333333 0  1.982608695652174 0.3333333333333333 0  1.999130434782608 0.3333333333333333 0  2.015652173913043 0.3333333333333333 0  2.032173913043478 0.3333333333333333 0  2.048695652173913 0.3333333333333333 0  2.06521739
[...]
<CellData  Scalars="rho_bar"> 
<DataArray  type="Float64"  Name="rho_bar"  format="ascii">9.9999999887950197e-01   9.9942698110658179e-01   9.9999999878674006e-01   3.8346764646744280e-01   1.9772330914121414e-06   8.4835207937066293e-01   2.7754537799368784e-01   8.2436485796117531e-01   4.6259292692714852e-17   0.0000000000000000e+00   1.3339850242951221e-09   9.2518585385429722e-18   2.0333472095304655e-01   1.2814185360957946e-09   2.8630115316863836e-01   0.0000000000000000e+00   0.0000000000000000e+00   0.0000000000000000e+00   0.0000000000000000e+00   2.7755575615628914e-17   0.0000000000000000e+00   3.3613712046761295e-06   1.3970306393199887e-15   3.9496418586604329e-03   0.0000000000000000e+00   0.0000000000000000e+00   0.0000000000000000e+00   0.0000000000000000e+00   0.0000000000000000e+00   0.0000000000000000e+00   0.0000000000000000e+00   0.0000000000000000e+00   1.1154780867500544e-04   1.3853899509067938e-11   4.1122003269636370e-01   0.0000000000000000e+00   0.0000000000000000e+00   0.0000000000000000e+00   0.0000000000000000e+00   0.0000000000000000e+00   0.0000000000000000e+00   0.0000000000000000e+00   0.0000000000000000e+00   8.4394565410169266e-11   2.4054832200211728e-16   5.6550526588566408e-01   5.8965725182621997e-03   9.9921324217616436e-01   0.0000000000000000e+00   0.0000000000000000e+00   0.0000000000000000e+00   0.0000000000000000e+00   0.0000000000000000e+00   0.0000000000000000e+00   0.0000000000000000e+00   0.0000000000000000e+00   1.2971105671037247e-14   0.0000000000000000e+00   8.9071128801935490e-02   9.1507580446958930e-06   9.9952406669742455e-01   9.4085357949320325e-01   9.8573502794742562e-01   9.9996757724752428e-01   6.5527126507829625e-04   4.6919162512448565e-01   2.3129646346357420e-16   7.8033860947031749e-09   0.0000000000000000e+00   0.0000000000000000e+00   0.0000000000000000e+00   0.0000000000000000e+00   0.0000000000000000e+00   0.0000000000000000e+00   0.0000000000000000e+00   0.0000000000000000e+00   0.0000000000000000e+00   0.0000000000000000e+00   0.0000000000000000e+00   0.0000000000000000e+00   0.0000000000000000e+00   0.0000000000000000e+00   0.0000000000000000e+00   1.3815061598925388e-04   3.3636620340911827e-10   9.6489719521913042e-01   3.6655474563388635e-01   9.9997065678005925e-01   9.9992159320731455e-01   6.4552675677470051e-01   9.9948415047845718e-01   2.0185050753999487e-07   9.6971599359555918e-02   0.0000000000000000e+00   2.7913458581589147e-11   0.0000000000000000e+00   0.0000000000000000e+00   0.0000000000000000e+00   0.0000000000000000e+00   0.0000000000000000e+00   0.0000000000000000e+00   0.0000000000000000e+00   0.0000000000000000e+00   0.0000000000000000e+00   0.0000000000000000e+00   0.0000000000000000e+00   0.0000000000000000e+00   0.0000000000000000e+00   0.0000000000000000e+00   0.0000000000000000e+00   5.0805038879590348e-10   9.2518585385429707e-18   2.7757947775182862e-01   9.5413796979693100e-06   9.9968616500609275e-01   7.1650846865182583e-01   9.9956337785243166e-01   9.9986811976751133e-01   3.8272390432820041e-01   9.8978060768977860e-01   7.3975104467975212e-09   8.4402852711291370e-03   0.0000000000000000e+00   1.6458223672799477e-11   0.0000000000000000e+00   0.0000000000000000e+00   0.0000000000000000e+00   0.0000000000000000e+00   0.0000000000000000e+00   0.0000000000000000e+00   0.0000000000000000e+00   0.0000000000000000e+00   0.0000000000000000e+00   0.0000000000000000e+00   0.0000000000000000e+00   0.0000000000000000e+00   0.0000000000000000e+00   0.0000000000000000e+00   0.0000000000000000e+00   0.0000000000000000e+00   0.0000000000000000e+00   1.9402002343626987e-07   6.9388939039072274e-16   2.9965944827824892e-01   1.8426434499035915e-05   9.9575101987528203e-01   5.7462879283682444e-01   9.9268857955727585e-01   9.9478973867533282e-01   1.8984738327378928e-01   9.4047316486233667e-01   4.5473964177533688e-08   8.5690187361601982e-03   1.8503717077085938e-17   1.0096703473294608e-09   0.0000000000000000e+00   0.0000000000000000e+00   0.0000000000000000e+00   0.0000000000000000e+00   0.0000000000000000e+00   0.0000000000000000e+00   0.0000000000000000e+00   0.0000000000000000e+00   0.0000000000000000e+00   0.0000000000000000e+00   0.0000000000000000e+00   0.0000000000000000e+00   0.0000000000000000e+00   0.0000000000000000e+00   0.0000000000000000e+00   0.0000000000000000e+00   0.0000000000000000e+00   0.0000000000000000e+00   0.0000000000000000e+00   5.4757110419985837e-09   2.7755575615628910e-17   2.0399782286598011e-02   8.9051223950420435e-08   7.3305060531425337e-01   6.1411570283715203e-02   9.5945244109445260e-01   7.5243416787583695e-01   2.7270337477707046e-01   9.0463757323190486e-01   9.3612250062213836e-06   7.0637647936306544e-02   2.8370824208442024e-13   1.1011332867831105e-06   0.0000000000000000e+00   2.9217369264718699e-14   0.0000000000000000e+00   0.0000000000000000e+00   0.0000000000000000e+00   0.0000000000000000e+00   0.0000000000000000e+00   0.0000000000000000e+00   0.0000000000000000e+00   0.0000000000000000e+00   0.0000000000000000e+00   0.0000000000000000e+00   0.0000000000000000e+00   0.0000000000000000e+00   0.0000000000000000e+00   0.0000000000000000e+00   0.0000000000000000e+00   0.0000000000000000e+00   0.0000000000000000e+00   0.0000000000000000e+00   0.0000000000000000e+00   6.3687943807622105e-13   0.0000000000000000e+00   1.8263501405861110e-05   8.2981862122484992e-12   1.8372598754737798e-01   1.1946051955855075e-04   9.0363970269867921e-01   3.7836974032390713e-01   5.7508944930129746e-01   9.2288544726634025e-01   5.3620013883036713e-03   4.4770806785932721e-01   7.4459995946796198e-09   1.5579479830664746e-03   9.2518585385429691e-18   8.9658710085889948e-10   0.0000000000000000e+00   0.0000000000000000e+00   0.0000000000000000e+00   0.0000000000000000e+00   0.0000000000000000e+00   0.0000000000000000e+00   0.0000000000000000e+00   0.0000000000000000e+00   0.0000000000000000e+00   0.0000000000000000e+00   0.0000000000000000e+00   0.0000000000000000e+00   0.0000000000000000e+00   0.0000000000000000e+00   0.0000000000000000e+00   0.0000000000000000e+00   0.0000000000000000e+00   0.0000000000000000e+00   0.0000000000000000e+00   0.0000000000000000e+00   0.0000000000000000e+00   1.8503717077085938e-17   0.0000000000000000e+00   1.3080362552357151e-08   4.1633363423443365e-16   1.3259193828601211e-02   2.5301377884479059e-07   8.0739769421094298e-01   9.4685320278199855e-02   9.3703211273222187e-01   9.2236212429121678e-01   3.1777446104940316e-01   9.3696139121384769e-01   1.8550157289650329e-05   1.7364165134037679e-01   1.1924720470328035e-13   1.6458772067925081e-06   0.0000000000000000e+00   3.1826393372587822e-15   0.0000000000000000e+00   0.0000000000000000e+00   0.0000000000000000e+00   0.0000000000000000e+00   0.0000000000000000e+00   0.0000000000000000e+00   0.0000000000000000e+00   0.0000000000000000e+00   0.0000000000000000e+00   0.0000000000000000e+00   0.0000000000000000e+00   0.0000000000000000e+00   0.0000000000000000e+00   0.0000000000000000e+00   0.0000000000000000e+00   0.0000000000000000e+00   0.0000000000000000e+00   0.0000000000000000e+00   0.0000000000000000e+00   0.0000000000000000e+00   0.0000000000000000e+00   0.0000000000000000e+00   2.3298881342744455e-11   0.0000000000000000e+00   7.6560902034659517e-04   1.0617738540238024e-09   6.0313688989245862e-01   1.1619786787566123e-02   9.9425227928820947e-01   8.3439052995936680e-01   7.0492830308302801e-01   9.9507944203398069e-01   3.0513836349168135e-03   4.8521487721973533e-01   9.0563621416942881e-11   2.2449149874553820e-04   0.0000000000000000e+00   1.7110109625425214e-12   0.0000000000000000e+00   0.0000000000000000e+00   0.0000000000000000e+00   0.0000000000000000e+00   0.0000000000000000e+00   0.0000000000000000e+00   0.0000000000000000e+00   0.0000000000000000e+00   0.0000000000000000e+00   0.0000000000000000e+00   0.0000000000000000e+00   0.0000000000000000e+00   0.0000000000000000e+00   0.0000000000000000e+00   0.0000000000000000e+00   0.0000000000000000e+00   0.0000000000000000e+00   0.0000000000000000e+00   0.0000000000000000e+00   0.0000000000000000e+00   0.0000000000000000e+00   0.0000000000000000e+00   0.0000000000000000e+00   7.6263069933209695e-14   0.0000000000000000e+00   2.6093416720847827e-05   4.5078570506025999e-12   3.5284726096412344e-01   4.5671837504890339e-04   9.9369743315816284e-01   6.3210815687202515e-01   9.3410358095226986e-01   9.9472389041164733e-01   6.5565713030739159e-02   8.2970643891626361e-01   1.9548233938978158e-08   6.3573882615335538e-03   0.0000000000000000e+00   4.7770267371423835e-10   0.0000000000000000e+00   0.0000000000000000e+00   0.0000000000000000e+00   0.0000000000000000e+00   0.0000000000000000e+00   0.0000000000000000e+00   0.0000000000000000e+00   0.0000000000000000e+00   0.0000000000000000e+00   0.0000000000000000e+00   0.0000000000000000e+00   0.0000000000000000e+00   0.0000000000000000e+00   0.0000000000000000e+00   0.0000000000000000e+00   0.0000000000000000e+00   0.0000000000000000e+00   0.0000000000000000e+00   0.0000000000000000e+00   0.0000000000000000e+00   0.0000000000000000e+00   0.0000000000000000e+00   0.0000000000000000e+00   0.0000000000000000e+00   0.0000000000000000e+00   0.0000000000000000e+00   0.0000000000000000e+00   1.3877787807814454e-16   0.0000000000000000e+00   1.7761037751640171e-07   5.5881225572799548e-15   9.6432351551664935e-02   2.6885983328099133e-06   9.2944291308633331e-01   2.4330369388735928e-01   9.7740795792661983e-01   9.4855900503800472e-01   3.1619896207963211e-01   9.5224707986901080e-01   3.8884903089952952e-06   8.8250432952076352e-02   1.0019762797242038e-14   2.1557231080771006e-07   0.0000000000000000e+00   4.1633363423443365e-16   0.0000000000000000e+00   0.0000000000000000e+00   0.0000000000000000e+00   0.0000000000000000e+00   0.0000000000000000e+00   0.0000000000000000e+00   0.0000000000000000e+00   0.0000000000000000e+00   0.0000000000000000e+00   0.0000000000000000e+00   0.0000000000000000e+00   0.0000000000000000e+00   0.0000000000000000e+00   0.0000000000000000e+00   0.0000000000000000e+00   0.0000000000000000e+00   0.0000000000000000e+00   0.0000000000000000e+00   0.0000000000000000e+00   0.0000000000000000e+00   0.0000000000000000e+00   0.0000000000000000e+00   0.0000000000000000e+00   0.0000000000000000e+00   0.0000000000000000e+00   0.0000000000000000e+00   0.0000000000000000e+00   0.0000000000000000e+00   0.0000000000000000e+00   1.1577216037691092e-10   0.0000000000000000e+00   8.6743713828041358e-04   1.6096547520808948e-09   4.9494612130723942e-01   5.1810969366227937e-03   9.8290598231724402e-01   6.7573750178239855e-01   6.1107216310654489e-01   9.8338859216612795e-01   1.5640561440917744e-03   4.1890907359450358e-01   1.8016466096781869e-10   2.6482847788090547e-04   0.0000000000000000e+00   1.5704696802269301e-11   0.0000000000000000e+00   0.0000000000000000e+00   0.0000000000000000e+00   0.0000000000000000e+00   0.0000000000000000e+00   0.0000000000000000e+00   0.0000000000000000e+00   0.0000000000000000e+00   0.0000000000000000e+00   0.0000000000000000e+00   0.0000000000000000e+00   0.0000000000000000e+00   0.0000000000000000e+00   0.0000000000000000e+00   0.0000000000000000e+00   0.0000000000000000e+00   0.0000000000000000e+00   0.0000000000000000e+00   0.0000000000000000e+00   0.0000000000000000e+00   0.0000000000000000e+00   0.0000000000000000e+00   0.0000000000000000e+00   0.0000000000000000e+00   0.0000000000000000e+00   0.0000000000000000e+00   0.0000000000000000e+00   0.0000000000000000e+00   0.0000000000000000e+00   0.0000000000000000e+00   0.0000000000000000e+00   1.1574075031717257e-14   0.0000000000000000e+00   1.8052175870068388e-06   2.3225865675158275e-13   1.8357424727895741e-01   2.8519646203937578e-05   9.8469184370674978e-01   5.1915465042011022e-01   9.4565398615389296e-01   9.9467091770817939e-01   2.5692214323689133e-01   9.4134914599847730e-01   1.7595853280538696e-06   1.4179262737171927e-01   1.2397490441647583e-15   1.3071349614738695e-07   1.8503717077085944e-17   0.0000000000000000e+00   0.0000000000000000e+00   0.0000000000000000e+00   0.0000000000000000e+00   0.0000000000000000e+00   0.0000000000000000e+00   0.0000000000000000e+00   0.0000000000000000e+00   0.0000000000000000e+00   0.0000000000000000e+00   0.0000000000000000e+00   0.0000000000000000e+00   0.0000000000000000e+00   0.0000000000000000e+00   0.0000000000000000e+00   0.0000000000000000e+00   0.0000000000000000e+00   0.0000000000000000e+00   0.0000000000000000e+00   0.0000000000000000e+00   0.0000000000000000e+00   0.0000000000000000e+00   0.0000000000000000e+00   0.0000000000000000e+00   0.0000000000000000e+00   0.0000000000000000e+00   0.0000000000000000e+00   0.0000000000000000e+00   0.0000000000000000e+00   0.0000000000000000e+00   0.0000000000000000e+00   0.0000000000000000e+00   0.0000000000000000e+00   0.0000000000000000e+00   6.9265284711554155e-09   8.3266726846886728e-17   6.0825842623731266e-02   4.2206620844605536e-07   9.9125424837332821e-01   4.4965548046241638e-01   9.9936923201081329e-01   9.9885303261814362e-01   6.9806418785137758e-01   9.9945698884357770e-01   2.8635158976864078e-04   3.9792936940957824e-01   2.9402406435489554e-14   3.4108793045180739e-06   9.2518585385429691e-18   0.0000000000000000e+00   0.0000000000000000e+00   0.0000000000000000e+00   0.0000000000000000e+00   0.0000000000000000e+00   0.0000000000000000e+00   0.0000000000000000e+00   0.0000000000000000e+00   0.0000000000000000e+00   0.0000000000000000e+00   0.0000000000000000e+00   0.0000000000000000e+00   0.0000000000000000e+00   0.0000000000000000e+00   0.0000000000000000e+00   0.0000000000000000e+00   0.0000000000000000e+00   0.0000000000000000e+00   0.0000000000000000e+00   0.0000000000000000e+00   0.0000000000000000e+00   0.0000000000000000e+00   0.0000000000000000e+00   0.0000000000000000e+00   0.0000000000000000e+00   0.0000000000000000e+00   0.0000000000000000e+00   0.0000000000000000e+00   0.0000000000000000e+00   0.0000000000000000e+00   0.0000000000000000e+00   0.0000000000000000e+00   0.0000000000000000e+00   0.0000000000000000e+00   0.0000000000000000e+00   0.0000000000000000e+00   2.0596516159265832e-10   0.0000000000000000e+00   4.9320749441695275e-02   5.6962180370693595e-08   9.9763064773861776e-01   5.2924039749288188e-01   9.9997250354903111e-01   9.9983274933640109e-01   8.7699655285161260e-01   9.9991695720426887e-01   9.6168420396752774e-05   3.4862227159263731e-01   1.2027416100105859e-16   3.3521133739148703e-09   0.0000000000000000e+00   0.0000000000000000e+00   0.0000000000000000e+00   0.0000000000000000e+00   0.0000000000000000e+00   0.0000000000000000e+00   0.0000000000000000e+00   0.0000000000000000e+00   0.0000000000000000e+00   0.0000000000000000e+00   0.0000000000000000e+00   0.0000000000000000e+00   0.0000000000000000e+00   0.0000000000000000e+00   0.0000000000000000e+00   0.0000000000000000e+00   0.0000000000000000e+00   0.0000000000000000e+00   0.0000000000000000e+00   0.0000000000000000e+00   0.0000000000000000e+00   0.0000000000000000e+00   0.0000000000000000e+00   0.0000000000000000e+00   0.0000000000000000e+00   0.0000000000000000e+00   0.0000000000000000e+00   0.0000000000000000e+00   0.0000000000000000e+00   0.0000000000000000e+00   0.0000000000000000e+00   0.0000000000000000e+00   0.0000000000000000e+00   0.0000000000000000e+00   0.0000000000000000e+00   0.0000000000000000e+00   0.0000000000000000e+00   0.0000000000000000e+00   0.0000000000000000e+00   1.2450077080394803e-10   0.0000000000000000e+00   1.4584538257485222e-01   2.3983675098704365e-07   9.9966806573090372e-01   6.4834181925180434e-01   9.9996343589820469e-01   9.9996768227126076e-01   4.0342776759134857e-01   9.6792110762561168e-01   1.0017362402544210e-09   1.6674871604977859e-04   0.0000000000000000e+00   0.0000000000000000e+00   0.0000000000000000e+00   0.0000000000000000e+00   0.0000000000000000e+00   0.0000000000000000e+00   0.0000000000000000e+00   0.0000000000000000e+00   0.0000000000000000e+00   0.0000000000000000e+00   0.0000000000000000e+00   0.0000000000000000e+00   0.0000000000000000e+00   0.0000000000000000e+00   0.0000000000000000e+00   0.0000000000000000e+00   0.0000000000000000e+00   0.0000000000000000e+00   0.0000000000000000e+00   0.0000000000000000e+00   0.0000000000000000e+00   0.0000000000000000e+00   0.0000000000000000e+00   0.0000000000000000e+00   0.0000000000000000e+00   0.0000000000000000e+00   0.0000000000000000e+00   0.0000000000000000e+00   0.0000000000000000e+00   0.0000000000000000e+00   0.0000000000000000e+00   0.0000000000000000e+00   0.0000000000000000e+00   0.0000000000000000e+00   0.0000000000000000e+00   0.0000000000000000e+00   0.0000000000000000e+00   0.0000000000000000e+00   0.0000000000000000e+00   0.0000000000000000e+00   0.0000000000000000e+00   0.0000000000000000e+00   0.0000000000000000e+00   5.0523952706734353e-09   2.1279274638648830e-16   3.8119649946079504e-01   1.4700601558823023e-04   9.9994919364981338e-01   9.4506257377373237e-01   9.2415809410574157e-01   9.9906807966790034e-01   7.0185165067053008e-06   5.8302684123162841e-02   0.0000000000000000e+00   1.0621133602247331e-14   0.0000000000000000e+00   0.0000000000000000e+00   0.0000000000000000e+00   0.0000000000000000e+00   0.0000000000000000e+00   0.0000000000000000e+00   0.0000000000000000e+00   0.0000000000000000e+00   0.0000000000000000e+00   0.0000000000000000e+00   0.0000000000000000e+00   0.0000000000000000e+00   0.0000000000000000e+00   0.0000000000000000e+00   0.0000000000000000e+00   0.0000000000000000e+00   0.0000000000000000e+00   0.0000000000000000e+00   0.0000000000000000e+00   0.0000000000000000e+00   0.0000000000000000e+00   0.0000000000000000e+00   0.0000000000000000e+00   0.0000000000000000e+00   0.0000000000000000e+00   0.0000000000000000e+00   0.0000000000000000e+00   0.0000000000000000e+00   0.0000000000000000e+00   0.0000000000000000e+00   0.0000000000000000e+00   0.0000000000000000e+00   0.0000000000000000e+00   0.0000000000000000e+00   0.0000000000000000e+00   0.0000000000000000e+00   0.0000000000000000e+00   0.0000000000000000e+00   0.0000000000000000e+00   0.0000000000000000e+00   0.0000000000000000e+00   0.0000000000000000e+00   0.0000000000000000e+00   1.5728159515523047e-16   0.0000000000000000e+00   1.1733650324284119e-04   2.2227876206315492e-09   9.6260546029961447e-01   4.1012649572836840e-01   9.9883822610135764e-01   9.9997446673177548e-01   5.5968206717653575e-03   5.8443104759187936e-01   9.2518585385429699e-16   9.8554497895975146e-10   0.0000000000000000e+00   0.0000000000000000e+00   0.0000000000000000e+00   0.0000000000000000e+00   0.0000000000000000e+00   0.0000000000000000e+00   0.0000000000000000e+00   0.0000000000000000e+00   0.0000000000000000e+00   0.0000000000000000e+00   0.0000000000000000e+00   0.0000000000000000e+00   0.0000000000000000e+00   0.0000000000000000e+00   0.0000000000000000e+00   0.0000000000000000e+00   0.0000000000000000e+00   0.0000000000000000e+00   0.0000000000000000e+00   0.0000000000000000e+00   0.0000000000000000e+00   0.0000000000000000e+00   0.0000000000000000e+00   0.0000000000000000e+00   0.0000000000000000e+00   0.0000000000000000e+00   0.0000000000000000e+00   0.0000000000000000e+00   0.0000000000000000e+00   0.0000000000000000e+00   0.0000000000000000e+00   0.0000000000000000e+00   0.0000000000000000e+00   0.0000000000000000e+00   0.0000000000000000e+00   0.0000000000000000e+00   0.0000000000000000e+00   0.0000000000000000e+00   0.0000000000000000e+00   0.0000000000000000e+00   0.0000000000000000e+00   0.0000000000000000e+00   0.0000000000000000e+00   0.0000000000000000e+00   0.0000000000000000e+00   9.2518585385429722e-18   0.0000000000000000e+00   7.7514579865841233e-06   6.5281018313267922e-08   7.0088734738551206e-01   4.2042244415486890e-01   9.9999761761929429e-01   9.9999980100976749e-01   6.6546684959837599e-01   9.9999639909893911e-01   7.0081420296593438e-09   2.6405325585224992e-01   0.00000000