<?xml version="1.0"?>
<VTKFile type="UnstructuredGrid"  version="0.1"  >
<UnstructuredGrid>
<Piece  NumberOfPoints="611" NumberOfCells="1123">
<Points>
<DataArray  type="Float64"  NumberOfComponents="3"  format="ascii">1.883478260869565 0.01666666666666667 0  1.9 0.01666666666666667 0  1.9 0.03333333333333333 0  1.883478260869565 0.03333333333333333 0  1.916521739130435 0.03333333333333333 0  1.9 0.05 0  1.883478260869565 0.05 0  1.916521739130435 0.05 0  1.933043478260869 0.05 0  1.9 0.06666666666666667 0  1.883478260869565 0.06666666666666667 0  1.916521739130435 0.06666666666666667 0  1.933043478260869 0.06666666666666667 0  1.949565217391304 0.06666666666666667 0  1.9 0.08333333333333333 0  1.883478260869565 0.08333333333333333 0  1.916521739130435 0.08333333333333333 0  1.933043478260869 0.08333333333333333 0  1.949565217391304 0.08333333333333333 0  1.966086956521739 0.08333333333333333 0  1.9 0.1 0  1.883478260869565 0.1 0  1.916521739130435 0.1 0  1.933043478260869 0.1 0  1.949565217391304 0.1 0  1.966086956521739 0.1 0  1.982608695652174 0.1 0  1.9 0.1166666666666667 0  1.883478260869565 0.1166666666666667 0  1.916521739130435 0.1166666666666667 0  1.933043478260869 0.1166666666666667 0  1.949565217391304 0.1166666666666667 0  1.966086956521739 0.1166666666666667 0  1.982608695652174 0.1166666666666667 0  1.999130434782608 0.1166666666666667 0  1.9 0.1333333333333333 0  1.883478260869565 0.1333333333333333 0  1.916521739130435 0.1333333333333333 0  1.933043478260869 0.1333333333333333 0  1.949565217391304 0.1333333333333333 0  1.966086956521739 0.1333333333333333 0  1.982608695652174 0.1333333333333333 0  1.999130434782608 0.1333333333333333 0  2.015652173913043 0.1166666666666667 0  2.015652173913043 0.1333333333333333 0  2.032173913043478 0.1166666666666667 0  2.032173913043478 0.1333333333333333 0  2.048695652173913 0.1166666666666667 0  2.048695652173913 0.1333333333333333 0  2.065217391304348 0.1166666666666667 0  2.065217391304348 0.1333333333333333 0  2.081739130434782 0.1166666666666667 0  2.081739130434782 0.1333333333333333 0  2.098260869565217 0.1333333333333333 0  1.9 0.15 0  1.883478260869565 0.15 0  1.916521739130435 0.15 0  1.933043478260869 0.15 0  1.949565217391304 0.15 0  1.966086956521739 0.15 0  1.982608695652174 0.15 0  1.999130434782608 0.15 0  2.015652173913043 0.15 0  2.032173913043478 0.15 0  2.048695652173913 0.15 0  2.065217391304348 0.15 0  2.081739130434782 0.15 0  2.098260869565217 0.15 0  2.114782608695652 0.15 0  1.9 0.1666666666666667 0  1.883478260869565 0.1666666666666667 0  1.916521739130435 0.1666666666666667 0  1.933043478260869 0.1666666666666667 0  1.949565217391304 0.1666666666666667 0  1.966086956521739 0.1666666666666667 0  1.982608695652174 0.1666666666666667 0  1.999130434782608 0.1666666666666667 0  2.015652173913043 0.1666666666666667 0  2.032173913043478 0.1666666666666667 0  2.048695652173913 0.1666666666666667 0  2.065217391304348 0.1666666666666667 0  2.081739130434782 0.1666666666666667 0  2.098260869565217 0.1666666666666667 0  2.114782608695652 0.1666666666666667 0  2.131304347826087 0.1666666666666667 0  1.9 0.1833333333333333 0  1.883478260869565 0.1833333333333333 0  1.916521739130435 0.1833333333333333 0  1.933043478260869 0.1833333333333333 0  1.949565217391304 0.1833333333333333 0  1.966086956521739 0.1833333333333333 0  1.982608695652174 0.1833333333333333 0  1.999130434782608 0.1833333333333333 0  2.015652173913043 0.1833333333333333 0  2.032173913043478 0.1833333333333333 0  2.048695652173913 0.1833333333333333 0  2.065217391304348 0.1833333333333333 0  2.081739130434782 0.1833333333333333 0  2.098260869565217 0.1833333333333333 0  2.114782608695652 0.1833333333333333 0  2.131304347826087 0.1833333333333333 0  2.147826086956522 0.1833333333333333 0  1.9 0.2 0  1.883478260869565 0.2 0  1.916521739130435 0.2 0  1.933043478260869 0.2 0  1.949565217391304 0.2 0  1.966086956521739 0.2 0  1.982608695652174 0.2 0  1.999130434782608 0.2 0  2.015652173913043 0.2 0  2.032173913043478 0.2 0  2.048695652173913 0.2 0  2.065217391304348 0.2 0  2.081739130434782 0.2 0  2.098260869565217 0.2 0  2.114782608695652 0.2 0  2.131304347826087 0.2 0  2.147826086956522 0.2 0  2.164347826086956 0.2 0  1.9 0.2166666666666667 0  1.883478260869565 0.2166666666666667 0  1.916521739130435 0.2166666666666667 0  1.933043478260869 0.2166666666666667 0  1.949565217391304 0.2166666666666667 0  1.966086956521739 0.2166666666666667 0  1.982608695652174 0.2166666666666667 0  1.999130434782608 0.2166666666666667 0  2.015652173913043 0.2166666666666667 0  2.032173913043478 0.2166666666666667 0  2.048695652173913 0.2166666666666667 0  2.065217391304348 0.2166666666666667 0  2.081739130434782 0.2166666666666667 0  2.098260869565217 0.2166666666666667 0  2.114782608695652 0.2166666666666667 0  2.131304347826087 0.2166666666666667 0  2.147826086956522 0.2166666666666667 0  2.164347826086956 0.2166666666666667 0  2.180869565217391 0.2166666666666667 0  1.9 0.2333333333333333 0  1.883478260869565 0.2333333333333333 0  1.916521739130435 0.2333333333333333 0  1.933043478260869 0.2333333333333333 0  1.949565217391304 0.2333333333333333 0  1.966086956521739 0.2333333333333333 0  1.982608695652174 0.2333333333333333 0  1.999130434782608 0.2333333333333333 0  2.015652173913043 0.2333333333333333 0  2.032173913043478 0.2333333333333333 0  2.048695652173913 0.2333333333333333 0  2.065217391304348 0.2333333333333333 0  2.081739130434782 0.2333333333333333 0  2.098260869565217 0.2333333333333333 0  2.114782608695652 0.2333333333333333 0  2.131304347826087 0.2333333333333333 0  2.147826086956522 0.2333333333333333 0  2.164347826086956 0.2333333333333333 0  2.180869565217391 0.2333333333333333 0  2.197391304347826 0.2333333333333333 0  1.9 0.25 0  1.916521739130435 0.25 0  1.933043478260869 0.25 0  1.949565217391304 0.25 0  1.966086956521739 0.25 0  1.982608695652174 0.25 0  1.999130434782608 0.25 0  2.015652173913043 0.25 0  2.032173913043478 0.25 0  2.048695652173913 0.25 0  2.065217391304348 0.25 0  2.081739130434782 0.25 0  2.098260869565217 0.25 0  2.114782608695652 0.25 0  2.131304347826087 0.25 0  2.147826086956522 0.25 0  2.164347826086956 0.25 0  2.180869565217391 0.25 0  2.197391304347826 0.25 0  2.213913043478261 0.25 0  1.916521739130435 0.2666666666666667 0  1.9 0.2666666666666667 0  1.933043478260869 0.2666666666666667 0  1.949565217391304 0.2666666666666667 0  1.966086956521739 0.2666666666666667 0  1.982608695652174 0.2666666666666667 0  1.999130434782608 0.2666666666666667 0  2.015652173913043 0.2666666666666667 0  2.032173913043478 0.2666666666666667 0  2.048695652173913 0.2666666666666667 0  2.065217391304348 0.2666666666666667 0  2.081739130434782 0.2666666666666667 0  2.098260869565217 0.2666666666666667 0  2.114782608695652 0.2666666666666667 0  2.131304347826087 0.2666666666666667 0  2.147826086956522 0.2666666666666667 0  2.164347826086956 0.2666666666666667 0  2.180869565217391 0.2666666666666667 0  2.197391304347826 0.2666666666666667 0  2.213913043478261 0.2666666666666667 0  2.230434782608695 0.25 0  2.230434782608695 0.2666666666666667 0  2.24695652173913 0.2666666666666667 0  1.916521739130435 0.2833333333333333 0  1.9 0.2833333333333333 0  1.933043478260869 0.2833333333333333 0  1.949565217391304 0.2833333333333333 0  1.966086956521739 0.2833333333333333 0  1.982608695652174 0.2833333333333333 0  1.999130434782608 0.2833333333333333 0  2.015652173913043 0.2833333333333333 0  2.032173913043478 0.2833333333333333 0  2.048695652173913 0.2833333333333333 0  2.065217391304348 0.2833333333333333 0  2.081739130434782 0.2833333333333333 0  2.098260869565217 0.2833333333333333 0  2.114782608695652 0.2833333333333333 0  2.131304347826087 0.2833333333333333 0  2.147826086956522 0.2833333333333333 0  2.164347826086956 0.2833333333333333 0  2.180869565217391 0.2833333333333333 0  2.197391304347826 0.2833333333333333 0  2.213913043478261 0.2833333333333333 0  2.230434782608695 0.2833333333333333 0  2.24695652173913 0.2833333333333333 0  2.263478260869565 0.2833333333333333 0  1.916521739130435 0.3 0  1.9 0.3 0  1.933043478260869 0.3 0  1.949565217391304 0.3 0  1.966086956521739 0.3 0  1.982608695652174 0.3 0  1.999130434782608 0.3 0  2.015652173913043 0.3 0  2.032173913043478 0.3 0  2.048695652173913 0.3 0  2.065217391304348 0.3 0  2.081739130434782 0.3 0  2.098260869565217 0.3 0  2.114782608695652 0.3 0  2.131304347826087 0.3 0  2.147826086956522 0.3 0  2.164347826086956 0.3 0  2.180869565217391 0.3 0  2.197391304347826 0.3 0  2.213913043478261 0.3 0  2.230434782608695 0.3 0  2.24695652173913 0.3 0  2.263478260869565 0.3 0  2.28 0.3 0  1.916521739130435 0.3166666666666667 0  1.9 0.3166666666666667 0  1.933043478260869 0.3166666666666667 0  1.949565217391304 0.3166666666666667 0  1.966086956521739 0.3166666666666667 0  1.982608695652174 0.3166666666666667 0  1.999130434782608 0.3166666666666667 0  2.015652173913043 0.3166666666666667 0  2.032173913043478 0.3166666666666667 0  2.048695652173913 0.3166666666666667 0  2.065217391304348 0.3166666666666667 0  2.081739130434782 0.3166666666666667 0  2.098260869565217 0.3166666666666667 0  2.114782608695652 0.3166666666666667 0  2.131304347826087 0.3166666666666667 0  2.147826086956522 0.3166666666666667 0  2.164347826086956 0.3166666666666667 0  2.180869565217391 0.3166666666666667 0  2.197391304347826 0.3166666666666667 0  2.213913043478261 0.3166666666666667 0  2.230434782608695 0.3166666666666667 0  2.24695652173913 0.3166666666666667 0  2.263478260869565 0.3166666666666667 0  2.28 0.3166666666666667 0  2.296521739130434 0.3166666666666667 0  1.916521739130435 0.3333333333333333 0  1.9 0.3333333333333333 0  1.933043478260869 0.3333333333333333 0  1.949565217391304 0.3333333333333333 0  1.966086956521739 0.3333333333333333 0  1.982608695652174 0.3333333333333333 0  1.999130434782608 0.3333333333333333 0  2.015652173913043 0.3333333333333333 0  2.032173913043478 0.3333333333333333 0  2.048695652173913 0.3333333333333333 0  2.06521739
[...]
<PointData  Vectors="Displacement"> 
<DataArray  type="Float64"  Name="Displacement"  NumberOfComponents="3" format="ascii">2.5710407444471978e-04 2.5766055390660752e-03 0.0000000000000000e+00  2.5806145819443673e-04 2.6042161514898896e-03 0.0000000000000000e+00  2.3206621667960089e-04 2.6039783689392575e-03 0.0000000000000000e+00  2.2920941526570474e-04 2.5760219573744626e-03 0.0000000000000000e+00  2.3392130034809882e-04 2.6296632388041353e-03 0.0000000000000000e+00  2.0779371988416422e-04 2.6033240913063953e-03 0.0000000000000000e+00  2.0215662882161297e-04 2.5749866007690513e-03 0.0000000000000000e+00  2.1060441856449733e-04 2.6293615132726767e-03 0.0000000000000000e+00  2.1232434886746192e-04 2.6539228348884687e-03 0.0000000000000000e+00  1.8623123257624586e-04 2.5996631085109250e-03 0.0000000000000000e+00  1.8283400008484532e-04 2.5713567648229579e-03 0.0000000000000000e+00  1.8898644268639214e-04 2.6271705688138765e-03 0.0000000000000000e+00  1.9058998739579191e-04 2.6538971283837048e-03 0.0000000000000000e+00  1.9210471739683442e-04 2.6778642223401769e-03 0.0000000000000000e+00  1.6611987087718815e-04 2.5970560284578025e-03 0.0000000000000000e+00  1.6297801747421455e-04 2.5682193913827336e-03 0.0000000000000000e+00  1.6878481973658010e-04 2.6250931446914890e-03 0.0000000000000000e+00  1.7081387142923573e-04 2.6524752620548805e-03 0.0000000000000000e+00  1.7204836005386392e-04 2.6789059931094385e-03 0.0000000000000000e+00  1.7245959080206493e-04 2.7014674355509117e-03 0.0000000000000000e+00  1.4661463918254588e-04 2.5947516903923034e-03 0.0000000000000000e+00  1.4361516639637317e-04 2.5657657885064930e-03 0.0000000000000000e+00  1.4944498067142749e-04 2.6231000171436955e-03 0.0000000000000000e+00  1.5197868711266683e-04 2.6510210139887498e-03 0.0000000000000000e+00  1.5385115841090851e-04 2.6782670497807600e-03 0.0000000000000000e+00  1.5414965842730353e-04 2.7032261384616770e-03 0.0000000000000000e+00  1.5394044206190331e-04 2.7227771098966942e-03 0.0000000000000000e+00  1.2744443297522983e-04 2.5926827927020774e-03 0.0000000000000000e+00  1.2461896793701337e-04 2.5638619630471956e-03 0.0000000000000000e+00  1.3036322479045409e-04 2.6210603728704538e-03 0.0000000000000000e+00  1.3330454161264687e-04 2.6493123578453224e-03 0.0000000000000000e+00  1.3611684304681542e-04 2.6778647970452968e-03 0.0000000000000000e+00  1.3739603820770341e-04 2.7063215352115919e-03 0.0000000000000000e+00  1.3688909529793814e-04 2.7239340553820986e-03 0.0000000000000000e+00  1.3689250751121313e-04 2.7414561245766864e-03 0.0000000000000000e+00  1.0838381737824709e-04 2.5908506507940996e-03 0.0000000000000000e+00  1.0580060856992875e-04 2.5624162196211013e-03 0.0000000000000000e+00  1.1122126077014326e-04 2.6190007045612381e-03 0.0000000000000000e+00  1.1426147576927242e-04 2.6472152308349181e-03 0.0000000000000000e+00  1.1751897217676183e-04 2.6761965638177946e-03 0.0000000000000000e+00  1.2172995536419859e-04 2.7088606732939779e-03 0.0000000000000000e+00  1.2142397347037867e-04 2.7252156588014743e-03 0.0000000000000000e+00  1.2130263101895357e-04 2.7416401782302765e-03 0.0000000000000000e+00  1.3702620636283841e-04 2.7583008285345643e-03 0.0000000000000000e+00  1.2147751826327552e-04 2.7578240932416378e-03 0.0000000000000000e+00  1.3729071450513863e-04 2.7735739077865153e-03 0.0000000000000000e+00  1.2165061878427141e-04 2.7729255578654208e-03 0.0000000000000000e+00  1.3776303596261242e-04 2.7940952861940289e-03 0.0000000000000000e+00  1.2165697602095599e-04 2.7875385189352225e-03 0.0000000000000000e+00  1.3806193993539401e-04 2.8167738513282105e-03 0.0000000000000000e+00  1.2175079091651954e-04 2.8106238559170572e-03 0.0000000000000000e+00  1.3831795841619843e-04 2.8401374729311417e-03 0.0000000000000000e+00  1.2198506433631007e-04 2.8330581457785982e-03 0.0000000000000000e+00  1.2238262315126560e-04 2.8573628346096960e-03 0.0000000000000000e+00  8.9397147997551780e-05 2.5892382547968553e-03 0.0000000000000000e+00  8.7069518913003403e-05 2.5613584708177057e-03 0.0000000000000000e+00  9.2110733407863599e-05 2.6169295302476297e-03 0.0000000000000000e+00  9.5201073383133417e-05 2.6447249964274182e-03 0.0000000000000000e+00  9.8752319700357000e-05 2.6731018929358362e-03 0.0000000000000000e+00  1.0302782679996420e-04 2.7026128965115252e-03 0.0000000000000000e+00  1.0635851884080937e-04 2.7259790496575965e-03 0.0000000000000000e+00  1.0636704574202464e-04 2.7419442114554908e-03 0.0000000000000000e+00  1.0655352439262490e-04 2.7576734663682218e-03 0.0000000000000000e+00  1.0681338816922746e-04 2.7728172438573023e-03 0.0000000000000000e+00  1.0694174549126340e-04 2.7875399884053401e-03 0.0000000000000000e+00  1.0644932472911692e-04 2.8047615247385428e-03 0.0000000000000000e+00  1.0669275082178027e-04 2.8253544769927261e-03 0.0000000000000000e+00  1.0707245341352658e-04 2.8490538179978217e-03 0.0000000000000000e+00  1.0747131296044441e-04 2.8743361166860331e-03 0.0000000000000000e+00  7.0448561777281066e-05 2.5878208874252399e-03 0.0000000000000000e+00  6.8365967941402554e-05 2.5606295601968490e-03 0.0000000000000000e+00  7.3027867010517516e-05 2.6148578211122437e-03 0.0000000000000000e+00  7.6137764523526090e-05 2.6419414031265253e-03 0.0000000000000000e+00  7.9922555630857484e-05 2.6693419185916559e-03 0.0000000000000000e+00  8.4735168953492467e-05 2.6973230566560312e-03 0.0000000000000000e+00  9.1385291847446837e-05 2.7262960372584862e-03 0.0000000000000000e+00  9.1638081591925835e-05 2.7422509458877083e-03 0.0000000000000000e+00  9.1925797580024701e-05 2.7576938442252256e-03 0.0000000000000000e+00  9.2259296074066196e-05 2.7727737396155716e-03 0.0000000000000000e+00  9.2538725513932840e-05 2.7875741640148170e-03 0.0000000000000000e+00  9.2731425449324510e-05 2.8021591781573116e-03 0.0000000000000000e+00  9.2894476307515776e-05 2.8167188904709988e-03 0.0000000000000000e+00  9.2886215545869664e-05 2.8403539366879831e-03 0.0000000000000000e+00  9.2859392599504515e-05 2.8650609272241165e-03 0.0000000000000000e+00  9.3380000397392992e-05 2.8903632665589641e-03 0.0000000000000000e+00  5.1460225534795543e-05 2.5866026747070983e-03 0.0000000000000000e+00  4.9628840521549015e-05 2.5601917793224892e-03 0.0000000000000000e+00  5.3847731919872151e-05 2.6128607928110857e-03 0.0000000000000000e+00  5.6821847336518161e-05 2.6390861002472056e-03 0.0000000000000000e+00  6.0478756007817512e-05 2.6654032343652653e-03 0.0000000000000000e+00  6.5000504531189553e-05 2.6918557158745015e-03 0.0000000000000000e+00  7.0634650719294016e-05 2.7182239559693853e-03 0.0000000000000000e+00  7.7269701285168467e-05 2.7425055934120510e-03 0.0000000000000000e+00  7.7546216311700708e-05 2.7577905458493848e-03 0.0000000000000000e+00  7.7919776723879398e-05 2.7727701162686583e-03 0.0000000000000000e+00  7.8290714098862925e-05 2.7875841567152285e-03 0.0000000000000000e+00  7.8626799823054727e-05 2.8022309255507031e-03 0.0000000000000000e+00  7.8917869645406269e-05 2.8168088594317901e-03 0.0000000000000000e+00  7.9265177183486234e-05 2.8315362619633334e-03 0.0000000000000000e+00  7.8888025155977271e-05 2.8557993657157481e-03 0.0000000000000000e+00  7.9188598794318533e-05 2.8793764055721157e-03 0.0000000000000000e+00  8.0147843036170241e-05 2.9053915250346245e-03 0.0000000000000000e+00  3.2413296219366943e-05 2.5855933559395354e-03 0.0000000000000000e+00  3.0830328071206352e-05 2.5600198612803810e-03 0.0000000000000000e+00  3.4584498219088774e-05 2.6110032092430614e-03 0.0000000000000000e+00  3.7368023975052540e-05 2.6363106141861171e-03 0.0000000000000000e+00  4.0829422896219276e-05 2.6615522309202124e-03 0.0000000000000000e+00  4.5080084089677166e-05 2.6866695338490436e-03 0.0000000000000000e+00  5.0252477116171386e-05 2.7113770518888110e-03 0.0000000000000000e+00  5.6371534697831414e-05 2.7348587757046214e-03 0.0000000000000000e+00  6.3448923625700790e-05 2.7579745220821083e-03 0.0000000000000000e+00  6.3677390107846898e-05 2.7727697921724344e-03 0.0000000000000000e+00  6.4135262419803506e-05 2.7875960128400366e-03 0.0000000000000000e+00  6.4544292305852995e-05 2.8022424574926730e-03 0.0000000000000000e+00  6.4944974972099467e-05 2.8168871124259983e-03 0.0000000000000000e+00  6.5366611877777785e-05 2.8316853497275607e-03 0.0000000000000000e+00  6.5995171989228517e-05 2.8469448666852458e-03 0.0000000000000000e+00  6.6129757914698561e-05 2.8678324665536862e-03 0.0000000000000000e+00  6.6491931577907545e-05 2.8924433905787345e-03 0.0000000000000000e+00  6.7123492668981621e-05 2.9212851382955768e-03 0.0000000000000000e+00  1.3299879619887292e-05 2.5848002314382799e-03 0.0000000000000000e+00  1.1959358390567313e-05 2.5600954573921854e-03 0.0000000000000000e+00  1.5241262135472024e-05 2.6093292471580263e-03 0.0000000000000000e+00  1.7797773421781276e-05 2.6337070905273108e-03 0.0000000000000000e+00  2.1003943350868048e-05 2.6579262925537058e-03 0.0000000000000000e+00  2.4905459984598577e-05 2.6819004972500502e-03 0.0000000000000000e+00  2.9521764567604446e-05 2.7054006390460970e-03 0.0000000000000000e+00  3.4753166080188031e-05 2.7280191047889357e-03 0.0000000000000000e+00  4.0312111233975274e-05 2.7497465901731282e-03 0.0000000000000000e+00  4.5512522104519483e-05 2.7686301030831750e-03 0.0000000000000000e+00  5.0219816910770083e-05 2.7877080133085629e-03 0.0000000000000000e+00  5.0508454509644044e-05 2.8022712755708195e-03 0.0000000000000000e+00  5.0786459182896477e-05 2.8168949301328487e-03 0.0000000000000000e+00  5.1152601817602609e-05 2.8317485342657981e-03 0.0000000000000000e+00  5.1616379793403095e-05 2.8469575935356991e-03 0.0000000000000000e+00  5.2157227716311115e-05 2.8625519050900503e-03 0.0000000000000000e+00  5.2576911030548045e-05 2.8783805539449050e-03 0.0000000000000000e+00  5.2828852460008436e-05 2.9080679896505675e-03 0.0000000000000000e+00  5.3028051808193973e-05 2.9379990560794481e-03 0.0000000000000000e+00  -5.8759804399257113e-06 2.5842263107760119e-03 0.0000000000000000e+00  -6.9821214165727207e-06 2.5604046030405056e-03 0.0000000000000000e+00  -4.1670448296242726e-06 2.6078634596182712e-03 0.0000000000000000e+00  -1.8477136378286533e-06 2.6313208911092436e-03 0.0000000000000000e+00  1.0987837474643231e-06 2.6545737980465771e-03 0.0000000000000000e+00  4.6892976955960799e-06 2.6775403857839573e-03 0.0000000000000000e+00  8.9174081586262510e-06 2.7000565168503036e-03 0.0000000000000000e+00  1.3715905334542875e-05 2.7218900167541161e-03 0.0000000000000000e+00  1.8949552429912949e-05 2.7429066393822262e-03 0.0000000000000000e+00  2.4420817147675005e-05 2.7624941210954638e-03 0.0000000000000000e+00  2.9910271231869291e-05 2.7819030547114919e-03 0.0000000000000000e+00  3.6264976889499547e-05 2.8023758824031329e-03 0.0000000000000000e+00  3.6372911233438203e-05 2.8169152947757738e-03 0.0000000000000000e+00  3.6591504855907841e-05 2.8317681767061546e-03 0.0000000000000000e+00  3.6879323594925890e-05 2.8469723081780921e-03 0.0000000000000000e+00  3.7271935281161888e-05 2.8625844981369632e-03 0.0000000000000000e+00  3.7731802106805802e-05 2.8785562842266795e-03 0.0000000000000000e+00  3.8306275359086378e-05 2.8951451965498289e-03 0.0000000000000000e+00  3.7759896908690386e-05 2.9246182429593210e-03 0.0000000000000000e+00  3.9341809760884202e-05 2.9509647195356792e-03 0.0000000000000000e+00  -2.5106932783512228e-05 2.5838724903530460e-03 0.0000000000000000e+00  -2.3632238727540662e-05 2.6066189103870017e-03 0.0000000000000000e+00  -2.1557396172262602e-05 2.6291731455364673e-03 0.0000000000000000e+00  -1.8876767092405516e-05 2.6515078202273656e-03 0.0000000000000000e+00  -1.5589789412139372e-05 2.6735571246494470e-03 0.0000000000000000e+00  -1.1716380555208512e-05 2.6952093149146352e-03 0.0000000000000000e+00  -7.3173939131462054e-06 2.7163257247344291e-03 0.0000000000000000e+00  -2.5044677002974577e-06 2.7368031550487558e-03 0.0000000000000000e+00  2.5489355982245336e-06 2.7564719389945830e-03 0.0000000000000000e+00  7.6097252210114638e-06 2.7759009265078990e-03 0.0000000000000000e+00  1.2688810600637839e-05 2.7954061706319264e-03 0.0000000000000000e+00  1.7401951066373322e-05 2.8133923842594962e-03 0.0000000000000000e+00  2.1709195226761540e-05 2.8318111402443600e-03 0.0000000000000000e+00  2.1834142085583518e-05 2.8469658758394907e-03 0.0000000000000000e+00  2.2051026906503063e-05 2.8625728042754525e-03 0.0000000000000000e+00  2.2426008105427843e-05 2.8786577913145896e-03 0.0000000000000000e+00  2.2982338759256162e-05 2.8953472397707466e-03 0.0000000000000000e+00  2.3710547634224388e-05 2.9128670326427006e-03 0.0000000000000000e+00  2.4357415215106595e-05 2.9319971515081983e-03 0.0000000000000000e+00  2.5740036107076982e-05 2.9674414897529772e-03 0.0000000000000000e+00  -4.3144751811868293e-05 2.6056037206520213e-03 0.0000000000000000e+00  -4.4380524815814036e-05 2.5837398198227429e-03 0.0000000000000000e+00  -4.1324144020325118e-05 2.6272751541579816e-03 0.0000000000000000e+00  -3.8920483342967396e-05 2.6487321235508839e-03 0.0000000000000000e+00  -3.5943033840743363e-05 2.6699281396058540e-03 0.0000000000000000e+00  -3.2418705944300060e-05 2.6907925045222751e-03 0.0000000000000000e+00  -2.8403628572543982e-05 2.7112467559531990e-03 0.0000000000000000e+00  -2.3988687161551390e-05 2.7312382945172999e-03 0.0000000000000000e+00  -1.9298524778859091e-05 2.7507468490329760e-03 0.0000000000000000e+00  -1.4461895569975451e-05 2.7700477341050154e-03 0.0000000000000000e+00  -9.4756818456010832e-06 2.7892487759844675e-03 0.0000000000000000e+00  -4.3648593352007018e-06 2.8079028934412942e-03 0.0000000000000000e+00  7.4099807333624929e-07 2.8268651096130457e-03 0.0000000000000000e+00  6.2878340646161801e-06 2.8469932758138747e-03 0.0000000000000000e+00  6.3142652828576309e-06 2.8625494485206393e-03 0.0000000000000000e+00  6.4138662302057733e-06 2.8786752514596030e-03 0.0000000000000000e+00  6.6913105311551798e-06 2.8954067732856899e-03 0.0000000000000000e+00  7.1409313418497906e-06 2.9129020391735856e-03 0.0000000000000000e+00  7.7194616843012260e-06 2.9310545381579576e-03 0.0000000000000000e+00  8.2935631419221323e-06 2.9500830376359942e-03 0.0000000000000000e+00  2.6916235714499390e-05 3.0040936629671085e-03 0.0000000000000000e+00  9.4086376422750070e-06 2.9874143145721108e-03 0.0000000000000000e+00  1.0468830494664457e-05 3.0245728084427118e-03 0.0000000000000000e+00  -6.2687143157541002e-05 2.6048236223555877e-03 0.0000000000000000e+00  -6.3676170047532836e-05 2.5838302209822599e-03 0.0000000000000000e+00  -6.1132892593839834e-05 2.6256330856333312e-03 0.0000000000000000e+00  -5.9020024931233951e-05 2.6462458807547753e-03 0.0000000000000000e+00  -5.6363353448586685e-05 2.6666345398711185e-03 0.0000000000000000e+00  -5.3192328034494494e-05 2.6867600103547000e-03 0.0000000000000000e+00  -4.9557135623689078e-05 2.7065844101696007e-03 0.0000000000000000e+00  -4.5530109460191731e-05 2.7260921482212350e-03 0.0000000000000000e+00  -4.1199418788698649e-05 2.7453087332102145e-03 0.0000000000000000e+00  -3.6644057509801172e-05 2.7643788491847851e-03 0.0000000000000000e+00  -3.1881695222709895e-05 2.7833645727937065e-03 0.0000000000000000e+00  -2.6936614612080408e-05 2.8021860627366613e-03 0.0000000000000000e+00  -2.1863793923244621e-05 2.8212993836481694e-03 0.0000000000000000e+00  -1.6453053401679949e-05 2.8411807663041894e-03 0.0000000000000000e+00  -1.0113797405149357e-05 2.8625221771347840e-03 0.0000000000000000e+00  -1.0164036944842762e-05 2.8786753537478451e-03 0.0000000000000000e+00  -1.0173692792932098e-05 2.8953897242428128e-03 0.0000000000000000e+00  -9.9931012072238377e-06 2.9128938124212810e-03 0.0000000000000000e+00  -9.5725951978163406e-06 2.9312319306431058e-03 0.0000000000000000e+00  -8.9513245263684868e-06 2.9505055630936728e-03 0.0000000000000000e+00  -7.8626305437942817e-06 2.9713062259170827e-03 0.0000000000000000e+00  -8.2688379897896227e-06 3.0077160852184791e-03 0.0000000000000000e+00  -5.4354841192019881e-06 3.0402726690911450e-03 0.0000000000000000e+00  -8.2231584623435538e-05 2.6042829972801472e-03 0.0000000000000000e+00  -8.2963507811145535e-05 2.5841464498858580e-03 0.0000000000000000e+00  -8.0957598662451254e-05 2.6242501751779740e-03 0.0000000000000000e+00  -7.9151133952907348e-05 2.6440460894812758e-03 0.0000000000000000e+00  -7.6829884291047023e-05 2.6636606043845532e-03 0.0000000000000000e+00  -7.4023623599886362e-05 2.6830790869653317e-03 0.0000000000000000e+00  -7.0777294847448299e-05 2.7022917465418378e-03 0.0000000000000000e+00  -6.7150700404356142e-05 2.7213071209501744e-03 0.0000000000000000e+00  -6.3212807273977772e-05 2.7401652888359657e-03 0.0000000000000000e+00  -5.9027633095711830e-05 2.7589581007906711e-03 0.0000000000000000e+00  -5.4638016050348172e-05 2.7777477364691471e-03 0.0000000000000000e+00  -5.0099282626071603e-05 2.7965800677480263e-03 0.0000000000000000e+00  -4.5487766278328517e-05 2.8157286441650720e-03 0.0000000000000000e+00  -4.0809666587590120e-05 2.8354516212140092e-03 0.0000000000000000e+00  -3.6066764395512012e-05 2.8558365105946660e-03 0.0000000000000000e+00  -3.1718573081633679e-05 2.8752936781378186e-03 0.0000000000000000e+00  -2.7792821542556661e-05 2.8953930762902987e-03 0.0000000000000000e+00  -2.7948011419625181e-05 2.9128076382852908e-03 0.0000000000000000e+00  -2.7873757919633283e-05 2.9312289137193421e-03 0.0000000000000000e+00  -2.7506098071162381e-05 2.9507152271738930e-03 0.0000000000000000e+00  -2.6805996709332474e-05 2.9714456896984091e-03 0.0000000000000000e+00  -2.5850230565593285e-05 2.9934378740698203e-03 0.0000000000000000e+00  -2.5320617124551373e-05 3.0157591660451800e-03 0.0000000000000000e+00  -2.1959444789994093e-05 3.0620074197511360e-03 0.0000000000000000e+00  -1.0173911395299003e-04 2.6039854197513158e-03 0.0000000000000000e+00  -1.0220176410212452e-04 2.5846918725921830e-03 0.0000000000000000e+00  -1.0076049827397143e-04 2.6231280208044313e-03 0.0000000000000000e+00  -9.9277113499638106e-05 2.6421289535560931e-03 0.0000000000000000e+00  -9.7307793567644887e-05 2.6609934198293488e-03 0.0000000000000000e+00  -9.4881409233216272e-05 2.6797259356985282e-03 0.0000000000000000e+00  -9.2038334984929283e-05 2.6983369176097490e-03 0.0000000000000000e+00  -8.8829573815295179e-05 2.7168511741019249e-03 0.0000000000000000e+00  -8.5312580400081348e-05 2.7353154664414912e-03 0.0000000000000000e+00  -8.1543578465802062e-05 2.7538027467251753e-03 0.0000000000000000e+00  -7.7571783840161662e-05 2.7723816324481242e-03 0.0000000000000000e+00  -7.3451224012992887e-05 2.7911348739259852e-03 0.0000000000000000e+00  -6.9234185542727458e-05 2.8102408311069674e-03 0.0000000000000000e+00  -6.4925811492887040e-05 2.8298488402113951e-03 0.0000000000000000e+00  -6.0499745143049536e-05 2.8499553612930202e-03 0.0000000000000000e+00  -5.6010864447872544e-05 2.8700484657717923e-03 0.0000000000000000e+00  -5.1636890876260103e-05 2.8907465166537012e-03 0.0000000000000000e+00  -4.7077448669552103e-05 2.9127108754476256e-03 0.0000000000000000e+00  -4.7293923045738066e-05 2.9311235016954897e-03 0.0000000000000000e+00  -4.7357066205620753e-05 2.9507538940004656e-03 0.0000000000000000e+00  -4.7158041443474945e-05 2.9715576602935556e-03 0.0000000000000000e+00  -4.6709249267746387e-05 2.9934696486431053e-03 0.0000000000000000e+00  -4.6091883451768023e-05 3.0161286918999690e-03 0.0000000000000000e+00  -4.5479326625015754e-05 3.0398588728561128e-03 0.0000000000000000e+00  -4.1496117473154126e-05 3.0889306653957859e-03 0.0000000000000000e+00  -1.2115972513462582e-04 2.6039340484276812e-03 0.0000000000000000e+00  -1.2133965699413458e-04 2.5854702940204181e-03 0.0000000000000000e+00  -1.2049245225601276e-04 2.6222674514407266e-03 0.0000000000000000e+00  -1.1934959244968626e-04 2.6404906843075699e-03 0.0000000000000000e+00  -1.1774989772190025e-04 2.6586224190585225e-03 0.0000000000000000e+00  -1.1572050738346709e-04 2.6766825349760544e-03 0.0000000000000000e+00  -1.1329751481200677e-04 2.6946966235750500e-03 0.0000000000000000e+00  -1.1052493540580633e-04 2.7127012419846026e-03 0.0000000000000000e+00  -1.0745166937176208e-04 2.730747