<?xml version="1.0"?>
<VTKFile type="UnstructuredGrid"  version="0.1"  >
<UnstructuredGrid>
<Piece  NumberOfPoints="639" NumberOfCells="1175">
<Points>
<DataArray  type="Float64"  NumberOfComponents="3"  format="ascii">1.321739130434783 0 0  1.338260869565217 0 0  1.338260869565217 0.01666666666666667 0  1.354782608695652 0 0  1.354782608695652 0.01666666666666667 0  1.371304347826087 0 0  1.371304347826087 0.01666666666666667 0  1.387826086956522 0 0  1.387826086956522 0.01666666666666667 0  1.404347826086957 0 0  1.404347826086957 0.01666666666666667 0  1.420869565217391 0 0  1.420869565217391 0.01666666666666667 0  1.437391304347826 0 0  1.437391304347826 0.01666666666666667 0  1.453913043478261 0 0  1.453913043478261 0.01666666666666667 0  1.470434782608696 0 0  1.470434782608696 0.01666666666666667 0  1.486956521739131 0 0  1.486956521739131 0.01666666666666667 0  1.503478260869565 0 0  1.503478260869565 0.01666666666666667 0  1.52 0 0  1.52 0.01666666666666667 0  1.536521739130435 0 0  1.536521739130435 0.01666666666666667 0  1.55304347826087 0 0  1.55304347826087 0.01666666666666667 0  1.569565217391304 0 0  1.569565217391304 0.01666666666666667 0  1.586086956521739 0 0  1.586086956521739 0.01666666666666667 0  1.602608695652174 0 0  1.602608695652174 0.01666666666666667 0  1.619130434782609 0 0  1.619130434782609 0.01666666666666667 0  1.635652173913043 0 0  1.635652173913043 0.01666666666666667 0  1.652173913043478 0 0  1.652173913043478 0.01666666666666667 0  1.668695652173913 0 0  1.668695652173913 0.01666666666666667 0  1.685217391304348 0 0  1.685217391304348 0.01666666666666667 0  1.701739130434782 0 0  1.701739130434782 0.01666666666666667 0  1.718260869565217 0 0  1.718260869565217 0.01666666666666667 0  1.734782608695652 0 0  1.734782608695652 0.01666666666666667 0  1.751304347826087 0 0  1.751304347826087 0.01666666666666667 0  1.767826086956522 0 0  1.767826086956522 0.01666666666666667 0  1.784347826086957 0 0  1.784347826086957 0.01666666666666667 0  1.800869565217391 0 0  1.800869565217391 0.01666666666666667 0  1.817391304347826 0 0  1.817391304347826 0.01666666666666667 0  1.833913043478261 0 0  1.833913043478261 0.01666666666666667 0  1.850434782608696 0 0  1.850434782608696 0.01666666666666667 0  1.86695652173913 0 0  1.86695652173913 0.01666666666666667 0  1.883478260869565 0 0  1.883478260869565 0.01666666666666667 0  1.354782608695652 0.03333333333333333 0  1.371304347826087 0.03333333333333333 0  1.387826086956522 0.03333333333333333 0  1.404347826086957 0.03333333333333333 0  1.420869565217391 0.03333333333333333 0  1.437391304347826 0.03333333333333333 0  1.453913043478261 0.03333333333333333 0  1.470434782608696 0.03333333333333333 0  1.486956521739131 0.03333333333333333 0  1.503478260869565 0.03333333333333333 0  1.52 0.03333333333333333 0  1.536521739130435 0.03333333333333333 0  1.55304347826087 0.03333333333333333 0  1.569565217391304 0.03333333333333333 0  1.586086956521739 0.03333333333333333 0  1.602608695652174 0.03333333333333333 0  1.619130434782609 0.03333333333333333 0  1.635652173913043 0.03333333333333333 0  1.652173913043478 0.03333333333333333 0  1.668695652173913 0.03333333333333333 0  1.685217391304348 0.03333333333333333 0  1.701739130434782 0.03333333333333333 0  1.718260869565217 0.03333333333333333 0  1.734782608695652 0.03333333333333333 0  1.751304347826087 0.03333333333333333 0  1.767826086956522 0.03333333333333333 0  1.784347826086957 0.03333333333333333 0  1.800869565217391 0.03333333333333333 0  1.817391304347826 0.03333333333333333 0  1.833913043478261 0.03333333333333333 0  1.850434782608696 0.03333333333333333 0  1.86695652173913 0.03333333333333333 0  1.883478260869565 0.03333333333333333 0  1.371304347826087 0.05 0  1.387826086956522 0.05 0  1.404347826086957 0.05 0  1.420869565217391 0.05 0  1.437391304347826 0.05 0  1.453913043478261 0.05 0  1.470434782608696 0.05 0  1.486956521739131 0.05 0  1.503478260869565 0.05 0  1.52 0.05 0  1.536521739130435 0.05 0  1.55304347826087 0.05 0  1.569565217391304 0.05 0  1.586086956521739 0.05 0  1.602608695652174 0.05 0  1.619130434782609 0.05 0  1.635652173913043 0.05 0  1.652173913043478 0.05 0  1.668695652173913 0.05 0  1.685217391304348 0.05 0  1.701739130434782 0.05 0  1.718260869565217 0.05 0  1.734782608695652 0.05 0  1.751304347826087 0.05 0  1.767826086956522 0.05 0  1.784347826086957 0.05 0  1.800869565217391 0.05 0  1.817391304347826 0.05 0  1.833913043478261 0.05 0  1.850434782608696 0.05 0  1.86695652173913 0.05 0  1.883478260869565 0.05 0  1.387826086956522 0.06666666666666667 0  1.404347826086957 0.06666666666666667 0  1.420869565217391 0.06666666666666667 0  1.437391304347826 0.06666666666666667 0  1.453913043478261 0.06666666666666667 0  1.470434782608696 0.06666666666666667 0  1.486956521739131 0.06666666666666667 0  1.503478260869565 0.06666666666666667 0  1.52 0.06666666666666667 0  1.536521739130435 0.06666666666666667 0  1.55304347826087 0.06666666666666667 0  1.569565217391304 0.06666666666666667 0  1.586086956521739 0.06666666666666667 0  1.602608695652174 0.06666666666666667 0  1.619130434782609 0.06666666666666667 0  1.635652173913043 0.06666666666666667 0  1.652173913043478 0.06666666666666667 0  1.668695652173913 0.06666666666666667 0  1.685217391304348 0.06666666666666667 0  1.701739130434782 0.06666666666666667 0  1.718260869565217 0.06666666666666667 0  1.734782608695652 0.06666666666666667 0  1.751304347826087 0.06666666666666667 0  1.767826086956522 0.06666666666666667 0  1.784347826086957 0.06666666666666667 0  1.800869565217391 0.06666666666666667 0  1.817391304347826 0.06666666666666667 0  1.833913043478261 0.06666666666666667 0  1.850434782608696 0.06666666666666667 0  1.86695652173913 0.06666666666666667 0  1.883478260869565 0.06666666666666667 0  1.404347826086957 0.08333333333333333 0  1.420869565217391 0.08333333333333333 0  1.437391304347826 0.08333333333333333 0  1.453913043478261 0.08333333333333333 0  1.470434782608696 0.08333333333333333 0  1.486956521739131 0.08333333333333333 0  1.503478260869565 0.08333333333333333 0  1.52 0.08333333333333333 0  1.536521739130435 0.08333333333333333 0  1.55304347826087 0.08333333333333333 0  1.569565217391304 0.08333333333333333 0  1.586086956521739 0.08333333333333333 0  1.602608695652174 0.08333333333333333 0  1.619130434782609 0.08333333333333333 0  1.635652173913043 0.08333333333333333 0  1.652173913043478 0.08333333333333333 0  1.668695652173913 0.08333333333333333 0  1.685217391304348 0.08333333333333333 0  1.701739130434782 0.08333333333333333 0  1.718260869565217 0.08333333333333333 0  1.734782608695652 0.08333333333333333 0  1.751304347826087 0.08333333333333333 0  1.767826086956522 0.08333333333333333 0  1.784347826086957 0.08333333333333333 0  1.800869565217391 0.08333333333333333 0  1.817391304347826 0.08333333333333333 0  1.833913043478261 0.08333333333333333 0  1.850434782608696 0.08333333333333333 0  1.86695652173913 0.08333333333333333 0  1.883478260869565 0.08333333333333333 0  1.420869565217391 0.1 0  1.437391304347826 0.1 0  1.453913043478261 0.1 0  1.470434782608696 0.1 0  1.486956521739131 0.1 0  1.503478260869565 0.1 0  1.52 0.1 0  1.536521739130435 0.1 0  1.55304347826087 0.1 0  1.569565217391304 0.1 0  1.586086956521739 0.1 0  1.602608695652174 0.1 0  1.619130434782609 0.1 0  1.635652173913043 0.1 0  1.652173913043478 0.1 0  1.668695652173913 0.1 0  1.685217391304348 0.1 0  1.701739130434782 0.1 0  1.718260869565217 0.1 0  1.734782608695652 0.1 0  1.751304347826087 0.1 0  1.767826086956522 0.1 0  1.784347826086957 0.1 0  1.800869565217391 0.1 0  1.817391304347826 0.1 0  1.833913043478261 0.1 0  1.850434782608696 0.1 0  1.86695652173913 0.1 0  1.883478260869565 0.1 0  1.437391304347826 0.1166666666666667 0  1.453913043478261 0.1166666666666667 0  1.470434782608696 0.1166666666666667 0  1.486956521739131 0.1166666666666667 0  1.503478260869565 0.1166666666666667 0  1.52 0.1166666666666667 0  1.536521739130435 0.1166666666666667 0  1.55304347826087 0.1166666666666667 0  1.569565217391304 0.1166666666666667 0  1.586086956521739 0.1166666666666667 0  1.602608695652174 0.1166666666666667 0  1.619130434782609 0.1166666666666667 0  1.635652173913043 0.1166666666666667 0  1.652173913043478 0.1166666666666667 0  1.668695652173913 0.1166666666666667 0  1.685217391304348 0.1166666666666667 0  1.701739130434782 0.1166666666666667 0  1.718260869565217 0.1166666666666667 0  1.734782608695652 0.1166666666666667 0  1.751304347826087 0.1166666666666667 0  1.767826086956522 0.1166666666666667 0  1.784347826086957 0.1166666666666667 0  1.800869565217391 0.1166666666666667 0  1.817391304347826 0.1166666666666667 0  1.833913043478261 0.1166666666666667 0  1.850434782608696 0.1166666666666667 0  1.86695652173913 0.1166666666666667 0  1.883478260869565 0.1166666666666667 0  1.453913043478261 0.1333333333333333 0  1.470434782608696 0.1333333333333333 0  1.486956521739131 0.1333333333333333 0  1.503478260869565 0.1333333333333333 0  1.52 0.1333333333333333 0  1.536521739130435 0.1333333333333333 0  1.55304347826087 0.1333333333333333 0  1.569565217391304 0.1333333333333333 0  1.586086956521739 0.1333333333333333 0  1.602608695652174 0.1333333333333333 0  1.619130434782609 0.1333333333333333 0  1.635652173913043 0.1333333333333333 0  1.652173913043478 0.1333333333333333 0  1.668695652173913 0.1333333333333333 0  1.685217391304348 0.1333333333333333 0  1.701739130434782 0.1333333333333333 0  1.718260869565217 0.1333333333333333 0  1.734782608695652 0.1333333333333333 0  1.751304347826087 0.1333333333333333 0  1.767826086956522 0.1333333333333333 0  1.784347826086957 0.1333333333333333 0  1.800869565217391 0.1333333333333333 0  1.817391304347826 0.1333333333333333 0  1.833913043478261 0.1333333333333333 0  1.850434782608696 0.1333333333333333 0  1.86695652173913 0.1333333333333333 0  1.883478260869565 0.1333333333333333 0  1.470434782608696 0.15 0  1.486956521739131 0.15 0  1.503478260869565 0.15 0  1.52 0.15 0  1.5365217391304
[...]
<CellData  Scalars="rho_bar"> 
<DataArray  type="Float64"  Name="rho_bar"  format="ascii">9.9628393796495196e-01   9.9612902250612667e-01   9.9378212794392506e-01   9.9569901147675222e-01   9.9323502282786147e-01   9.9493121040674759e-01   9.9214330856540756e-01   9.9380176468807424e-01   9.9042327906759708e-01   9.9246914363125016e-01   9.8818504928689466e-01   9.9153305803703251e-01   9.8613460732759384e-01   9.9202013383366627e-01   9.8586049336885162e-01   9.9439087438767948e-01   9.8880948588122819e-01   9.9735793426162622e-01   9.9389147433870806e-01   9.9920154647881909e-01   9.9788122344071484e-01   9.9983518500344926e-01   9.9952849775754504e-01   9.9997260382516240e-01   9.9992331126592815e-01   9.9999542125088070e-01   9.9998858157701831e-01   9.9999904104732040e-01   9.9999799993977767e-01   9.9999970130759075e-01   9.9999949273679622e-01   9.9999984703535705e-01   9.9999978781606702e-01   9.9999986740709457e-01   9.9999984600808767e-01   9.9999981141587180e-01   9.9999980926818488e-01   9.9999959209464129e-01   9.9999962354009242e-01   9.9999878880102144e-01   9.9999893142255036e-01   9.9999557502999747e-01   9.9999611435843649e-01   9.9998206161901604e-01   9.9998380383417873e-01   9.9992652774872459e-01   9.9992999136617555e-01   9.9972035210335153e-01   9.9971287881609050e-01   9.9908081056061460e-01   9.9896613850640970e-01   9.9755940809510801e-01   9.9694920389618680e-01   9.9508263386644324e-01   9.9308036170094582e-01   9.9283450648967675e-01   9.8856455797302134e-01   9.9262879133443127e-01   9.8666394181516115e-01   9.9466735787797189e-01   9.8914110926757914e-01   9.9724426567745117e-01   9.9378837410911625e-01   9.9894493460916367e-01   9.9743817335764573e-01   9.9968265597465422e-01   9.9919979361607492e-01   9.2832867625426607e-01   9.2018570851072823e-01   7.6427044998964044e-01   9.0578519147482128e-01   7.3471460769323171e-01   8.8543473479013124e-01   6.9253746736769817e-01   8.6256390126067017e-01   6.4473586481844214e-01   8.4650528961518590e-01   6.0559482013110588e-01   8.5191149494753393e-01   5.9664404051817910e-01   8.9007840786472536e-01   6.4470235267788301e-01   9.4817473685086118e-01   7.6799804998970445e-01   9.8696252396102113e-01   9.1392036678822419e-01   9.9815812122211423e-01   9.8473356558019975e-01   9.9980983419994318e-01   9.9847602352395082e-01   9.9997986954574813e-01   9.9987657135239760e-01   9.9999704858562943e-01   9.9998780873176119e-01   9.9999926367800840e-01   9.9999796224211390e-01   9.9999965214765718e-01   9.9999931101647621e-01   9.9999968137346307e-01   9.9999950449697084e-01   9.9999945856088257e-01   9.9999927046611126e-01   9.9999845483482153e-01   9.9999802181758257e-01   9.9999353736374985e-01   9.9999152454828322e-01   9.9996568973089606e-01   9.9995141307131208e-01   9.9979720384793624e-01   9.9967929937230848e-01   9.9882090871865936e-01   9.9787079178028826e-01   9.9400855332816362e-01   9.8753821288075094e-01   9.7616446109357990e-01   9.4409859439294352e-01   9.3305542092744842e-01   8.3351494565516526e-01   8.7358723108569847e-01   6.8486147486686644e-01   8.3141028029980890e-01   5.7662785185836674e-01   8.3095556049698782e-01   5.4388615372536830e-01   8.7419301662402149e-01   5.9320186588984036e-01   9.3603394818180141e-01   7.2136425654839520e-01   9.7899950756981835e-01   8.7494076388475228e-01   9.9526083862616155e-01   9.6639961320781742e-01   1.6357913729144150e-01   1.4162963674658277e-01   3.0116227512795343e-02   1.1651192066920275e-01   2.4625595684429485e-02   9.4471659814712519e-02   1.9598207564530033e-02   8.1009466998072793e-02   1.6166441261593962e-02   8.1803711982150695e-02   1.5243790138568834e-02   1.1004373848803449e-01   1.8667365697100088e-02   2.1024157838805296e-01   3.4041933441565204e-02   4.6558744987974293e-01   9.9491176831111999e-02   8.2439246279636946e-01   3.5638641368385565e-01   9.8639411727386062e-01   8.2330848630638898e-01   9.9938471954453123e-01   9.9010422915791840e-01   9.9996017175967378e-01   9.9961323488076914e-01   9.9999426618678988e-01   9.9997128919428258e-01   9.9999781252001374e-01   9.9999371013493477e-01   9.9999773820359827e-01   9.9999550507583734e-01   9.9999413332028353e-01   9.9999032400269572e-01   9.9996798670597520e-01   9.9994884096104564e-01   9.9971720812126341e-01   9.9951023536007744e-01   9.9696172800170368e-01   9.9394712793847850e-01   9.7005763513780419e-01   9.3367014801338111e-01   8.3383127579549976e-01   6.6568456737320902e-01   6.2657163845224095e-01   3.6645806826909533e-01   4.0054305580159466e-01   1.7181527665421001e-01   1.9774834376423450e-01   6.0611524994320341e-02   9.5376975755544047e-02   2.2849065359918198e-02   5.9449576583805293e-02   1.1811086050139178e-02   5.4500840553652348e-02   9.1425106518152801e-03   7.5254654587033593e-02   1.0854745466388940e-02   1.4754395362127898e-01   1.9762448853112038e-02   3.3121078379897584e-01   5.2964883628507008e-02   6.1509595561617381e-01   1.7245218103200274e-01   3.2010393831145671e-04   2.7115335287889662e-04   5.9883885046479100e-05   2.3282187954822489e-04   5.2734134258384189e-05   2.1818399968848674e-04   4.9285683282442589e-05   2.4712251208157605e-04   5.3220682611416809e-05   3.8429090890844972e-04   7.4076237538305676e-05   9.5256438714848475e-04   1.5115468052711713e-04   4.4161014763233189e-03   5.2410071958662217e-04   4.1618199683676610e-02   3.6000606745633886e-03   3.9173130221481545e-01   5.1733996814745130e-02   9.3727152517879697e-01   5.4273615675379128e-01   9.9816107984204272e-01   9.6988400482070480e-01   9.9987715246827635e-01   9.9896378237105798e-01   9.9996530159083419e-01   9.9986610692782552e-01   9.9995375363860850e-01   9.9989632018682684e-01   9.9975358402606185e-01   9.9957029588379498e-01   9.9664280010453332e-01   9.9427580946390715e-01   9.4247591959819155e-01   8.9875558406982436e-01   6.7947374145125439e-01   4.9853829924489057e-01   3.3160687940842970e-01   1.7526657469385187e-01   6.3854728235412758e-02   2.4402978279419389e-02   8.9870877234395248e-03   3.0354201928499734e-03   1.6908125350738453e-03   5.3679568255983652e-04   4.7112470070023510e-04   1.4103104828480583e-04   1.9542958634091601e-04   5.4315484003126231e-05   1.2072181562972245e-04   3.0324785651999797e-05   1.1133317488093956e-04   2.4492162590038464e-05   1.5408614578860547e-04   2.8658603417736787e-05   3.2534769159375901e-04   4.9139452006732097e-05   1.0797289537472820e-03   1.2699250367434803e-04   5.8256250091160040e-03   5.1716126460296153e-04   1.6336714539334507e-06   1.6711876844473528e-06   5.6058896287583404e-07   1.8891181591764052e-06   6.3062402801726430e-07   2.5457240575637690e-06   8.1953164742139759e-07   4.4969400065440177e-06   1.3354797395716598e-06   1.1686475579876706e-05   3.0170746668558367e-06   5.1274624245316250e-05   1.0673551823881937e-05   4.4394157088308418e-04   6.8359931708699071e-05   8.6291061385728417e-03   9.2659224642602917e-04   2.3425051549455694e-01   2.7876883740489355e-02   9.1023140436865269e-01   5.2935650551957436e-01   9.9624640162751499e-01   9.7003875076037926e-01   9.9918086150831942e-01   9.9695361603043486e-01   9.9842558411978699e-01   9.9697425220361680e-01   9.8170538095356674e-01   9.7430591892557672e-01   7.4899479192562202e-01   6.8578026976051543e-01   2.8561988358674856e-01   2.0637686767876948e-01   2.4704800175056208e-02   1.4028602009690101e-02   1.5600516394532588e-03   7.9902000743095299e-04   1.5637275405991477e-04   7.5271615319785567e-05   2.5976870870960242e-05   1.1879300987088270e-05   6.7705822642006994e-06   2.9545296536825118e-06   2.5850662136367093e-06   1.0758166004781700e-06   1.3738910698484585e-06   5.4090253223128929e-07   9.8915728364727499e-07   3.6267272645199673e-07   9.5620161858677720e-07   3.1949961084768234e-07   1.2484031945813042e-06   3.6986340100833005e-07   2.2525722601491036e-06   5.7164269659205511e-07   5.8760407107279052e-06   1.2226749509234488e-06   2.3854192933350501e-05   3.8501050813453488e-06   7.1644813226381758e-08   9.4515856685363254e-08   4.4200105847239182e-08   1.4757218378036740e-07   6.7352574929787746e-08   2.9427297625896079e-07   1.2731655762098414e-07   8.2518415608666108e-07   3.2564884142658415e-07   3.6711869449512758e-06   1.2604369358449345e-06   2.9999983776043259e-05   8.5051633744208752e-06   5.2425430118666386e-04   1.1748131359151409e-04   1.9736031842513001e-02   3.5916693975401575e-03   4.5680546279847029e-01   1.4107996691981620e-01   9.4936142641626653e-01   8.1492726886197642e-01   9.8929730475408362e-01   9.7573023443046492e-01   9.7053275583329246e-01   9.6510029639216144e-01   6.7123119822473731e-01   7.0228133600032183e-01   1.2197018544175950e-01   1.3621333799158256e-01   3.9237287091709377e-03   3.7112989707558490e-03   1.5464105963374400e-04   1.2240638673803996e-04   1.2234087047034621e-05   8.4992695424146497e-06   1.8166353756827109e-06   1.1530790136550049e-06   4.4304666001300624e-07   2.6384550438123626e-07   1.5911639556219507e-07   9.0263343565623978e-08   7.7838785432356891e-08   4.2314616721155601e-08   4.9318461790408533e-08   2.5640940567166209e-08   3.9376214097861346e-08   1.9406822770632470e-08   3.9255163807690211e-08   1.8074712552102877e-08   4.9213707566586819e-08   2.0744931450149690e-08   7.9562980311950736e-08   2.9884899122440641e-08   1.7408117867971773e-07   5.6211328253718454e-08   5.5861599350447390e-07   1.4784035276740416e-07   1.7302202486868536e-08   3.1517183532051999e-08   1.8959532704501915e-08   7.3279056411727464e-08   4.2796796100949146e-08   2.3831920907958192e-07   1.3182143403766897e-07   1.2241565816675801e-06   6.2298603733231513e-07   1.1580037491035225e-05   5.2747816834494387e-06   2.3490782394582576e-04   9.4264785659171229e-05   9.8043180233684437e-03   3.5294156948205606e-03   2.9457498673014765e-01   1.3063580734190230e-01   8.6395821012681095e-01   7.4631409941114979e-01   9.6035699426491716e-01   9.5106609782121299e-01   8.5231079120748188e-01   8.9648939223914226e-01   2.2958098604262644e-01   3.8927052263357143e-01   6.2273107102881753e-03   1.2208721154376250e-02   1.1313185001687180e-04   1.6102926578837176e-04   4.8348511261366146e-06   5.2129472523508287e-06   4.9062954319652586e-07   4.3918259204896721e-07   9.5667443483592879e-08   7.5933835114354603e-08   2.9870307294693440e-08   2.1914414710470689e-08   1.3163756891082761e-08   9.1425132749087300e-09   7.5406210263097543e-09   5.0151409140453837e-09   5.3380359396019785e-09   3.4088179041326733e-09   4.5457136576840872e-09   2.7762989409527783e-09   4.6168691003385879e-09   2.6717086138050882e-09   5.6370935238766398e-09   3.0453724544433692e-09   8.4940266956094131e-09   4.1927132879816897e-09   1.6613856791558420e-08   7.2664489801116403e-09   4.5971910161749584e-08   1.7061118038149624e-08   1.8664180683861244e-08   5.4283277664018928e-08   4.0239757815940697e-08   2.2731407725439495e-07   1.6436918765277409e-07   1.5680852499329492e-06   1.0819708686940467e-06   2.1019096214617033e-05   1.3537509162270972e-05   6.0496603929937253e-04   3.5806042293409833e-04   2.8148631408060312e-02   1.5668275286422520e-02   4.4057641740253928e-01   3.0602549981335991e-01   8.9361934912565832e-01   8.5904840781703296e-01   9.4962175040740282e-01   9.5695817160648589e-01   7.2967388191975491e-01   8.4950653420585642e-01   8.9520751509764351e-02   2.2967146279847808e-01   9.9237106001066932e-04   2.8295863911806732e-03   1.2813218642988994e-05   2.4599774779761367e-05   5.2973715435817760e-07   7.1666051593929472e-07   6.0225777961863217e-08   6.4873552664355686e-08   1.3696620709008119e-08   1.2792803123351511e-08   4.9612256806523775e-09   4.2319877420439607e-09   2.4778589274874690e-09   1.9879545048656940e-09   1.5628121668327557e-09   1.1971074317918864e-09   1.1829213257972037e-09   8.7019515673896855e-10   1.0469389892847981e-09   7.3933900673925908e-10   1.0750271229577160e-09   7.2486647245606032e-10   1.2911000325386317e-09   8.2246619706194378e-10   1.8610637661989134e-09   1.1007594003796350e-09   3.3862953277344795e-09   1.8094262941189769e-09   8.4985937182957115e-09   3.9326357173712867e-09   1.1127672687838530e-07   6.8357452755258220e-07   6.1706916490466903e-07   7.2480957277016715e-06   6.3638040039276080e-06   1.4841000464782674e-04   1.2239961478794620e-04   5.3914649703732560e-03   4.0587548231094004e-03   1.6143363499833890e-01   1.1823408612778749e-01   7.1952484684857987e-01   6.5000114334014536e-01   9.5092007105425502e-01   9.4531643643553653e-01   9.4924862059348891e-01   9.6127691234709634e-01   6.1299659513320937e-01   7.7004346956011527e-01   4.4926183613295180e-02   1.2358346451250332e-01   3.1632249271569502e-04   9.4099099441817330e-04   3.1337988297184108e-06   6.6485546324792063e-06   1.2133268966383868e-07   1.8300561410253709e-07   1.4655776889486560e-08   1.7535806308358109e-08   3.6732032233456734e-09   3.7973619807044013e-09   1.4604506864220367e-09   1.3750110403167610e-09   7.8665361267974529e-10   6.9478508137201433e-10   5.2462963606985659e-10   4.4146069210958427e-10   4.1238167513525545e-10   3.3294939955738753e-10   3.7297378151727335e-10   2.8940956115277047e-10   3.8548661488026571e-10   2.8670866608940962e-10   4.5870104940081678e-10   3.2460525011128957e-10   6.4330861013437739e-10   4.2712054267022344e-10   1.1139926112040683e-09   6.7707596941603266e-10   2.5920358916756435e-09   1.3831522132383669e-09   6.8572992351630694e-06   1.1093696188431270e-04   1.1904169668357204e-04   2.7380535901108003e-03   2.7204703913888987e-03   7.0466444832975220e-02   6.2514484031381851e-02   5.1857456517435430e-01   4.6027221992804068e-01   9.0879563199415636e-01   8.8933160998241978e-01   9.6677632373131739e-01   9.6466624384636546e-01   9.0773132817684921e-01   9.2504279889416319e-01   3.9336737733442301e-01   5.3931825339099704e-01   1.5269701319961889e-02   3.5260260646322386e-02   9.3181170547651835e-05   2.2630488718289164e-04   9.3937913307904804e-07   1.8311400790758803e-06   3.9027725369220039e-08   5.8592972857653276e-08   5.2125331369976780e-09   6.4413864339878293e-09   1.4335594564364824e-09   1.5577154659932243e-09   6.1168048408788251e-10   6.1029034608306868e-10   3.4584847025881758e-10   3.2468116161060395e-10   2.3802410044758390e-10   2.1297147380581581e-10   1.9080007020219691e-10   1.6372164736281797e-10   1.7451079471693988e-10   1.4391919139003040e-10   1.8108690474433029e-10   1.4337631083466484e-10   2.1448099779321996e-10   1.6221903451374271e-10   2.9551556574406485e-10   2.1115688828679731e-10   4.9230241183656102e-10   3.2527934052445861e-10   1.0664206185590206e-09   6.2638920906772965e-10   3.7903516222654336e-03   6.0421493921366691e-02   6.8692480093071745e-02   3.9950932634773839e-01   3.9503017206570840e-01   8.3066759053536110e-01   8.0870986592388916e-01   9.4875737368784641e-01   9.3869568137138826e-01   9.3077431829862178e-01   9.2387072229631351e-01   6.6680247646878110e-01   6.8640916628383175e-01   1.2704444491728964e-01   1.6910482777249028e-01   2.2168997745947135e-03   3.8329628405623949e-03   1.6609463676195858e-05   3.0342882990203251e-05   2.4698716070521818e-07   4.0433938217343287e-07   1.3851514149686067e-08   1.9289204549905046e-08   2.2410157527675508e-09   2.7210646145766817e-09   6.9341002389661964e-10   7.6354370054590568e-10   3.1689691613958385e-10   3.2559854814777960e-10   1.8601874671655105e-10   1.8124164207839908e-10   1.3050795630358504e-10   1.2156588699567148e-10   1.0562945889138406e-10   9.4421267108444293e-11   9.7110514081904142e-11   8.3417300850899758e-11   1.0099579506802447e-10   8.3324014361248585e-11   1.1929295515276040e-10   9.4219058488210616e-11   1.6211693100290366e-10   1.2156314844554385e-10   2.6063712301485639e-10   1.8232206486675317e-10   5.2390953616417182e-10   3.3043200585629401e-10   4.3072787997316686e-01   7.8944154689874924e-01   7.9536655498792108e-01   9.1126793172245668e-01   9.0175301575004829e-01   8.8931332127439144e-01   8.6962159647793280e-01   6.5716783390095734e-01   6.1924028310265522e-01   2.0078930220834970e-01   1.9337283743279163e-01   9.7355527652839020e-03   1.1044284797564674e-02   1.3801301740440640e-04   1.8374769947591065e-04   1.8286647366076565e-06   2.6028543706872410e-06   5.4805643564593262e-08   7.5380912249411727e-08   5.0017604136330048e-09   6.3347779711813994e-09   1.0607413281872731e-09   1.2375422632040067e-09   3.7916652228237324e-10   4.1453288027536576e-10   1.8666789411909842e-10   1.9399455191862627e-10   1.1356666533963349e-10   1.1307203322655003e-10   8.0900277224147875e-11   7.7406627409993653e-11   6.5846134105738125e-11   6.0582705523470940e-11   6.0665648435275225e-11   5.3655505968233391e-11   6.3134016537969239e-11   5.3635355420334932e-11   7.4334409004160404e-11   6.0531848057080713e-11   9.9637946049512687e-11   7.7330623392093779e-11   1.5452814029538350e-10   1.1281654315298887e-10   2.8755361057422305e-10   1.9229810338129528e-10   8.9453863289346458e-01   8.2301110135726963e-01   8.0720305543406512e-01   5.3412502209488133e-01   4.8661725418083168e-01   1.4921988267247727e-01   1.2666349109190139e-01   1.0044311570432875e-02   8.9703350398840937e-03   2.6967341933934602e-04   2.7140410234085047e-04   5.7444980944831839e-06   6.4946149204436872e-06   1.7677372806707573e-07   2.1311643502478128e-07   1.2109733272617822e-08   1.4633543877756927e-08   1.8919343130607809e-09   2.2096145378035895e-09   5.3790505387294600e-10   6.0221943177521020e-10   2.2412324775538329e-10   2.4147352637792055e-10   1.1932528114649648e-10   1.2426941883871592e-10   7.5400842982403175e-11   7.6021587179235025e-11   5.4596503248401105e-11   5.3236646576586328e-11   4.4691916837357568e-11   4.2047319333208083e-11   4.1230953839422482e-11   3.7339788671271224e-11   4.2866404873404216e-11   3.7306481980529949e-11   5.0195551422879094e-11   4.1916090971687476e-11   6.6202571207820940e-11   5.2858791421985154e-11   9.8914820786085570e-11   7.4855751232846674e-11   1.7074056984361355e-10   1.2021128537950695e-10   4.2319608227949401e-01   8.7298610881544822e-02   7.3848995871229964e-02   5.5556289727307874e-03   4.6558193760054848e-03   2.0305429200555825e-04   1.7955462683992386e-04   6.7766523309467003e-06   6.5160535751856645e-06   2.9549818474927205e-07   3.0813978014109113e-07   2.2249387602512913e-08   2.4416747986433787e-08   3.1858100419390635e-09   3.5480090812459607e-09   7.9310642318838322e-10   8.7544760336514979e-10   2.9304755846385392e-10   3.1769921880838976e-10   1.4084800919235358e-10   1.4966451227617257e-10   8.1014139847190310e-11   8.4303601143383475e-11   5.3332773386809031e-11   5.4239261234625391e-11   3.9415618919862286e-11   3.9036042919572833e-11   3.2554218582555852e-11   3.1255248391787810e-11   3.0102198513900671e-11   2.7898193017106941e-11   3.1211524108331349e-11   2.7838537033245914e-11   3.6211524522410715e-11   3.1027671175439542e-11   4.6800905746953291e-11   3.8440389763099386e-11   6.7256996273679756e-11   5.2678833521538369e-11   1.0824669864983298e-10   7.9913862570411012e-11   2.8686594241762141e-03   1.1189214623138238e-04   9.6174516001809238e-05   4.7746679028197475e-06   4.2893543912107767e-06   2.8492053588055790e-07   2.7152364768815676e-07   2.7256376370932463e-08   2.7457304533944295e-08   4.3141808554766639e-09   4.5133800126609654e-09   1.0726117495007345e-09   1.1416095199660069e-09   3.7956169691615984e-10   4.0510740135877672e-10   1.7288451227477052e-10   1.8365877338850277e-10   9.3982284924474354e-11   9.9002870723803544e-11   5.8189416252822863e-11   6.0612986856469879e-11   4.0062869691409090e-11   4.1123132680006164e-11   3.0418316016469477e-11   3.0625807447929053e-11   2.5494745205782784e-11   2.5036158333568201e-11   2.3687718455190821e-11   2.2559102735705836e-11   2.4450367658297579e-11   2.2477621617550737e-11   2.7962326900500966e-11   2.4740098860312468e-11   3.5207725626478626e-11   2.9917087328247527e-11   4.8524175422189499e-11   3.9477902431548474e-11   7.3175345418222783e-11   5.6628081857598997e-11   8.8565155216294753e-11   2.90761703