<?xml version="1.0"?>
<VTKFile type="UnstructuredGrid"  version="0.1"  >
<UnstructuredGrid>
<Piece  NumberOfPoints="640" NumberOfCells="1175">
<Points>
<DataArray  type="Float64"  NumberOfComponents="3"  format="ascii">2.577391304347826 0 0  2.593913043478261 0 0  2.593913043478261 0.01666666666666667 0  2.577391304347826 0.01666666666666667 0  2.610434782608696 0 0  2.610434782608696 0.01666666666666667 0  2.62695652173913 0 0  2.62695652173913 0.01666666666666667 0  2.643478260869565 0 0  2.643478260869565 0.01666666666666667 0  2.66 0 0  2.66 0.01666666666666667 0  2.676521739130435 0 0  2.676521739130435 0.01666666666666667 0  2.693043478260869 0 0  2.693043478260869 0.01666666666666667 0  2.709565217391304 0 0  2.709565217391304 0.01666666666666667 0  2.726086956521739 0 0  2.726086956521739 0.01666666666666667 0  2.742608695652174 0 0  2.742608695652174 0.01666666666666667 0  2.759130434782609 0 0  2.759130434782609 0.01666666666666667 0  2.775652173913044 0 0  2.775652173913044 0.01666666666666667 0  2.792173913043478 0 0  2.792173913043478 0.01666666666666667 0  2.808695652173913 0 0  2.808695652173913 0.01666666666666667 0  2.825217391304347 0 0  2.825217391304347 0.01666666666666667 0  2.841739130434783 0 0  2.841739130434783 0.01666666666666667 0  2.858260869565217 0 0  2.858260869565217 0.01666666666666667 0  2.874782608695652 0 0  2.874782608695652 0.01666666666666667 0  2.891304347826087 0 0  2.891304347826087 0.01666666666666667 0  2.907826086956522 0 0  2.907826086956522 0.01666666666666667 0  2.924347826086957 0 0  2.924347826086957 0.01666666666666667 0  2.940869565217391 0 0  2.940869565217391 0.01666666666666667 0  2.957391304347826 0 0  2.957391304347826 0.01666666666666667 0  2.973913043478261 0 0  2.973913043478261 0.01666666666666667 0  2.593913043478261 0.03333333333333333 0  2.610434782608696 0.03333333333333333 0  2.62695652173913 0.03333333333333333 0  2.643478260869565 0.03333333333333333 0  2.66 0.03333333333333333 0  2.676521739130435 0.03333333333333333 0  2.693043478260869 0.03333333333333333 0  2.709565217391304 0.03333333333333333 0  2.726086956521739 0.03333333333333333 0  2.742608695652174 0.03333333333333333 0  2.759130434782609 0.03333333333333333 0  2.775652173913044 0.03333333333333333 0  2.792173913043478 0.03333333333333333 0  2.808695652173913 0.03333333333333333 0  2.825217391304347 0.03333333333333333 0  2.841739130434783 0.03333333333333333 0  2.858260869565217 0.03333333333333333 0  2.874782608695652 0.03333333333333333 0  2.891304347826087 0.03333333333333333 0  2.907826086956522 0.03333333333333333 0  2.924347826086957 0.03333333333333333 0  2.940869565217391 0.03333333333333333 0  2.957391304347826 0.03333333333333333 0  2.973913043478261 0.03333333333333333 0  2.610434782608696 0.05 0  2.62695652173913 0.05 0  2.643478260869565 0.05 0  2.66 0.05 0  2.676521739130435 0.05 0  2.693043478260869 0.05 0  2.709565217391304 0.05 0  2.726086956521739 0.05 0  2.742608695652174 0.05 0  2.759130434782609 0.05 0  2.775652173913044 0.05 0  2.792173913043478 0.05 0  2.808695652173913 0.05 0  2.825217391304347 0.05 0  2.841739130434783 0.05 0  2.858260869565217 0.05 0  2.874782608695652 0.05 0  2.891304347826087 0.05 0  2.907826086956522 0.05 0  2.924347826086957 0.05 0  2.940869565217391 0.05 0  2.957391304347826 0.05 0  2.973913043478261 0.05 0  2.990434782608696 0.05 0  2.62695652173913 0.06666666666666667 0  2.643478260869565 0.06666666666666667 0  2.66 0.06666666666666667 0  2.676521739130435 0.06666666666666667 0  2.693043478260869 0.06666666666666667 0  2.709565217391304 0.06666666666666667 0  2.726086956521739 0.06666666666666667 0  2.742608695652174 0.06666666666666667 0  2.759130434782609 0.06666666666666667 0  2.775652173913044 0.06666666666666667 0  2.792173913043478 0.06666666666666667 0  2.808695652173913 0.06666666666666667 0  2.825217391304347 0.06666666666666667 0  2.841739130434783 0.06666666666666667 0  2.858260869565217 0.06666666666666667 0  2.874782608695652 0.06666666666666667 0  2.891304347826087 0.06666666666666667 0  2.907826086956522 0.06666666666666667 0  2.924347826086957 0.06666666666666667 0  2.940869565217391 0.06666666666666667 0  2.957391304347826 0.06666666666666667 0  2.973913043478261 0.06666666666666667 0  2.990434782608696 0.06666666666666667 0  2.643478260869565 0.08333333333333333 0  2.66 0.08333333333333333 0  2.676521739130435 0.08333333333333333 0  2.693043478260869 0.08333333333333333 0  2.709565217391304 0.08333333333333333 0  2.726086956521739 0.08333333333333333 0  2.742608695652174 0.08333333333333333 0  2.759130434782609 0.08333333333333333 0  2.775652173913044 0.08333333333333333 0  2.792173913043478 0.08333333333333333 0  2.808695652173913 0.08333333333333333 0  2.825217391304347 0.08333333333333333 0  2.841739130434783 0.08333333333333333 0  2.858260869565217 0.08333333333333333 0  2.874782608695652 0.08333333333333333 0  2.891304347826087 0.08333333333333333 0  2.907826086956522 0.08333333333333333 0  2.924347826086957 0.08333333333333333 0  2.940869565217391 0.08333333333333333 0  2.957391304347826 0.08333333333333333 0  2.973913043478261 0.08333333333333333 0  2.990434782608696 0.08333333333333333 0  3.006956521739131 0.08333333333333333 0  2.66 0.1 0  2.676521739130435 0.1 0  2.693043478260869 0.1 0  2.709565217391304 0.1 0  2.726086956521739 0.1 0  2.742608695652174 0.1 0  2.759130434782609 0.1 0  2.775652173913044 0.1 0  2.792173913043478 0.1 0  2.808695652173913 0.1 0  2.825217391304347 0.1 0  2.841739130434783 0.1 0  2.858260869565217 0.1 0  2.874782608695652 0.1 0  2.891304347826087 0.1 0  2.907826086956522 0.1 0  2.924347826086957 0.1 0  2.940869565217391 0.1 0  2.957391304347826 0.1 0  2.973913043478261 0.1 0  2.990434782608696 0.1 0  3.006956521739131 0.1 0  2.676521739130435 0.1166666666666667 0  2.693043478260869 0.1166666666666667 0  2.709565217391304 0.1166666666666667 0  2.726086956521739 0.1166666666666667 0  2.742608695652174 0.1166666666666667 0  2.759130434782609 0.1166666666666667 0  2.775652173913044 0.1166666666666667 0  2.792173913043478 0.1166666666666667 0  2.808695652173913 0.1166666666666667 0  2.825217391304347 0.1166666666666667 0  2.841739130434783 0.1166666666666667 0  2.858260869565217 0.1166666666666667 0  2.874782608695652 0.1166666666666667 0  2.891304347826087 0.1166666666666667 0  2.907826086956522 0.1166666666666667 0  2.924347826086957 0.1166666666666667 0  2.940869565217391 0.1166666666666667 0  2.957391304347826 0.1166666666666667 0  2.973913043478261 0.1166666666666667 0  2.990434782608696 0.1166666666666667 0  3.006956521739131 0.1166666666666667 0  3.023478260869565 0.1166666666666667 0  2.693043478260869 0.1333333333333333 0  2.709565217391304 0.1333333333333333 0  2.726086956521739 0.1333333333333333 0  2.742608695652174 0.1333333333333333 0  2.759130434782609 0.1333333333333333 0  2.775652173913044 0.1333333333333333 0  2.792173913043478 0.1333333333333333 0  2.808695652173913 0.1333333333333333 0  2.825217391304347 0.1333333333333333 0  2.841739130434783 0.1333333333333333 0  2.858260869565217 0.1333333333333333 0  2.874782608695652 0.1333333333333333 0  2.891304347826087 0.1333333333333333 0  2.907826086956522 0.1333333333333333 0  2.924347826086957 0.1333333333333333 0  2.940869565217391 0.1333333333333333 0  2.957391304347826 0.1333333333333333 0  2.973913043478261 0.1333333333333333 0  2.990434782608696 0.1333333333333333 0  3.006956521739131 0.1333333333333333 0  3.023478260869565 0.1333333333333333 0  2.726086956521739 0.15 0  2.742608695652174 0.15 0  2.759130434782609 0.15 0  2.775652173913044 0.15 0  2.792173913043478 0.15 0  2.808695652173913 0.15 0  2.825217391304347 0.15 0  2.841739130434783 0.15 0  2.858260869565217 0.15 0  2.874782608695652 0.15 0  2.891304347826087 0.15 0  2.907826086956522 0.15 0  2.924347826086957 0.15 0  2.940869565217391 0.15 0  2.957391304347826 0.15 0  2.973913043478261 0.15 0  2.990434782608696 0.15 0  3.006956521739131 0.15 0  3.023478260869565 0.15 0  3.04 0.15 0  2.742608695652174 0.1666666666666667 0  2.759130434782609 0.1666666666666667 0  2.775652173913044 0.1666666666666667 0  2.792173913043478 0.1666666666666667 0  2.808695652173913 0.1666666666666667 0  2.825217391304347 0.1666666666666667 0  2.841739130434783 0.1666666666666667 0  2.858260869565217 0.1666666666666667 0  2.874782608695652 0.1666666666666667 0  2.891304347826087 0.1666666666666667 0  2.907826086956522 0.1666666666666667 0  2.924347826086957 0.1666666666666667 0  2.940869565217391 0.1666666666666667 0  2.957391304347826 0.1666666666666667 0  2.973913043478261 0.1666666666666667 0  2.990434782608696 0.1666666666666667 0  3.006956521739131 0.1666666666666667 0  3.023478260869565 0.1666666666666667 0  3.04 0.1666666666666667 0  3.056521739130435 0.1666666666666667 0  2.759130434782609 0.1833333333333333 0  2.775652173913044 0.1833333333333333 0  2.792173913043478 0.1833333333333333 0  2.808695652173913 0.1833333333333333 0  2.825217391304347 0.1833333333333333 0  2.841739130434783 0.1833333333333333 0  2.858260869565217 0.1833333333333333 0  2.874782608695652 0.1833333333333333 0  2.891304347826087 0.1833333333333333 0  2.907826086956522 0.1833333333333333 0  2.924347826086957 0.1833333333333333 0  2.940869565217391 0.1833333333333333 0  2.957391304347826 0.1833333333333333 0  2.973913043478261 0.1833333333333333 0  2.990434782608696 0.1833333333333333 0  3.006956521739131 0.1833333333333333 0  3.023478260869565 0.1833333333333333 0  3.04 0.1833333333333333 0  3.056521739130435 0.1833333333333333 0  3.073043478260869 0.1833333333333333 0  2.775652173913044 0.2 0  2.792173913043478 0.2 0  2.808695652173913 0.2 0  2.825217391304347 0.2 0  2.841739130434783 0.2 0  2.858260869565217 0.2 0  2.874782608695652 0.2 0  2.891304347826087 0.2 0  2.907826086956522 0.2 0  2.924347826086957 0.2 0  2.940869565217391 0.2 0  2.957391304347826 0.2 0  2.973913043478261 0.2 0  2.990434782608696 0.2 0  3.006956521739131 0.2 0  3.023478260869565 0.2 0  3.04 0.2 0  3.056521739130435 0.
[...]
<PointData  Vectors="Displacement"> 
<DataArray  type="Float64"  Name="Displacement"  NumberOfComponents="3" format="ascii">3.4553422855533692e-04 4.1670385305723080e-03 0.0000000000000000e+00  3.4669350717556323e-04 4.2153927850236989e-03 0.0000000000000000e+00  2.9816250680689011e-04 4.2149385678701308e-03 0.0000000000000000e+00  2.9664689284562785e-04 4.1665820602863283e-03 0.0000000000000000e+00  3.4781607027884772e-04 4.2633627527437481e-03 0.0000000000000000e+00  2.9970220147703666e-04 4.2629107122991068e-03 0.0000000000000000e+00  3.4890227557661112e-04 4.3108892796481293e-03 0.0000000000000000e+00  3.0126537154922015e-04 4.3104392354210812e-03 0.0000000000000000e+00  3.4995216405658115e-04 4.3579139137174486e-03 0.0000000000000000e+00  3.0285204149571289e-04 4.3574656519734722e-03 0.0000000000000000e+00  3.5096539586087469e-04 4.4043775609516039e-03 0.0000000000000000e+00  3.0446298323305435e-04 4.4039309182064756e-03 0.0000000000000000e+00  3.5194136155869155e-04 4.4502192036479701e-03 0.0000000000000000e+00  3.0609952339959336e-04 4.4497740799634613e-03 0.0000000000000000e+00  3.5287936095033858e-04 4.4953753579295977e-03 0.0000000000000000e+00  3.0776316290043941e-04 4.4949317234527966e-03 0.0000000000000000e+00  3.5377876443412035e-04 4.5397801457758543e-03 0.0000000000000000e+00  3.0945523769396080e-04 4.5393380460135510e-03 0.0000000000000000e+00  3.5463913056926045e-04 4.5833657914824332e-03 0.0000000000000000e+00  3.1117666652686623e-04 4.5829253678945281e-03 0.0000000000000000e+00  3.5546030758098910e-04 4.6260633771089063e-03 0.0000000000000000e+00  3.1292775071946788e-04 4.6256248860220778e-03 0.0000000000000000e+00  3.5624254597291466e-04 4.6678039035947172e-03 0.0000000000000000e+00  3.1470796880021530e-04 4.6673677091228277e-03 0.0000000000000000e+00  3.5698663010009271e-04 4.7085198002459784e-03 0.0000000000000000e+00  3.1651578015717705e-04 4.7080862670327199e-03 0.0000000000000000e+00  3.5769389926655420e-04 4.7481469820298758e-03 0.0000000000000000e+00  3.1834861176354291e-04 4.7477162898412724e-03 0.0000000000000000e+00  3.5836594255792470e-04 4.7866266859227782e-03 0.0000000000000000e+00  3.2020335902795637e-04 4.7861987630983868e-03 0.0000000000000000e+00  3.5900405627256165e-04 4.8239055286368486e-03 0.0000000000000000e+00  3.2207736617524473e-04 4.8234801718796613e-03 0.0000000000000000e+00  3.5960887976811673e-04 4.8599334580346184e-03 0.0000000000000000e+00  3.2396922529293254e-04 4.8595104437811482e-03 0.0000000000000000e+00  3.6018037111163338e-04 4.8946611337979057e-03 0.0000000000000000e+00  3.2587890277699735e-04 4.8942402631929390e-03 0.0000000000000000e+00  3.6071798297053465e-04 4.9280379227342698e-03 0.0000000000000000e+00  3.2780739358795520e-04 4.9276190392028227e-03 0.0000000000000000e+00  3.6122089643465458e-04 4.9600107711584261e-03 0.0000000000000000e+00  3.2975625365584308e-04 4.9595937359743266e-03 0.0000000000000000e+00  3.6168822412236220e-04 4.9905239001961218e-03 0.0000000000000000e+00  3.3172724081152245e-04 4.9901085046754170e-03 0.0000000000000000e+00  3.6211912333436507e-04 5.0195190257523526e-03 0.0000000000000000e+00  3.3372226615998723e-04 5.0191048125462386e-03 0.0000000000000000e+00  3.6251270344354539e-04 5.0469357121338048e-03 0.0000000000000000e+00  3.3574375614777243e-04 5.0465217112458357e-03 0.0000000000000000e+00  3.6286742723589522e-04 5.0727112187074087e-03 0.0000000000000000e+00  3.3779544160148455e-04 5.0722957876950994e-03 0.0000000000000000e+00  3.6317937417654363e-04 5.0967768638726053e-03 0.0000000000000000e+00  3.3988402616856253e-04 5.0963592148266686e-03 0.0000000000000000e+00  2.4944304333946273e-04 4.2144259298892168e-03 0.0000000000000000e+00  2.5138127017295927e-04 4.2623879428644639e-03 0.0000000000000000e+00  2.5339956600972690e-04 4.3099064223469929e-03 0.0000000000000000e+00  2.5549537684007553e-04 4.3569228323379729e-03 0.0000000000000000e+00  2.5767021777150546e-04 4.4033780611813086e-03 0.0000000000000000e+00  2.5992967823346543e-04 4.4492110900908599e-03 0.0000000000000000e+00  2.6228004148189701e-04 4.4943584418562828e-03 0.0000000000000000e+00  2.6472693482572552e-04 4.5387542675908391e-03 0.0000000000000000e+00  2.6727472171500364e-04 4.5823308479492272e-03 0.0000000000000000e+00  2.6992662347629975e-04 4.6250193326846266e-03 0.0000000000000000e+00  2.7268430284918392e-04 4.6667507765374861e-03 0.0000000000000000e+00  2.7554664531326479e-04 4.7074576099904652e-03 0.0000000000000000e+00  2.7850650570769011e-04 4.7470757456303542e-03 0.0000000000000000e+00  2.8154922711772895e-04 4.7855465457805361e-03 0.0000000000000000e+00  2.8465902867088895e-04 4.8228168083822263e-03 0.0000000000000000e+00  2.8782790484282593e-04 4.8588365032384839e-03 0.0000000000000000e+00  2.9105619523117534e-04 4.8935561608049443e-03 0.0000000000000000e+00  2.9434881381257846e-04 4.9269249887971232e-03 0.0000000000000000e+00  2.9771235071061501e-04 4.9588897952402818e-03 0.0000000000000000e+00  3.0115278695474828e-04 4.9893946569354161e-03 0.0000000000000000e+00  3.0467398980896471e-04 5.0183810716659082e-03 0.0000000000000000e+00  3.0827594257456652e-04 5.0457883341130444e-03 0.0000000000000000e+00  3.1195202187271387e-04 5.0715537400360796e-03 0.0000000000000000e+00  3.1569367399788921e-04 5.0956103606392203e-03 0.0000000000000000e+00  2.4425435744751143e-04 4.2545848318539707e-03 0.0000000000000000e+00  2.4632631564882327e-04 4.3024254068575662e-03 0.0000000000000000e+00  2.4844015766365909e-04 4.3497643271001646e-03 0.0000000000000000e+00  2.5059685305563330e-04 4.3965362967775170e-03 0.0000000000000000e+00  2.5279994890370209e-04 4.4426745827034477e-03 0.0000000000000000e+00  2.5505477684549543e-04 4.4881112067499803e-03 0.0000000000000000e+00  2.5736753049156012e-04 4.5327768193312249e-03 0.0000000000000000e+00  2.5974457386633299e-04 4.5766010462797626e-03 0.0000000000000000e+00  2.6219188504051272e-04 4.6195131841684361e-03 0.0000000000000000e+00  2.6471442153184739e-04 4.6614433740384499e-03 0.0000000000000000e+00  2.6731532543686041e-04 4.7023240935752395e-03 0.0000000000000000e+00  2.6999520707467694e-04 4.7420918206520397e-03 0.0000000000000000e+00  2.7275236570513633e-04 4.7806875798105941e-03 0.0000000000000000e+00  2.7558468117513626e-04 4.8180555167002476e-03 0.0000000000000000e+00  2.7849213618217250e-04 4.8541412759140192e-03 0.0000000000000000e+00  2.8147795524832166e-04 4.8888916798439184e-03 0.0000000000000000e+00  2.8454806522291363e-04 4.9222542429619362e-03 0.0000000000000000e+00  2.8770994665253883e-04 4.9541763405897988e-03 0.0000000000000000e+00  2.9097147089349494e-04 4.9846050279776562e-03 0.0000000000000000e+00  2.9433979234372667e-04 5.0134875484040995e-03 0.0000000000000000e+00  2.9782028409931251e-04 5.0407720869607014e-03 0.0000000000000000e+00  3.0141557679491324e-04 5.0664079757558661e-03 0.0000000000000000e+00  3.0512904803574282e-04 5.0903369003664906e-03 0.0000000000000000e+00  3.0896982921800446e-04 5.1124817752647347e-03 0.0000000000000000e+00  2.3843529274518912e-04 4.2950908181878297e-03 0.0000000000000000e+00  2.4056878055444644e-04 4.3427973282610796e-03 0.0000000000000000e+00  2.4271271800284209e-04 4.3899319188747477e-03 0.0000000000000000e+00  2.4487027195276814e-04 4.4364224527666200e-03 0.0000000000000000e+00  2.4704676985444355e-04 4.4821958236670664e-03 0.0000000000000000e+00  2.4924930896905693e-04 4.5271781931455809e-03 0.0000000000000000e+00  2.5148623252533095e-04 4.5712954591630240e-03 0.0000000000000000e+00  2.5376655598464401e-04 4.6144740538510672e-03 0.0000000000000000e+00  2.5609934009842699e-04 4.6566420971809411e-03 0.0000000000000000e+00  2.5849307705783943e-04 4.6977307103870944e-03 0.0000000000000000e+00  2.6095525949056673e-04 4.7376751352237621e-03 0.0000000000000000e+00  2.6349238533242102e-04 4.7764148444799570e-03 0.0000000000000000e+00  2.6611040058265278e-04 4.8138923476421678e-03 0.0000000000000000e+00  2.6881526879053361e-04 4.8500519029713593e-03 0.0000000000000000e+00  2.7161343235275725e-04 4.8848391687882717e-03 0.0000000000000000e+00  2.7451204838091861e-04 4.9182011825919013e-03 0.0000000000000000e+00  2.7751891841387943e-04 4.9500860956204979e-03 0.0000000000000000e+00  2.8064191915761117e-04 4.9804435753092961e-03 0.0000000000000000e+00  2.8388778601253276e-04 5.0092263094629729e-03 0.0000000000000000e+00  2.8726020745529314e-04 5.0363920912930831e-03 0.0000000000000000e+00  2.9075567852442362e-04 5.0619066978015350e-03 0.0000000000000000e+00  2.9436337090561852e-04 5.0857298974224313e-03 0.0000000000000000e+00  2.9805861029047812e-04 5.1078170240280024e-03 0.0000000000000000e+00  2.3188951352969722e-04 4.3360211488689708e-03 0.0000000000000000e+00  2.3402617664844413e-04 4.3835633328117331e-03 0.0000000000000000e+00  2.3614809801169684e-04 4.4304513441795279e-03 0.0000000000000000e+00  2.3826120358280437e-04 4.4766065055704008e-03 0.0000000000000000e+00  2.4037389310387959e-04 4.5219497151134241e-03 0.0000000000000000e+00  2.4249673758427141e-04 4.5664021589860325e-03 0.0000000000000000e+00  2.4464202728523271e-04 4.6098862889505880e-03 0.0000000000000000e+00  2.4682319402347249e-04 4.6523270461456840e-03 0.0000000000000000e+00  2.4905415202028776e-04 4.6936531244638688e-03 0.0000000000000000e+00  2.5134862422686961e-04 4.7337979094732377e-03 0.0000000000000000e+00  2.5371954301337099e-04 4.7726995338398179e-03 0.0000000000000000e+00  2.5617855537282680e-04 4.8102999013353125e-03 0.0000000000000000e+00  2.5873569521776520e-04 4.8465433833708464e-03 0.0000000000000000e+00  2.6139944452121313e-04 4.8813760101713444e-03 0.0000000000000000e+00  2.6417720486564007e-04 4.9147454301152714e-03 0.0000000000000000e+00  2.6707603636704115e-04 4.9466009160345752e-03 0.0000000000000000e+00  2.7010254394749770e-04 4.9768947922427314e-03 0.0000000000000000e+00  2.7326084484378488e-04 5.0055855333582316e-03 0.0000000000000000e+00  2.7654929408920927e-04 5.0326418649558179e-03 0.0000000000000000e+00  2.7995344538230113e-04 5.0580525572100233e-03 0.0000000000000000e+00  2.8345067845245045e-04 5.0817987288763926e-03 0.0000000000000000e+00  2.8700125609855160e-04 5.1038728042652401e-03 0.0000000000000000e+00  2.9050943835991693e-04 5.1243220779863628e-03 0.0000000000000000e+00  2.2453402300229988e-04 4.3774293240841063e-03 0.0000000000000000e+00  2.2662873036249912e-04 4.4247590786739123e-03 0.0000000000000000e+00  2.2869097208001840e-04 4.4713397122308060e-03 0.0000000000000000e+00  2.3073072212388655e-04 4.5170860840295498e-03 0.0000000000000000e+00  2.3276100938380285e-04 4.5619136800828380e-03 0.0000000000000000e+00  2.3479760990273611e-04 4.6057398418869744e-03 0.0000000000000000e+00  2.3685851908765741e-04 4.6484852108541821e-03 0.0000000000000000e+00  2.3896317623732806e-04 4.6900751871263285e-03 0.0000000000000000e+00  2.4113140721838814e-04 4.7304410519727917e-03 0.0000000000000000e+00  2.4338212240866862e-04 4.7695202081046544e-03 0.0000000000000000e+00  2.4573191551978228e-04 4.8072552702972957e-03 0.0000000000000000e+00  2.4819389978974956e-04 4.8435923341150419e-03 0.0000000000000000e+00  2.5077728621250984e-04 4.8784792393819715e-03 0.0000000000000000e+00  2.5348799120811948e-04 4.9118650636165136e-03 0.0000000000000000e+00  2.5633093889828375e-04 4.9436997554777864e-03 0.0000000000000000e+00  2.5931146272838461e-04 4.9739375422689722e-03 0.0000000000000000e+00  2.6243203692754403e-04 5.0025434323836670e-03 0.0000000000000000e+00  2.6568432521160528e-04 5.0294985158539423e-03 0.0000000000000000e+00  2.6903568180879149e-04 5.0548214939738932e-03 0.0000000000000000e+00  2.7245835934627940e-04 5.0785045659560808e-03 0.0000000000000000e+00  2.7591969531952137e-04 5.1005733548995348e-03 0.0000000000000000e+00  2.7930162051427243e-04 5.1211884797348695e-03 0.0000000000000000e+00  2.1629646340825238e-04 4.4193450418568087e-03 0.0000000000000000e+00  2.1831779161559479e-04 4.4663943192148172e-03 0.0000000000000000e+00  2.2029810087987673e-04 4.5125854078579058e-03 0.0000000000000000e+00  2.2225302988271737e-04 4.5578270203812778e-03 0.0000000000000000e+00  2.2420203172141681e-04 4.6020301681870164e-03 0.0000000000000000e+00  2.2616791965228991e-04 4.6451099829195753e-03 0.0000000000000000e+00  2.2817599791662030e-04 4.6869876431756803e-03 0.0000000000000000e+00  2.3025262117510448e-04 4.7275920710766169e-03 0.0000000000000000e+00  2.3242316631611094e-04 4.7668606456943378e-03 0.0000000000000000e+00  2.3470963693505181e-04 4.8047383469581777e-03 0.0000000000000000e+00  2.3712841540798400e-04 4.8411752629137694e-03 0.0000000000000000e+00  2.3968885147563913e-04 4.8761233027499384e-03 0.0000000000000000e+00  2.4239312827126897e-04 4.9095342738338108e-03 0.0000000000000000e+00  2.4524114547298819e-04 4.9413564955891167e-03 0.0000000000000000e+00  2.4823727191178096e-04 4.9715419518757730e-03 0.0000000000000000e+00  2.5138790591623059e-04 5.0000617904255567e-03 0.0000000000000000e+00  2.5468479554615985e-04 5.0269171730761841e-03 0.0000000000000000e+00  2.5805556747707296e-04 5.0521752295462586e-03 0.0000000000000000e+00  2.6145426971681474e-04 5.0757919083271943e-03 0.0000000000000000e+00  2.6489716820247408e-04 5.0978182670072068e-03 0.0000000000000000e+00  2.6822283525992940e-04 5.1186206423635043e-03 0.0000000000000000e+00  2.7141478729269093e-04 5.1379991339251382e-03 0.0000000000000000e+00  2.0711297950604522e-04 4.4617717437836621e-03 0.0000000000000000e+00  2.0904399059463443e-04 4.5084492345815082e-03 0.0000000000000000e+00  2.1093665006863442e-04 4.5541436000074023e-03 0.0000000000000000e+00  2.1281425651157926e-04 4.5987581098585542e-03 0.0000000000000000e+00  2.1470475840601244e-04 4.6422009207981643e-03 0.0000000000000000e+00  2.1663986453824261e-04 4.6843877361202220e-03 0.0000000000000000e+00  2.1865330060914171e-04 4.7252445460210808e-03 0.0000000000000000e+00  2.2077813325794537e-04 4.7647092473828839e-03 0.0000000000000000e+00  2.2304337395171082e-04 4.8027310484867513e-03 0.0000000000000000e+00  2.2547044820346400e-04 4.8392671009193531e-03 0.0000000000000000e+00  2.2807007441926592e-04 4.8742772603836805e-03 0.0000000000000000e+00  2.3083933000388226e-04 4.9077203819450892e-03 0.0000000000000000e+00  2.3376744935622154e-04 4.9395397279798281e-03 0.0000000000000000e+00  2.3685237738003162e-04 4.9696717314717089e-03 0.0000000000000000e+00  2.4011395002644672e-04 4.9980854576868131e-03 0.0000000000000000e+00  2.4356594876633484e-04 5.0248127062628321e-03 0.0000000000000000e+00  2.4709383048132508e-04 5.0500654808940055e-03 0.0000000000000000e+00  2.5054179243024801e-04 5.0736439890387728e-03 0.0000000000000000e+00  2.5394130672670289e-04 5.0955111553669013e-03 0.0000000000000000e+00  2.5719383352795821e-04 5.1166450466532537e-03 0.0000000000000000e+00  2.6012352808149587e-04 5.1361922441001719e-03 0.0000000000000000e+00  1.9876600537810740e-04 4.5508692373824201e-03 0.0000000000000000e+00  2.0058384872537337e-04 4.5959298674079479e-03 0.0000000000000000e+00  2.0241343226013800e-04 4.6397637786127297e-03 0.0000000000000000e+00  2.0429349769748089e-04 4.6822794090298813e-03 0.0000000000000000e+00  2.0626608577608652e-04 4.7233986455826856e-03 0.0000000000000000e+00  2.0837345761818787e-04 4.7630599143230652e-03 0.0000000000000000e+00  2.1065407161981848e-04 4.8012183035655090e-03 0.0000000000000000e+00  2.1313798101832565e-04 4.8378414104020004e-03 0.0000000000000000e+00  2.1584173868892471e-04 4.8729025899847123e-03 0.0000000000000000e+00  2.1875914099440594e-04 4.9063777547423987e-03 0.0000000000000000e+00  2.2186760393448467e-04 4.9382087102693350e-03 0.0000000000000000e+00  2.2513917321849813e-04 4.9682934674955574e-03 0.0000000000000000e+00  2.2859162447649216e-04 4.9965526260811154e-03 0.0000000000000000e+00  2.3232450798766737e-04 5.0230563142902689e-03 0.0000000000000000e+00  2.3615813338197342e-04 5.0483294433050089e-03 0.0000000000000000e+00  2.4003646784676630e-04 5.0721296943614718e-03 0.0000000000000000e+00  2.4323698895955143e-04 5.0937753697614654e-03 0.0000000000000000e+00  2.4557483665998557e-04 5.1152631676089199e-03 0.0000000000000000e+00  2.4842023140013832e-04 5.1360475522795159e-03 0.0000000000000000e+00  2.4744552346401828e-04 5.1547813998778841e-03 0.0000000000000000e+00  1.8745092043207908e-04 4.5935570368127576e-03 0.0000000000000000e+00  1.8922930130085283e-04 4.6378106086455654e-03 0.0000000000000000e+00  1.9106723004508124e-04 4.6806736774651168e-03 0.0000000000000000e+00  1.9301567160943944e-04 4.7220622021986120e-03 0.0000000000000000e+00  1.9512682859655183e-04 4.7619142507903615e-03 0.0000000000000000e+00  1.9745074158872186e-04 4.8001913806497995e-03 0.0000000000000000e+00  2.0003125877751042e-04 4.8368741378178497e-03 0.0000000000000000e+00  2.0289894465070263e-04 4.8719545584532268e-03 0.0000000000000000e+00  2.0605220545536238e-04 4.9054440973012462e-03 0.0000000000000000e+00  2.0946433598145693e-04 4.9372893186317183e-03 0.0000000000000000e+00  2.1310311381973751e-04 4.9673704151023540e-03 0.0000000000000000e+00  2.1686723064766894e-04 4.9954504962097098e-03 0.0000000000000000e+00  2.2090933988820949e-04 5.0214597657461868e-03 0.0000000000000000e+00  2.2523621573357924e-04 5.0468243257845297e-03 0.0000000000000000e+00  2.2961731852538653e-04 5.0704548172506737e-03 0.0000000000000000e+00  2.3505603956707158e-04 5.0938490998221203e-03 0.0000000000000000e+00  2.3235851104144684e-04 5.1156554201744224e-03 0.0000000000000000e+00  2.3151813837806514e-04 5.1357117145656404e-03 0.0000000000000000e+00  2.3097342738244995e-04 5.1544958543258221e-03 0.0000000000000000e+00  2.3061615062655333e-04 5.1721853102443018e-03 0.0000000000000000e+00  1.7507800396512679e-04 4.6363597669846993e-03 0.0000000000000000e+00  1.7688275763892765e-04 4.6795884777722039e-03 0.0000000000000000e+00  1.7882010236606536e-04 4.7212512936358258e-03 0.0000000000000000e+00  1.8095020176999674e-04 4.7612843726088311e-03 0.0000000000000000e+00  1.8333326364670545e-04 4.7996540845862325e-03 0.0000000000000000e+00  1.8603117610742321e-04 4.8363526018498438e-03 0.0000000000000000e+00  1.8910189543360509e-04 4.8713943815915052e-03 0.0000000000000000e+00  1.9255179446556200e-04 4.9048514674401508e-03 0.0000000000000000e+00  1.9638255139842030e-04 4.9366894194593945e-03 0.0000000000000000e+00  2.0055811761827757e-04 4.9667462984756836e-03 0.0000000000000000e+00  2.0509753415761466e-04 4.9949580788932078e-03 0.0000000000000000e+00  2.0911488444252138e-04 5.0203482709615613e-03 0.0000000000000000e+00  2.1234166635480679e-04 5.0457221122980032e-03 0.0000000000000000e+00  2.1679074630124464e-04 5.0710668348346007e-03 0.0000000000000000e+00  2.1514870036463716e-04 5.0938266007313866e-03 0.0000000000000000e+00  2.1448078169101437e-04 5.1151005913268625e-03 0.0000000000000000e+00  2.1376916051539513e-04 5.1354480384594925e-03 0.0000000000000000e+00  2.1341621836696171e-04 5.1543409510539165e-03 0.0000000000000000e+00  2.1335111828629636e-04 5.1722160928971651e-03 0.0000000000000000e+00  2.1343391886442030e-04 5.1890305255660150e-03 0.0000000000000000e+00  1.6165140023649332e-04 4.6790472459269433e-03 0.0000000000000000e+00  1.6359166030585233e-04 4.7209877362722110e-03 0.0000000000000000e+00  1.6575739601748122e-04 4.7611933153419352e-03 0.0000000000000000e+00  1.6820566703397113e-04 4.7996294505470065e-03 0.0000000000000000e+00  1.7101452715857427e-04 4.8362890242004668e-03 0.0000000000000000e+00  1.7428634589115047e-04 4.8711992883593187e-03 0.0000000000000000e+00  1.7805537760784472e-04 4.9045618566948244e-03 0.0000000000000000e+00  1.8233170277025387e-04 4.9362715453154628e-03 0.0000000000000000e+00  1.8735616471509111e-04 4.9662574367995349e-03 0.0000000000000000e+00  1.9283082658814982e-04 4.9940456895968032e-03 0.0000000000000000e+00  2.0019270770672999e-04 5.0213844731209949e-03 0.0000000000000000e+00  1.9705779511581617e-04 5.0469071870770108e-03 0.0000000000000000e+00  1.9581731947464432e-04 5.0709206510619062e-03 0.0000000000000000e+00  1.9519782847996127e-04 5.0935281461822737e-03 0.0000000000000000e+00  1.9474735954586348e-04 5.1149313461827401e-03 0.0000000000000000e+