<?xml version="1.0"?>
<VTKFile type="UnstructuredGrid"  version="0.1"  >
<UnstructuredGrid>
<Piece  NumberOfPoints="621" NumberOfCells="1125">
<Points>
<DataArray  type="Float64"  NumberOfComponents="3"  format="ascii">1.883478260869565 0 0  1.9 0 0  1.9 0.01666666666666667 0  1.883478260869565 0.01666666666666667 0  1.916521739130435 0 0  1.916521739130435 0.01666666666666667 0  1.933043478260869 0 0  1.933043478260869 0.01666666666666667 0  1.949565217391304 0 0  1.949565217391304 0.01666666666666667 0  1.966086956521739 0 0  1.966086956521739 0.01666666666666667 0  1.982608695652174 0 0  1.982608695652174 0.01666666666666667 0  1.999130434782608 0 0  1.999130434782608 0.01666666666666667 0  2.015652173913043 0 0  2.015652173913043 0.01666666666666667 0  2.032173913043478 0 0  2.032173913043478 0.01666666666666667 0  2.048695652173913 0 0  2.048695652173913 0.01666666666666667 0  2.065217391304348 0 0  2.065217391304348 0.01666666666666667 0  2.081739130434782 0 0  2.081739130434782 0.01666666666666667 0  2.098260869565217 0 0  2.098260869565217 0.01666666666666667 0  2.114782608695652 0 0  2.114782608695652 0.01666666666666667 0  2.131304347826087 0 0  2.131304347826087 0.01666666666666667 0  2.147826086956522 0 0  2.147826086956522 0.01666666666666667 0  2.164347826086956 0 0  2.164347826086956 0.01666666666666667 0  2.180869565217391 0 0  2.180869565217391 0.01666666666666667 0  2.197391304347826 0 0  2.197391304347826 0.01666666666666667 0  2.213913043478261 0 0  2.213913043478261 0.01666666666666667 0  2.230434782608695 0 0  2.230434782608695 0.01666666666666667 0  2.24695652173913 0 0  2.24695652173913 0.01666666666666667 0  2.263478260869565 0 0  2.263478260869565 0.01666666666666667 0  2.28 0 0  2.28 0.01666666666666667 0  2.296521739130434 0 0  2.296521739130434 0.01666666666666667 0  2.31304347826087 0 0  2.31304347826087 0.01666666666666667 0  2.329565217391304 0 0  2.329565217391304 0.01666666666666667 0  2.346086956521739 0 0  2.346086956521739 0.01666666666666667 0  2.362608695652174 0 0  2.362608695652174 0.01666666666666667 0  2.379130434782609 0 0  2.379130434782609 0.01666666666666667 0  2.395652173913044 0 0  2.395652173913044 0.01666666666666667 0  2.412173913043478 0 0  2.412173913043478 0.01666666666666667 0  2.428695652173913 0 0  2.428695652173913 0.01666666666666667 0  2.445217391304348 0 0  2.445217391304348 0.01666666666666667 0  2.461739130434782 0 0  2.461739130434782 0.01666666666666667 0  2.478260869565217 0 0  2.478260869565217 0.01666666666666667 0  2.494782608695652 0 0  2.494782608695652 0.01666666666666667 0  2.511304347826087 0 0  2.511304347826087 0.01666666666666667 0  2.527826086956522 0 0  2.527826086956522 0.01666666666666667 0  2.544347826086956 0 0  2.544347826086956 0.01666666666666667 0  2.560869565217391 0 0  2.560869565217391 0.01666666666666667 0  2.577391304347826 0 0  2.577391304347826 0.01666666666666667 0  1.916521739130435 0.03333333333333333 0  1.933043478260869 0.03333333333333333 0  1.949565217391304 0.03333333333333333 0  1.966086956521739 0.03333333333333333 0  1.982608695652174 0.03333333333333333 0  1.999130434782608 0.03333333333333333 0  2.015652173913043 0.03333333333333333 0  2.032173913043478 0.03333333333333333 0  2.048695652173913 0.03333333333333333 0  2.065217391304348 0.03333333333333333 0  2.081739130434782 0.03333333333333333 0  2.098260869565217 0.03333333333333333 0  2.114782608695652 0.03333333333333333 0  2.131304347826087 0.03333333333333333 0  2.147826086956522 0.03333333333333333 0  2.164347826086956 0.03333333333333333 0  2.180869565217391 0.03333333333333333 0  2.197391304347826 0.03333333333333333 0  2.213913043478261 0.03333333333333333 0  2.230434782608695 0.03333333333333333 0  2.24695652173913 0.03333333333333333 0  2.263478260869565 0.03333333333333333 0  2.28 0.03333333333333333 0  2.296521739130434 0.03333333333333333 0  2.31304347826087 0.03333333333333333 0  2.329565217391304 0.03333333333333333 0  2.346086956521739 0.03333333333333333 0  2.362608695652174 0.03333333333333333 0  2.379130434782609 0.03333333333333333 0  2.395652173913044 0.03333333333333333 0  2.412173913043478 0.03333333333333333 0  2.428695652173913 0.03333333333333333 0  2.445217391304348 0.03333333333333333 0  2.461739130434782 0.03333333333333333 0  2.478260869565217 0.03333333333333333 0  2.494782608695652 0.03333333333333333 0  2.511304347826087 0.03333333333333333 0  2.527826086956522 0.03333333333333333 0  2.544347826086956 0.03333333333333333 0  2.560869565217391 0.03333333333333333 0  2.577391304347826 0.03333333333333333 0  2.593913043478261 0.03333333333333333 0  1.933043478260869 0.05 0  1.949565217391304 0.05 0  1.966086956521739 0.05 0  1.982608695652174 0.05 0  1.999130434782608 0.05 0  2.015652173913043 0.05 0  2.032173913043478 0.05 0  2.048695652173913 0.05 0  2.065217391304348 0.05 0  2.081739130434782 0.05 0  2.098260869565217 0.05 0  2.114782608695652 0.05 0  2.131304347826087 0.05 0  2.147826086956522 0.05 0  2.164347826086956 0.05 0  2.180869565217391 0.05 0  2.197391304347826 0.05 0  2.213913043478261 0.05 0  2.230434782608695 0.05 0  2.24695652173913 0.05 0  2.263478260869565 0.05 0  2.28 0.05 0  2.296521739130434 0.05 0  2.31304347826087 0.05 0  2.329565217391304 0.05 0  2.346086956521739 0.05 0  2.362608695652174 0.05 0  2.379130434782609 0.05 0  2.395652173913044 0.05 0  2.412173913043478 0.05 0  2.428695652173913 0.05 0  2.445217391304348 0.05 0  2.461739130434782 0.05 0  2.478260869565217 0.05 0  2.494782608695652 0.05 0  2.511304347826087 0.05 0  2.527826086956522 0.05 0  2.544347826086956 0.05 0  2.560869565217391 0.05 0  2.577391304347826 0.05 0  2.593913043478261 0.05 0  2.610434782608696 0.05 0  1.949565217391304 0.06666666666666667 0  1.966086956521739 0.06666666666666667 0  1.982608695652174 0.06666666666666667 0  1.999130434782608 0.06666666666666667 0  2.015652173913043 0.06666666666666667 0  2.032173913043478 0.06666666666666667 0  2.048695652173913 0.06666666666666667 0  2.065217391304348 0.06666666666666667 0  2.081739130434782 0.06666666666666667 0  2.098260869565217 0.06666666666666667 0  2.114782608695652 0.06666666666666667 0  2.131304347826087 0.06666666666666667 0  2.147826086956522 0.06666666666666667 0  2.164347826086956 0.06666666666666667 0  2.180869565217391 0.06666666666666667 0  2.197391304347826 0.06666666666666667 0  2.213913043478261 0.06666666666666667 0  2.230434782608695 0.06666666666666667 0  2.24695652173913 0.06666666666666667 0  2.263478260869565 0.06666666666666667 0  2.28 0.06666666666666667 0  2.296521739130434 0.06666666666666667 0  2.31304347826087 0.06666666666666667 0  2.329565217391304 0.06666666666666667 0  2.346086956521739 0.06666666666666667 0  2.362608695652174 0.06666666666666667 0  2.379130434782609 0.06666666666666667 0  2.395652173913044 0.06666666666666667 0  2.412173913043478 0.06666666666666667 0  2.428695652173913 0.06666666666666667 0  2.445217391304348 0.06666666666666667 0  2.461739130434782 0.06666666666666667 0  2.478260869565217 0.06666666666666667 0  2.494782608695652 0.06666666666666667 0  2.511304347826087 0.06666666666666667 0  2.527826086956522 0.06666666666666667 0  2.544347826086956 0.06666666666666667 0  2.560869565217391 0.06666666666666667 0  2.577391304347826 0.06666666666666667 0  2.593913043478261 0.06666666666666667 0  2.610434782608696 0.06666666666666667 0  2.62695652173913 0.06666666666666667 0  1.966086956521739 0.08333333333333333 0  1.982608695652174 0.08333333333333333 0  1.999130434782608 0.08333333333333333 0  2.015652173913043 0.08333333333333333 0  2.032173913043478 0.08333333333333333 0  2.048695652173913 0.08333333333333333 0  2.065217391304348 0.08333333333333333 0  2.081739130434782 0.08333333333333333 0  2.098260869565217 0.08333333333333333 0  2.114782608695652 0.08333333333333333 0  2.131304347826087 0.08333333333333333 0  2.147826086956522 0.08333333333333333 0  2.164347826086956 0.08333333333333333 0  2.180869565217391 0.08333333333333333 0  2.197391304347826 0.08333333333333333 0  2.213913043478261 0.08333333333333333 0  2.230434782608695 0.08333333333333333 0  2.24695652173913 0.08333333333333333 0  2.263478260869565 0.08333333333333333 0  2.28 0.08333333333333333 0  2.296521739130434 0.08333333333333333 0  2.31304347826087 0.08333333333333333 0  2.329565217391304 0.08333333333333333 0  2.346086956521739 0.08333333333333333 0  2.362608695652174 0.08333333333333333 0  2.379130434782609 0.08333333333333333 0  2.395652173913044 0.08333333333333333 0  2.412173913043478 0.08333333333333333 0  2.428695652173913 0.08333333333333333 0  2.445217391304348 0.08333333333333333 0  2.461739130434782 0.08333333333333333 0  2.478260869565217 0.08333333333333333 0  2.494782608695652 0.08333333333333333 0  2.511304347826087 0.08333333333333333 0  2.527826086956522 0.08333333333333333 0  2.544347826086956 0.08333333333333333 0  2.560869565217391 0.08333333333333333 0  2.577391304347826 0.08333333333333333 0  2.593913043478261 0.08333333333333333 0  2.610434782608696 0.08333333333333333 0  2.62695652173913 0.08333333333333333 0  2.643478260869565 0.08333333333333333 0  1.982608695652174 0.1 0  1.999130434782608 0.1 0  2.015652173913043 0.1 0  2.032173913043478 0.1 0  2.048695652173913 0.1 0  2.065217391304348 0.1 0  2.081739130434782 0.1 0  2.098260869565217 0.1 0  2.114782608695652 0.1 0  2.131304347826087 0.1 0  2.147826086956522 0.1 0  2.164347826086956 0.1 0  2.180869565217391 0.1 0  2.197391304347826 0.1 0  2.213913043478261 0.1 0  2.230434782608695 0.1 0  2.24695652173913 0.1 0  2.263478260869565 0.1 0  2.28 0.1 0  2.296521739130434 0.1 0  2.31304347826087 0.1 0  2.329565217391304 0.1 0  2.346086956521739 0.1 0  2.362608695652174 0.1 0  2.379130434782609 0.1 0  2.395652173913044 0.1 0  2.412173913043478 0.1 0  2.428695652173913 0.1 0  2.445217391304348 0.1 0  2.461739130434782 0.1 0  2.478260869565217 0.1 0  2.494782608695652 0.1 0  2.511304347826087 0.1 0  2.527826086956522 0.1 0  2.544347826086956 0.1 0  2.560869565217391 0.1 0  2.5773
[...]
<PointData  Vectors="Displacement"> 
<DataArray  type="Float64"  Name="Displacement"  NumberOfComponents="3" format="ascii">3.6210524844006452e-04 3.5849694966714300e-03 0.0000000000000000e+00  3.6054636936877027e-04 3.6235919937547671e-03 0.0000000000000000e+00  3.2277713004859998e-04 3.6237701727207779e-03 0.0000000000000000e+00  3.2118735230971814e-04 3.5850489411766847e-03 0.0000000000000000e+00  3.5910052735756799e-04 3.6594212264874663e-03 0.0000000000000000e+00  3.2371061228417779e-04 3.6596444962359279e-03 0.0000000000000000e+00  3.5786322145234923e-04 3.6931257269061557e-03 0.0000000000000000e+00  3.2421888731694375e-04 3.6933503386106827e-03 0.0000000000000000e+00  3.5694059258298375e-04 3.7252544961836366e-03 0.0000000000000000e+00  3.2449920841356241e-04 3.7254401700618596e-03 0.0000000000000000e+00  3.5646837233356131e-04 3.7562667706382206e-03 0.0000000000000000e+00  3.2473298554326960e-04 3.7563623871410450e-03 0.0000000000000000e+00  3.5662861942534229e-04 3.7865933553019450e-03 0.0000000000000000e+00  3.2511143124802362e-04 3.7865254874761768e-03 0.0000000000000000e+00  3.5756209770825052e-04 3.8168224690184860e-03 0.0000000000000000e+00  3.2575403007674154e-04 3.8165541821274470e-03 0.0000000000000000e+00  3.5919186844173993e-04 3.8477766797492324e-03 0.0000000000000000e+00  3.2654319551758633e-04 3.8473990316194458e-03 0.0000000000000000e+00  3.6134512426603095e-04 3.8800177898162865e-03 0.0000000000000000e+00  3.2729109306579927e-04 3.8796189196100570e-03 0.0000000000000000e+00  3.6394649588693517e-04 3.9141129241311396e-03 0.0000000000000000e+00  3.2778002879231457e-04 3.9136285060336175e-03 0.0000000000000000e+00  3.6687398938867248e-04 3.9508600181127184e-03 0.0000000000000000e+00  3.2806043434057661e-04 3.9503149908505768e-03 0.0000000000000000e+00  3.6993961558708896e-04 3.9909069907363912e-03 0.0000000000000000e+00  3.2809958677446554e-04 3.9902333586468060e-03 0.0000000000000000e+00  3.7376304365882405e-04 4.0350211544648001e-03 0.0000000000000000e+00  3.2796316045393276e-04 4.0337428018191006e-03 0.0000000000000000e+00  3.8182820682110795e-04 4.0918594320034788e-03 0.0000000000000000e+00  3.2326719303447823e-04 4.0895043148661582e-03 0.0000000000000000e+00  3.9056103313117596e-04 4.1659657963721859e-03 0.0000000000000000e+00  3.1484975151049291e-04 4.1634978381167725e-03 0.0000000000000000e+00  3.9748434275589905e-04 4.2529976000337385e-03 0.0000000000000000e+00  3.0902714059516091e-04 4.2510978158550369e-03 0.0000000000000000e+00  4.0247028157022925e-04 4.3473623566830585e-03 0.0000000000000000e+00  3.0679061678937455e-04 4.3460461519396936e-03 0.0000000000000000e+00  4.0638961023616943e-04 4.4460554093329226e-03 0.0000000000000000e+00  3.0637001668955196e-04 4.4450554185202053e-03 0.0000000000000000e+00  4.0982786390313379e-04 4.5478804596101969e-03 0.0000000000000000e+00  3.0660612057360336e-04 4.5470027943302349e-03 0.0000000000000000e+00  4.1305964188306202e-04 4.6524034833114241e-03 0.0000000000000000e+00  3.0709662366773521e-04 4.6515500843852921e-03 0.0000000000000000e+00  4.1622984652683805e-04 4.7594510993542068e-03 0.0000000000000000e+00  3.0775526790499837e-04 4.7585682535881543e-03 0.0000000000000000e+00  4.1943845805748767e-04 4.8689200897814398e-03 0.0000000000000000e+00  3.0860549903938489e-04 4.8679719367234432e-03 0.0000000000000000e+00  4.2277258943322041e-04 4.9806926110141612e-03 0.0000000000000000e+00  3.0973531468970810e-04 4.9796532308432678e-03 0.0000000000000000e+00  4.2630623446694406e-04 5.0945581263788882e-03 0.0000000000000000e+00  3.1129846516861473e-04 5.0934115044718870e-03 0.0000000000000000e+00  4.3006715564952204e-04 5.2101210849214170e-03 0.0000000000000000e+00  3.1349585483132444e-04 5.2088673320568732e-03 0.0000000000000000e+00  4.3400052135311664e-04 5.3267577178465492e-03 0.0000000000000000e+00  3.1648824797369222e-04 5.3254218689570490e-03 0.0000000000000000e+00  4.3797529029702048e-04 5.4436985603220972e-03 0.0000000000000000e+00  3.2027713597257440e-04 5.4423299564246999e-03 0.0000000000000000e+00  4.4183797367318027e-04 5.5602108915378291e-03 0.0000000000000000e+00  3.2466117972983525e-04 5.5588668533012846e-03 0.0000000000000000e+00  4.4547617927629020e-04 5.6757684976838805e-03 0.0000000000000000e+00  3.2931703561997011e-04 5.6744916849028890e-03 0.0000000000000000e+00  4.4884952738429376e-04 5.7901030653464188e-03 0.0000000000000000e+00  3.3395151952291907e-04 5.7889087512033284e-03 0.0000000000000000e+00  4.5197626761985633e-04 5.9031288662964180e-03 0.0000000000000000e+00  3.3841214342738760e-04 5.9020088038008152e-03 0.0000000000000000e+00  4.5490128226154542e-04 6.0148236685516150e-03 0.0000000000000000e+00  3.4269336974579494e-04 6.0137582406863217e-03 0.0000000000000000e+00  4.5767231459982878e-04 6.1251391130813437e-03 0.0000000000000000e+00  3.4687929095652208e-04 6.1241074049405448e-03 0.0000000000000000e+00  4.6032796653012651e-04 6.2339555364415919e-03 0.0000000000000000e+00  3.5108506476380392e-04 6.2329414706838292e-03 0.0000000000000000e+00  4.6289167048692059e-04 6.3410761153144760e-03 0.0000000000000000e+00  3.5541025647109692e-04 6.3400713827937117e-03 0.0000000000000000e+00  4.6537230561070203e-04 6.4462544732688766e-03 0.0000000000000000e+00  3.5990752763407344e-04 6.4452573671175293e-03 0.0000000000000000e+00  4.6777003185655602e-04 6.5492352205530823e-03 0.0000000000000000e+00  3.6457994995053194e-04 6.5482471563845443e-03 0.0000000000000000e+00  4.7008258815242013e-04 6.6497818810164200e-03 0.0000000000000000e+00  3.6940315135141244e-04 6.6488046780852020e-03 0.0000000000000000e+00  4.7230780957439574e-04 6.7476851078006241e-03 0.0000000000000000e+00  3.7434702827921260e-04 6.7467207280847291e-03 0.0000000000000000e+00  4.7444214625527850e-04 6.8427661206916660e-03 0.0000000000000000e+00  3.7937624832842017e-04 6.8418183701638869e-03 0.0000000000000000e+00  4.7647832196665539e-04 6.9348956849942011e-03 0.0000000000000000e+00  3.8443009350209046e-04 6.9339712478925760e-03 0.0000000000000000e+00  4.7840732760881706e-04 7.0240256069166234e-03 0.0000000000000000e+00  3.8941376024441600e-04 7.0231315328934327e-03 0.0000000000000000e+00  2.8938555598992361e-04 3.6593921149718584e-03 0.0000000000000000e+00  2.9113654704620770e-04 3.6932793669535368e-03 0.0000000000000000e+00  2.9219497302440602e-04 3.7254981502831642e-03 0.0000000000000000e+00  2.9279321444198561e-04 3.7564635365459277e-03 0.0000000000000000e+00  2.9322070053359686e-04 3.7864819146058199e-03 0.0000000000000000e+00  2.9370927269892888e-04 3.8162457577891424e-03 0.0000000000000000e+00  2.9407947760777325e-04 3.8470827535443870e-03 0.0000000000000000e+00  2.9408748426090270e-04 3.8793524801989656e-03 0.0000000000000000e+00  2.9376797878089624e-04 3.9133195912381133e-03 0.0000000000000000e+00  2.9276736119922215e-04 3.9497152304734835e-03 0.0000000000000000e+00  2.8926541803286302e-04 3.9899899747197851e-03 0.0000000000000000e+00  2.8754349404404658e-04 4.0311733301357381e-03 0.0000000000000000e+00  2.8418130296492062e-04 4.0865665092085458e-03 0.0000000000000000e+00  2.7955158340969339e-04 4.1562270317750108e-03 0.0000000000000000e+00  2.7609717835674956e-04 4.2367505125568651e-03 0.0000000000000000e+00  2.7496163895540855e-04 4.3249633279847923e-03 0.0000000000000000e+00  2.7577156474842962e-04 4.4186616080017808e-03 0.0000000000000000e+00  2.7781001704802274e-04 4.5164728465868420e-03 0.0000000000000000e+00  2.8059080273700463e-04 4.6176542275350174e-03 0.0000000000000000e+00  2.8387766274309151e-04 4.7217894882493529e-03 0.0000000000000000e+00  2.8757742534579327e-04 4.8286124779347121e-03 0.0000000000000000e+00  2.9167607584536812e-04 4.9379006384643103e-03 0.0000000000000000e+00  2.9622339222824438e-04 5.0493667003937504e-03 0.0000000000000000e+00  3.0130606090187788e-04 5.1626012886760823e-03 0.0000000000000000e+00  3.0699256907465704e-04 5.2770718527219082e-03 0.0000000000000000e+00  3.1327411997595544e-04 5.3921765725523530e-03 0.0000000000000000e+00  3.2004017052388723e-04 5.5073335301361655e-03 0.0000000000000000e+00  3.2710887758626494e-04 5.6220630769967484e-03 0.0000000000000000e+00  3.3429474709757988e-04 5.7360234272003548e-03 0.0000000000000000e+00  3.4147034898963794e-04 5.8489928923233410e-03 0.0000000000000000e+00  3.4858948620043533e-04 5.9608221367331449e-03 0.0000000000000000e+00  3.5567254945508236e-04 6.0713820287757597e-03 0.0000000000000000e+00  3.6277455089149454e-04 6.1805249525466290e-03 0.0000000000000000e+00  3.6995273537589391e-04 6.2880704330703129e-03 0.0000000000000000e+00  3.7724323480651406e-04 6.3938122963732970e-03 0.0000000000000000e+00  3.8465208855362502e-04 6.4975353024964788e-03 0.0000000000000000e+00  3.9215883877615165e-04 6.5990308294729101e-03 0.0000000000000000e+00  3.9972380241633460e-04 6.6981090144880226e-03 0.0000000000000000e+00  4.0729104215474405e-04 6.7946111347810031e-03 0.0000000000000000e+00  4.1478758962296348e-04 6.8884256316817487e-03 0.0000000000000000e+00  4.2212786633007691e-04 6.9795001286894797e-03 0.0000000000000000e+00  4.2922960775416052e-04 7.0678360299283680e-03 0.0000000000000000e+00  2.5976441916402733e-04 3.6932906817647576e-03 0.0000000000000000e+00  2.6103056226178567e-04 3.7257211411429476e-03 0.0000000000000000e+00  2.6163264009780389e-04 3.7568153210192790e-03 0.0000000000000000e+00  2.6191092502892625e-04 3.7865303557605800e-03 0.0000000000000000e+00  2.6233482750149265e-04 3.8156733586207771e-03 0.0000000000000000e+00  2.6255535899185445e-04 3.8464648408330034e-03 0.0000000000000000e+00  2.6242503909083202e-04 3.8789031339355657e-03 0.0000000000000000e+00  2.6127065898281430e-04 3.9130110150067563e-03 0.0000000000000000e+00  2.5922335024580094e-04 3.9425309102556127e-03 0.0000000000000000e+00  2.5810254759718810e-04 3.9808422661596569e-03 0.0000000000000000e+00  2.5639427270011077e-04 4.0237598460417202e-03 0.0000000000000000e+00  2.5335599771637455e-04 4.0777574501764087e-03 0.0000000000000000e+00  2.5039614731394322e-04 4.1433815420294775e-03 0.0000000000000000e+00  2.4873355381679083e-04 4.2185371354836534e-03 0.0000000000000000e+00  2.4894087687239469e-04 4.3012318259270802e-03 0.0000000000000000e+00  2.5097102512325082e-04 4.3899625574713285e-03 0.0000000000000000e+00  2.5446541950181225e-04 4.4835721498142278e-03 0.0000000000000000e+00  2.5903488879869979e-04 4.5812349419061356e-03 0.0000000000000000e+00  2.6438969575151285e-04 4.6823846649147764e-03 0.0000000000000000e+00  2.7035118158108421e-04 4.7866136223489219e-03 0.0000000000000000e+00  2.7683100338308641e-04 4.8935769003416287e-03 0.0000000000000000e+00  2.8380711083872271e-04 5.0029063637481363e-03 0.0000000000000000e+00  2.9129166102052353e-04 5.1141673461114808e-03 0.0000000000000000e+00  2.9929375400623013e-04 5.2268592605134116e-03 0.0000000000000000e+00  3.0778689954392714e-04 5.3404501492553954e-03 0.0000000000000000e+00  3.1669517056978657e-04 5.4544280301603854e-03 0.0000000000000000e+00  3.2590539003387139e-04 5.5683462560290903e-03 0.0000000000000000e+00  3.3529814691149099e-04 5.6818450246590583e-03 0.0000000000000000e+00  3.4477972866099355e-04 5.7946466817901630e-03 0.0000000000000000e+00  3.5429942118703081e-04 5.9065341542420026e-03 0.0000000000000000e+00  3.6384803427506814e-04 6.0173228255637132e-03 0.0000000000000000e+00  3.7344303583397879e-04 6.1268354455897827e-03 0.0000000000000000e+00  3.8310898400977395e-04 6.2348884502157103e-03 0.0000000000000000e+00  3.9286096382712470e-04 6.3412907833549888e-03 0.0000000000000000e+00  4.0269516357396574e-04 6.4458499276480834e-03 0.0000000000000000e+00  4.1258641296261430e-04 6.5483801320945813e-03 0.0000000000000000e+00  4.2248967678648933e-04 6.6487114505821140e-03 0.0000000000000000e+00  4.3234278719176582e-04 6.7467001403883784e-03 0.0000000000000000e+00  4.4207045843241321e-04 6.8422393455580743e-03 0.0000000000000000e+00  4.5159173414668793e-04 6.9352641880685755e-03 0.0000000000000000e+00  4.6083111195426203e-04 7.0257453352054961e-03 0.0000000000000000e+00  4.6972968737068056e-04 7.1136743242808552e-03 0.0000000000000000e+00  2.3136693744109645e-04 3.7263397825772269e-03 0.0000000000000000e+00  2.3194040293630835e-04 3.7577350788425179e-03 0.0000000000000000e+00  2.3192321812597774e-04 3.7868371622781908e-03 0.0000000000000000e+00  2.3230742835611358e-04 3.8145212930387599e-03 0.0000000000000000e+00  2.3264537650104339e-04 3.8452052487714327e-03 0.0000000000000000e+00  2.3261142047747223e-04 3.8772170596301655e-03 0.0000000000000000e+00  2.3141769898396745e-04 3.9024958845195554e-03 0.0000000000000000e+00  2.3151971370717034e-04 3.9326307851331394e-03 0.0000000000000000e+00  2.3060715050128670e-04 3.9691738386346013e-03 0.0000000000000000e+00  2.2935135554758444e-04 4.0121742217589882e-03 0.0000000000000000e+00  2.2747685361886358e-04 4.0643714862173682e-03 0.0000000000000000e+00  2.2602185948782769e-04 4.1262132037774525e-03 0.0000000000000000e+00  2.2588998705125763e-04 4.1966942705634934e-03 0.0000000000000000e+00  2.2746392028852839e-04 4.2745692646980679e-03 0.0000000000000000e+00  2.3075499688625557e-04 4.3587496898608450e-03 0.0000000000000000e+00  2.3556511596580109e-04 4.4483056372147571e-03 0.0000000000000000e+00  2.4161251049449755e-04 4.5424696320246170e-03 0.0000000000000000e+00  2.4862902632566701e-04 4.6406269067432518e-03 0.0000000000000000e+00  2.5640792573180876e-04 4.7422781311283659e-03 0.0000000000000000e+00  2.6481334644868569e-04 4.8469839519156210e-03 0.0000000000000000e+00  2.7376874173584264e-04 4.9543087133356051e-03 0.0000000000000000e+00  2.8323350422666203e-04 5.0637887712016542e-03 0.0000000000000000e+00  2.9317704001684833e-04 5.1749303051580398e-03 0.0000000000000000e+00  3.0355802968352365e-04 5.2872299032047680e-03 0.0000000000000000e+00  3.1431501705698350e-04 5.4002053783519582e-03 0.0000000000000000e+00  3.2537055913391453e-04 5.5134229514951635e-03 0.0000000000000000e+00  3.3664509141544135e-04 5.6265114147363120e-03 0.0000000000000000e+00  3.4807239626900020e-04 5.7391620496877599e-03 0.0000000000000000e+00  3.5960929852758502e-04 5.8511183971289614e-03 0.0000000000000000e+00  3.7123643960200974e-04 5.9621606589799602e-03 0.0000000000000000e+00  3.8295115258995372e-04 6.0720898634746071e-03 0.0000000000000000e+00  3.9475613756301183e-04 6.1807168536013417e-03 0.0000000000000000e+00  4.0664842595419088e-04 6.2878578716228980e-03 0.0000000000000000e+00  4.1861169616941757e-04 6.3933350922612256e-03 0.0000000000000000e+00  4.3061265195608615e-04 6.4969799763559535e-03 0.0000000000000000e+00  4.4260067906766898e-04 6.5986385189397926e-03 0.0000000000000000e+00  4.5450995431820711e-04 6.6981778098686813e-03 0.0000000000000000e+00  4.6626392199264018e-04 6.7954920100584803e-03 0.0000000000000000e+00  4.7778225701362300e-04 6.8905038952778433e-03 0.0000000000000000e+00  4.8898922357401954e-04 6.9831592258062470e-03 0.0000000000000000e+00  4.9982107820397391e-04 7.0734160446164476e-03 0.0000000000000000e+00  5.1023070905750572e-04 7.1612324322162663e-03 0.0000000000000000e+00  2.0460074849198593e-04 3.7594451346568297e-03 0.0000000000000000e+00  2.0471080195304906e-04 3.7877712781718511e-03 0.0000000000000000e+00  2.0496138853312557e-04 3.8120787243813886e-03 0.0000000000000000e+00  2.0567863281370307e-04 3.8410080666134877e-03 0.0000000000000000e+00  2.0602342845042502e-04 3.8646680689966872e-03 0.0000000000000000e+00  2.0727742722601649e-04 3.8903196185315686e-03 0.0000000000000000e+00  2.0743573199505076e-04 3.9196468487845476e-03 0.0000000000000000e+00  2.0705484768472301e-04 3.9550378670881615e-03 0.0000000000000000e+00  2.0638451616648094e-04 3.9969096875748910e-03 0.0000000000000000e+00  2.0567840109249628e-04 4.0468302298962951e-03 0.0000000000000000e+00  2.0564587883833459e-04 4.1051239198093437e-03 0.0000000000000000e+00  2.0691826587150615e-04 4.1713798009285433e-03 0.0000000000000000e+00  2.0979673644513192e-04 4.2448870411351302e-03 0.0000000000000000e+00  2.1431535590974387e-04 4.3248724803332719e-03 0.0000000000000000e+00  2.2034447837723247e-04 4.4105984141653495e-03 0.0000000000000000e+00  2.2766938065900367e-04 4.5013871883760204e-03 0.0000000000000000e+00  2.3605759943890237e-04 4.5966281163120834e-03 0.0000000000000000e+00  2.4530502929328803e-04 4.6957735122996709e-03 0.0000000000000000e+00  2.5525544126955065e-04 4.7983194317785111e-03 0.0000000000000000e+00  2.6579957425032513e-04 4.9037763860947069e-03 0.0000000000000000e+00  2.7686247957305803e-04 5.0116491453320389e-03 0.0000000000000000e+00  2.8838748899439692e-04 5.1214340168899081e-03 0.0000000000000000e+00  3.0032282345830643e-04 5.2326312895124329e-03 0.0000000000000000e+00  3.1261445355210588e-04 5.3447648864384922e-03 0.0000000000000000e+00  3.2520604900803339e-04 5.4574003342664342e-03 0.0000000000000000e+00  3.3804393438521048e-04 5.5701551949846519e-03 0.0000000000000000e+00  3.5108322818751985e-04 5.6827008045403351e-03 0.0000000000000000e+00  3.6429169246819979e-04 5.7947571521178463e-03 0.0000000000000000e+00  3.7764950671414593e-04 5.9060834673047586e-03 0.0000000000000000e+00  3.9114498011371567e-04 6.0164675234088685e-03 0.0000000000000000e+00  4.0476770467791118e-04 6.1257167094173485e-03 0.0000000000000000e+00  4.1850143788324534e-04 6.2336524267045867e-03 0.0000000000000000e+00  4.3231861564155613e-04 6.3401076578205526e-03 0.0000000000000000e+00  4.4617732736628606e-04 6.4449269995567578e-03 0.0000000000000000e+00  4.6002077835964773e-04 6.5479685925470118e-03 0.0000000000000000e+00  4.7377906602669287e-04 6.6491071449459776e-03 0.0000000000000000e+00  4.8737314049252943e-04 6.7482363871014120e-03 0.0000000000000000e+00  5.0072054345965951e-04 6.8452685770354254e-03 0.0000000000000000e+00  5.1374177576717246e-04 6.9401297221715931e-03 0.0000000000000000e+00  5.2636570575580275e-04 7.0327517387969536e-03 0.0000000000000000e+00  5.3853291872193944e-04 7.1230636389699124e-03 0.0000000000000000e+00  5.5019650414936882e-04 7.2109831373124182e-03 0.0000000000000000e+00  1.8302353970976669e-04 3.7900877496894430e-03 0.0000000000000000e+00  1.8310989138856302e-04 3.8092564448481531e-03 0.0000000000000000e+00  1.8450314538076153e-04 3.8269939198192437e-03 0.0000000000000000e+00  1.8615555384266983e-04 3.8514620909046067e-03 0.0000000000000000e+00  1.8696539764798866e-04 3.8759952461446044e-03 0.0000000000000000e+00  1.8734447186183719e-04 3.9044504917915869e-03 0.0000000000000000e+00  1.8734036271088629e-04 3.9382972648189648e-03 0.0000000000000000e+00  1.8731690437543070e-04 3.9783662241770282e-03 0.0000000000000000e+00  1.8762064323580105e-04 4.0256295090561351e-03 0.0000000000000000e+00  1.8881983440706624e-04 4.0804202596418093e-03 0.0000000000000000e+00  1.9135310330763478e-04 4.1427196770559092e-03 0.0000000000000000e+00  1.9543196848518859e-04 4.2121770783412954e-03 0.0000000000000000e+00  2.0108868997789333e-04 4.2882559093565522e-03 0.0000000000000000e+00  2.0822291984931986e-04 4.3703851295046059e-03 0.0000000000000000e+00  2.1665465513243440e-04 4.4579774208847664e-03 0.0000000000000000e+00  2.2617899522003188e-04 4.5504428063816854e-03 0.0000000000000000e+00  2.3660520583340618e-04 4.6472083106617072e-03 0.0000000000000000e+00  2.4777429506642694e-04 4.7477271929035085e-03 0.0000000000000000e+00  2.5956202307047849e-04 4.8514685789002344e-03 0.0000000000000000e+00  2.7187422761090199e-04 4.9579057763230105e-03 0.0000000000000000e+00  2.8463905207389592e-04 5.0665149136735251e-03 0.0000000000000000e+00  2.9779934241306281e-04 5.1767841425334905e-03 0.0000000000000000e+00  3.1130732351241118e-04 5.2882282583302199e-03 0.0000000000000000e+00  3.2512220041727946e-04 5.4004025745769462e-03 0.0000000000000000e+00  3.3920992335248376e-04 5.5129117801506842e-03 0.0000000000000000e+00  3.5354359153774690e-04 5.6254125038422273e-03 0.0000000000000000e+00  3.6810308722910322e-04 5.7376104151660957e-03 0.0000000000000000e+00  3.8287315207674881e-04 5.8492535344694552e-03 0.0000000000000000e+00  3.9783982086651629e-04 5.9601238372640041e-03 0.0000000000000000e+00  4.1298581482914095e-04 6.0700292289614377e-03 0.0000000000000000e+