<?xml version="1.0"?>
<VTKFile type="UnstructuredGrid"  version="0.1"  >
<UnstructuredGrid>
<Piece  NumberOfPoints="629" NumberOfCells="1162">
<Points>
<DataArray  type="Float64"  NumberOfComponents="3"  format="ascii">0.7104347826086956 0 0  0.7269565217391304 0 0  0.7269565217391304 0.01666666666666667 0  0.7104347826086956 0.01666666666666667 0  0.7434782608695653 0 0  0.7434782608695653 0.01666666666666667 0  0.7599999999999999 0 0  0.7599999999999999 0.01666666666666667 0  0.7765217391304348 0 0  0.7765217391304348 0.01666666666666667 0  0.7930434782608695 0 0  0.7930434782608695 0.01666666666666667 0  0.8095652173913043 0 0  0.8095652173913043 0.01666666666666667 0  0.8260869565217391 0 0  0.8260869565217391 0.01666666666666667 0  0.8426086956521739 0 0  0.8426086956521739 0.01666666666666667 0  0.8591304347826086 0 0  0.8591304347826086 0.01666666666666667 0  0.8756521739130434 0 0  0.8756521739130434 0.01666666666666667 0  0.8921739130434783 0 0  0.8921739130434783 0.01666666666666667 0  0.908695652173913 0 0  0.908695652173913 0.01666666666666667 0  0.9252173913043478 0 0  0.9252173913043478 0.01666666666666667 0  0.9417391304347826 0 0  0.9417391304347826 0.01666666666666667 0  0.9582608695652173 0 0  0.9582608695652173 0.01666666666666667 0  0.9747826086956521 0 0  0.9747826086956521 0.01666666666666667 0  0.991304347826087 0 0  0.991304347826087 0.01666666666666667 0  1.007826086956522 0 0  1.007826086956522 0.01666666666666667 0  1.024347826086957 0 0  1.024347826086957 0.01666666666666667 0  0.7269565217391304 0.03333333333333333 0  0.7104347826086956 0.03333333333333333 0  0.7434782608695653 0.03333333333333333 0  0.7599999999999999 0.03333333333333333 0  0.7765217391304348 0.03333333333333333 0  0.7930434782608695 0.03333333333333333 0  0.8095652173913043 0.03333333333333333 0  0.8260869565217391 0.03333333333333333 0  0.8426086956521739 0.03333333333333333 0  0.8591304347826086 0.03333333333333333 0  0.8756521739130434 0.03333333333333333 0  0.8921739130434783 0.03333333333333333 0  0.908695652173913 0.03333333333333333 0  0.9252173913043478 0.03333333333333333 0  0.9417391304347826 0.03333333333333333 0  0.9582608695652173 0.03333333333333333 0  0.9747826086956521 0.03333333333333333 0  0.991304347826087 0.03333333333333333 0  1.007826086956522 0.03333333333333333 0  1.024347826086957 0.03333333333333333 0  1.040869565217391 0.03333333333333333 0  0.7269565217391304 0.05 0  0.7434782608695653 0.05 0  0.7599999999999999 0.05 0  0.7765217391304348 0.05 0  0.7930434782608695 0.05 0  0.8095652173913043 0.05 0  0.8260869565217391 0.05 0  0.8426086956521739 0.05 0  0.8591304347826086 0.05 0  0.8756521739130434 0.05 0  0.8921739130434783 0.05 0  0.908695652173913 0.05 0  0.9252173913043478 0.05 0  0.9417391304347826 0.05 0  0.9582608695652173 0.05 0  0.9747826086956521 0.05 0  0.991304347826087 0.05 0  1.007826086956522 0.05 0  1.024347826086957 0.05 0  1.040869565217391 0.05 0  1.057391304347826 0.05 0  0.7434782608695653 0.06666666666666667 0  0.7599999999999999 0.06666666666666667 0  0.7765217391304348 0.06666666666666667 0  0.7930434782608695 0.06666666666666667 0  0.8095652173913043 0.06666666666666667 0  0.8260869565217391 0.06666666666666667 0  0.8426086956521739 0.06666666666666667 0  0.8591304347826086 0.06666666666666667 0  0.8756521739130434 0.06666666666666667 0  0.8921739130434783 0.06666666666666667 0  0.908695652173913 0.06666666666666667 0  0.9252173913043478 0.06666666666666667 0  0.9417391304347826 0.06666666666666667 0  0.9582608695652173 0.06666666666666667 0  0.9747826086956521 0.06666666666666667 0  0.991304347826087 0.06666666666666667 0  1.007826086956522 0.06666666666666667 0  1.024347826086957 0.06666666666666667 0  1.040869565217391 0.06666666666666667 0  1.057391304347826 0.06666666666666667 0  1.073913043478261 0.06666666666666667 0  0.7599999999999999 0.08333333333333333 0  0.7765217391304348 0.08333333333333333 0  0.7930434782608695 0.08333333333333333 0  0.8095652173913043 0.08333333333333333 0  0.8260869565217391 0.08333333333333333 0  0.8426086956521739 0.08333333333333333 0  0.8591304347826086 0.08333333333333333 0  0.8756521739130434 0.08333333333333333 0  0.8921739130434783 0.08333333333333333 0  0.908695652173913 0.08333333333333333 0  0.9252173913043478 0.08333333333333333 0  0.9417391304347826 0.08333333333333333 0  0.9582608695652173 0.08333333333333333 0  0.9747826086956521 0.08333333333333333 0  0.991304347826087 0.08333333333333333 0  1.007826086956522 0.08333333333333333 0  1.024347826086957 0.08333333333333333 0  1.040869565217391 0.08333333333333333 0  1.057391304347826 0.08333333333333333 0  1.073913043478261 0.08333333333333333 0  1.090434782608696 0.08333333333333333 0  0.7765217391304348 0.1 0  0.7930434782608695 0.1 0  0.8095652173913043 0.1 0  0.8260869565217391 0.1 0  0.8426086956521739 0.1 0  0.8591304347826086 0.1 0  0.8756521739130434 0.1 0  0.8921739130434783 0.1 0  0.908695652173913 0.1 0  0.9252173913043478 0.1 0  0.9417391304347826 0.1 0  0.9582608695652173 0.1 0  0.9747826086956521 0.1 0  0.991304347826087 0.1 0  1.007826086956522 0.1 0  1.024347826086957 0.1 0  1.040869565217391 0.1 0  1.057391304347826 0.1 0  1.073913043478261 0.1 0  1.090434782608696 0.1 0  1.10695652173913 0.1 0  0.7930434782608695 0.1166666666666667 0  0.8095652173913043 0.1166666666666667 0  0.8260869565217391 0.1166666666666667 0  0.8426086956521739 0.1166666666666667 0  0.8591304347826086 0.1166666666666667 0  0.8756521739130434 0.1166666666666667 0  0.8921739130434783 0.1166666666666667 0  0.908695652173913 0.1166666666666667 0  0.9252173913043478 0.1166666666666667 0  0.9417391304347826 0.1166666666666667 0  0.9582608695652173 0.1166666666666667 0  0.9747826086956521 0.1166666666666667 0  0.991304347826087 0.1166666666666667 0  1.007826086956522 0.1166666666666667 0  1.024347826086957 0.1166666666666667 0  1.040869565217391 0.1166666666666667 0  1.057391304347826 0.1166666666666667 0  1.073913043478261 0.1166666666666667 0  1.090434782608696 0.1166666666666667 0  1.10695652173913 0.1166666666666667 0  1.123478260869565 0.1166666666666667 0  0.8095652173913043 0.1333333333333333 0  0.8260869565217391 0.1333333333333333 0  0.8426086956521739 0.1333333333333333 0  0.8591304347826086 0.1333333333333333 0  0.8756521739130434 0.1333333333333333 0  0.8921739130434783 0.1333333333333333 0  0.908695652173913 0.1333333333333333 0  0.9252173913043478 0.1333333333333333 0  0.9417391304347826 0.1333333333333333 0  0.9582608695652173 0.1333333333333333 0  0.9747826086956521 0.1333333333333333 0  0.991304347826087 0.1333333333333333 0  1.007826086956522 0.1333333333333333 0  1.024347826086957 0.1333333333333333 0  1.040869565217391 0.1333333333333333 0  1.057391304347826 0.1333333333333333 0  1.073913043478261 0.1333333333333333 0  1.090434782608696 0.1333333333333333 0  1.10695652173913 0.1333333333333333 0  1.123478260869565 0.1333333333333333 0  1.14 0.1333333333333333 0  0.8260869565217391 0.15 0  0.8426086956521739 0.15 0  0.8591304347826086 0.15 0  0.8756521739130434 0.15 0  0.8921739130434783 0.15 0  0.908695652173913 0.15 0  0.9252173913043478 0.15 0  0.9417391304347826 0.15 0  0.9582608695652173 0.15 0  0.9747826086956521 0.15 0  0.991304347826087 0.15 0  1.007826086956522 0.15 0  1.024347826086957 0.15 0  1.040869565217391 0.15 0  1.057391304347826 0.15 0  1.073913043478261 0.15 0  1.090434782608696 0.15 0  1.10695652173913 0.15 0  1.123478260869565 0.15 0  1.14 0.15 0  1.156521739130435 0.15 0  0.8426086956521739 0.1666666666666667 0  0.8591304347826086 0.1666666666666667 0  0.8756521739130434 0.1666666666666667 0  0.8921739130434783 0.1666666666666667 0  0.908695652173913 0.1666666666666667 0  0.9252173913043478 0.1666666666666667 0  0.9417391304347826 0.1666666666666667 0  0.9582608695652173 0.1666666666666667 0  0.9747826086956521 0.1666666666666667 0  0.991304347826087 0.1666666666666667 0  1.007826086956522 0.1666666666666667 0  1.024347826086957 0.1666666666666667 0  1.040869565217391 0.1666666666666667 0  1.057391304347826 0.1666666666666667 0  1.073913043478261 0.1666666666666667 0  1.090434782608696 0.1666666666666667 0  1.10695652173913 0.1666666666666667 0  1.123478260869565 0.1666666666666667 0  1.14 0.1666666666666667 0  1.156521739130435 0.1666666666666667 0  1.17304347826087 0.1666666666666667 0  0.8591304347826086 0.1833333333333333 0  0.8756521739130434 0.1833333333333333 0  0.8921739130434783 0.1833333333333333 0  0.908695652173913 0.1833333333333333 0  0.9252173913043478 0.1833333333333333 0  0.9417391304347826 0.1833333333333333 0  0.9582608695652173 0.1833333333333333 0  0.9747826086956521 0.1833333333333333 0  0.991304347826087 0.1833333333333333 0  1.007826086956522 0.1833333333333333 0  1.024347826086957 0.1833333333333333 0  1.040869565217391 0.1833333333333333 0  1.057391304347826 0.1833333333333333 0  1.073913043478261 0.1833333333333333 0  1.090434782608696 0.1833333333333333 0  1.10695652173913 0.1833333333333333 0  1.123478260869565 0.1833333333333333 0  1.14 0.1833333333333333 0  1.156521739130435 0.1833333333333333 0  1.17304347826087 0.1833333333333333 0  1.189565217391304 0.1833333333333333 0  0.8756521739130434 0.2 0  0.8921739130434783 0.2 0  0.908695652173913 0.2 0  0.9252173913043478 0.2 0  0.9417391304347826 0.2 0  0.9582608695652173 0.2 0  0.9747826086956521 0.2 0  0.991304347826087 0.2 0  1.007826086956522 0.2 0  1.024347826086957 0.2 0  1.040869565217391 0.2 0  1.057391304347826 0.2 0  1.073913043478261 0.2 0  1.090434782608696 0.2 0  1.10695652173913 0.2 0  1.123478260869565 0.2 0  1.14 0.2 0  1.156521739130435 0.2 0  1.17304347826087 0.2 0  1.189565217391304 0.2 0  1.206086956521739 0.2 0  0.8921739130434783 0.2166666666666667 0  0.908695652173913 0.2166666666666667 0  0.9252173913043478 0.2166666666666667 0  0.9417391304347826 0.2166666666666667 0  0.9582608695652173 0.2166666666666667 0  0.9747826086956521 0.2166666666666667 0  0.991304347826087 0.2166666666666667 0  1.007826086956522 0.2166666666666667 0  1.02434782608
[...]
<PointData  Vectors="Displacement"> 
<DataArray  type="Float64"  Name="Displacement"  NumberOfComponents="3" format="ascii">1.1500037771486301e-04 1.0393788664264348e-03 0.0000000000000000e+00  1.1711305940907330e-04 1.0585013446992224e-03 0.0000000000000000e+00  9.7814510051931526e-05 1.0577831599854308e-03 0.0000000000000000e+00  9.5243491332107875e-05 1.0386670348977766e-03 0.0000000000000000e+00  1.1933149498978541e-04 1.0773330384748286e-03 0.0000000000000000e+00  1.0017261159171540e-04 1.0766092354966852e-03 0.0000000000000000e+00  1.2164598604529119e-04 1.0962123548627072e-03 0.0000000000000000e+00  1.0237140154902942e-04 1.0954806482523737e-03 0.0000000000000000e+00  1.2402852061627631e-04 1.1153619951583243e-03 0.0000000000000000e+00  1.0446719408932602e-04 1.1146202664875033e-03 0.0000000000000000e+00  1.2644738478611643e-04 1.1349017568007137e-03 0.0000000000000000e+00  1.0651652302266144e-04 1.1341517948290603e-03 0.0000000000000000e+00  1.2887448357256482e-04 1.1548595643687406e-03 0.0000000000000000e+00  1.0856232782032114e-04 1.1541059421146603e-03 0.0000000000000000e+00  1.3129177740652025e-04 1.1752006158893629e-03 0.0000000000000000e+00  1.1062770518208111e-04 1.1744478615066611e-03 0.0000000000000000e+00  1.3369391868548545e-04 1.1958680985887519e-03 0.0000000000000000e+00  1.1271659849588367e-04 1.1951182979160571e-03 0.0000000000000000e+00  1.3608489467134275e-04 1.2168187051074574e-03 0.0000000000000000e+00  1.1482058827146340e-04 1.2160715994448494e-03 0.0000000000000000e+00  1.3847180967100752e-04 1.2380364922935613e-03 0.0000000000000000e+00  1.1692814011065592e-04 1.2372907134091950e-03 0.0000000000000000e+00  1.4086008112948201e-04 1.2595274871944370e-03 0.0000000000000000e+00  1.1903137207786916e-04 1.2587816074927857e-03 0.0000000000000000e+00  1.4325163775092591e-04 1.2813065585399342e-03 0.0000000000000000e+00  1.2112833045367985e-04 1.2805595855071164e-03 0.0000000000000000e+00  1.4564537908956670e-04 1.3033860626909181e-03 0.0000000000000000e+00  1.2322173955597247e-04 1.3026374308676804e-03 0.0000000000000000e+00  1.4803841497278825e-04 1.3257698105389980e-03 0.0000000000000000e+00  1.2531671798263799e-04 1.3250192518550715e-03 0.0000000000000000e+00  1.5042712850627221e-04 1.3484510584805627e-03 0.0000000000000000e+00  1.2741904069174054e-04 1.3476986126936155e-03 0.0000000000000000e+00  1.5280796818881122e-04 1.3714125072935900e-03 0.0000000000000000e+00  1.2953395903545617e-04 1.3706585746231096e-03 0.0000000000000000e+00  1.5517821172974247e-04 1.3946279944629400e-03 0.0000000000000000e+00  1.3166517496600465e-04 1.3938731674581967e-03 0.0000000000000000e+00  1.5753655227344825e-04 1.4180663394159796e-03 0.0000000000000000e+00  1.3381416451535021e-04 1.4173110902809937e-03 0.0000000000000000e+00  1.5988316208137630e-04 1.4416962473931606e-03 0.0000000000000000e+00  1.3598031319072372e-04 1.4409406373700174e-03 0.0000000000000000e+00  7.9070361364987792e-05 1.0569579878259366e-03 0.0000000000000000e+00  7.5316319425960585e-05 1.0376476877133880e-03 0.0000000000000000e+00  8.1591459989016534e-05 1.0758941686034433e-03 0.0000000000000000e+00  8.3502847063877239e-05 1.0948259211840479e-03 0.0000000000000000e+00  8.5132514627104166e-05 1.1139872034778594e-03 0.0000000000000000e+00  8.6675430959580894e-05 1.1335153580006327e-03 0.0000000000000000e+00  8.8255567121158738e-05 1.1534547935123398e-03 0.0000000000000000e+00  8.9940069094505477e-05 1.1737825774487231e-03 0.0000000000000000e+00  9.1733425905647498e-05 1.1944457827047991e-03 0.0000000000000000e+00  9.3587631873507236e-05 1.2153985943077993e-03 0.0000000000000000e+00  9.5446460605338478e-05 1.2366213550042986e-03 0.0000000000000000e+00  9.7276429445719906e-05 1.2581163884661010e-03 0.0000000000000000e+00  9.9073574408009254e-05 1.2798964305860681e-03 0.0000000000000000e+00  1.0085203113078189e-04 1.3019733653254180e-03 0.0000000000000000e+00  1.0263075048577282e-04 1.3243511343252129e-03 0.0000000000000000e+00  1.0442807796328733e-04 1.3470235299555293e-03 0.0000000000000000e+00  1.0626074504855229e-04 1.3699744726026475e-03 0.0000000000000000e+00  1.0814188376587672e-04 1.3931794432385318e-03 0.0000000000000000e+00  1.1007701811052807e-04 1.4166083918317146e-03 0.0000000000000000e+00  1.1206303376817429e-04 1.4402302463181757e-03 0.0000000000000000e+00  1.1409073391269060e-04 1.4640167426351141e-03 0.0000000000000000e+00  5.9969520637862759e-05 1.0453155771568432e-03 0.0000000000000000e+00  6.3981673914802187e-05 1.0646206639806591e-03 0.0000000000000000e+00  6.7465318958917118e-05 1.0838193770944836e-03 0.0000000000000000e+00  7.0595364981080444e-05 1.1031474138134955e-03 0.0000000000000000e+00  7.3514533722738519e-05 1.1227631559832215e-03 0.0000000000000000e+00  7.6325848046548037e-05 1.1427427752974781e-03 0.0000000000000000e+00  7.9091953146432771e-05 1.1631026970903931e-03 0.0000000000000000e+00  8.1837008203230219e-05 1.1838284614593324e-03 0.0000000000000000e+00  8.4555538750509543e-05 1.2048978044604975e-03 0.0000000000000000e+00  8.7229385209713101e-05 1.2262915635255190e-03 0.0000000000000000e+00  8.9843998659375898e-05 1.2479978876992360e-03 0.0000000000000000e+00  9.2396107412951893e-05 1.2700116623011696e-03 0.0000000000000000e+00  9.4893154852133870e-05 1.2923310540424394e-03 0.0000000000000000e+00  9.7348779569823724e-05 1.3149526581011488e-03 0.0000000000000000e+00  9.9778442724224488e-05 1.3378676631375342e-03 0.0000000000000000e+00  1.0219656749926703e-04 1.3610605146459566e-03 0.0000000000000000e+00  1.0461456500412935e-04 1.3845097222582117e-03 0.0000000000000000e+00  1.0703938662270116e-04 1.4081898764117422e-03 0.0000000000000000e+00  1.0947332761815502e-04 1.4320737531751380e-03 0.0000000000000000e+00  1.1191569955409259e-04 1.4561338105560490e-03 0.0000000000000000e+00  1.1436602137886582e-04 1.4803421374266425e-03 0.0000000000000000e+00  4.7464314072472610e-05 1.0525011114145130e-03 0.0000000000000000e+00  5.2087397049336387e-05 1.0718432907150844e-03 0.0000000000000000e+00  5.6404306027366592e-05 1.0913183644577185e-03 0.0000000000000000e+00  6.0480011845391018e-05 1.1110614750581913e-03 0.0000000000000000e+00  6.4375937145465538e-05 1.1311545191018228e-03 0.0000000000000000e+00  6.8136691550660364e-05 1.1516315938402796e-03 0.0000000000000000e+00  7.1787229886268789e-05 1.1724961006147655e-03 0.0000000000000000e+00  7.5336654417545868e-05 1.1937365289454462e-03 0.0000000000000000e+00  7.8785601205824449e-05 1.2153358838776765e-03 0.0000000000000000e+00  8.2133518990140165e-05 1.2372773447701527e-03 0.0000000000000000e+00  8.5383409263576200e-05 1.2595471666197575e-03 0.0000000000000000e+00  8.8543252931035460e-05 1.2821346932311742e-03 0.0000000000000000e+00  9.1624951754377352e-05 1.3050300552282302e-03 0.0000000000000000e+00  9.4642118936637577e-05 1.3282213007631933e-03 0.0000000000000000e+00  9.7607860575920545e-05 1.3516926355105693e-03 0.0000000000000000e+00  1.0053315426247895e-04 1.3754241999171868e-03 0.0000000000000000e+00  1.0342604790527292e-04 1.3993928182039843e-03 0.0000000000000000e+00  1.0629182078970469e-04 1.4235728148755322e-03 0.0000000000000000e+00  1.0913412182739950e-04 1.4479363372938159e-03 0.0000000000000000e+00  1.1195683942590468e-04 1.4724527741125212e-03 0.0000000000000000e+00  1.1476612787773074e-04 1.4970871573953617e-03 0.0000000000000000e+00  3.7416829118717824e-05 1.0591221658247738e-03 0.0000000000000000e+00  4.2680464837476112e-05 1.0786761995629423e-03 0.0000000000000000e+00  4.7721082044140856e-05 1.0985374221682974e-03 0.0000000000000000e+00  5.2556605268310166e-05 1.1187732842661276e-03 0.0000000000000000e+00  5.7206596455396704e-05 1.1394166125123298e-03 0.0000000000000000e+00  6.1686489498686842e-05 1.1604732156966250e-03 0.0000000000000000e+00  6.6007065678434120e-05 1.1819325696111054e-03 0.0000000000000000e+00  7.0176397016150357e-05 1.2037762455777902e-03 0.0000000000000000e+00  7.4202134861230248e-05 1.2259838372476912e-03 0.0000000000000000e+00  7.8093206368648460e-05 1.2485365581410067e-03 0.0000000000000000e+00  8.1860529536098299e-05 1.2714183899704852e-03 0.0000000000000000e+00  8.5516700559913682e-05 1.2946151088132391e-03 0.0000000000000000e+00  8.9074926948865723e-05 1.3181123248250804e-03 0.0000000000000000e+00  9.2547714580724840e-05 1.3418937720167151e-03 0.0000000000000000e+00  9.5945827561190789e-05 1.3659404216832761e-03 0.0000000000000000e+00  9.9277840488767782e-05 1.3902302691786185e-03 0.0000000000000000e+00  1.0255036758029452e-04 1.4147382876662736e-03 0.0000000000000000e+00  1.0576885989669134e-04 1.4394361522203076e-03 0.0000000000000000e+00  1.0893872766198452e-04 1.4642914973388597e-03 0.0000000000000000e+00  1.1206641833142818e-04 1.4892666867453725e-03 0.0000000000000000e+00  1.1516003346288200e-04 1.5143172689284620e-03 0.0000000000000000e+00  2.9465253744284441e-05 1.0653395110141047e-03 0.0000000000000000e+00  3.5317560280311133e-05 1.0852903913503101e-03 0.0000000000000000e+00  4.0962866910498748e-05 1.1056754096509182e-03 0.0000000000000000e+00  4.6395695033515610e-05 1.1265134923116205e-03 0.0000000000000000e+00  5.1617910705230694e-05 1.1478008572319198e-03 0.0000000000000000e+00  5.6636112429965468e-05 1.1695193446132220e-03 0.0000000000000000e+00  6.1460128048018882e-05 1.1916442699290146e-03 0.0000000000000000e+00  6.6101960562879559e-05 1.2141501207181633e-03 0.0000000000000000e+00  7.0574998632302061e-05 1.2370138556009279e-03 0.0000000000000000e+00  7.4893386525571345e-05 1.2602159501478429e-03 0.0000000000000000e+00  7.9071391770242660e-05 1.2837396546205172e-03 0.0000000000000000e+00  8.3122676096166284e-05 1.3075693069574651e-03 0.0000000000000000e+00  8.7059562313447224e-05 1.3316885768945078e-03 0.0000000000000000e+00  9.0892512482334452e-05 1.3560791441693313e-03 0.0000000000000000e+00  9.4629994069900754e-05 1.3807198569009580e-03 0.0000000000000000e+00  9.8278770163896657e-05 1.4055861386230264e-03 0.0000000000000000e+00  1.0184450403793769e-04 1.4306494031371987e-03 0.0000000000000000e+00  1.0533247642738511e-04 1.4558763275733164e-03 0.0000000000000000e+00  1.0874816043759658e-04 1.4812279786565333e-03 0.0000000000000000e+00  1.1209739317967019e-04 1.5066589164735751e-03 0.0000000000000000e+00  1.1538592023743494e-04 1.5321164803406592e-03 0.0000000000000000e+00  2.3304034602879880e-05 1.0713881525531805e-03 0.0000000000000000e+00  2.9649827976128889e-05 1.0919220186300037e-03 0.0000000000000000e+00  3.5766732329448293e-05 1.1129752330172420e-03 0.0000000000000000e+00  4.1643062430022538e-05 1.1345251080459662e-03 0.0000000000000000e+00  4.7279696191066811e-05 1.1565381776325225e-03 0.0000000000000000e+00  5.2686243532511299e-05 1.1789785918644017e-03 0.0000000000000000e+00  5.7877398099159725e-05 1.2018134626950159e-03 0.0000000000000000e+00  6.2870056509403574e-05 1.2250152776637447e-03 0.0000000000000000e+00  6.7681342683253835e-05 1.2485620538926503e-03 0.0000000000000000e+00  7.2327369871316260e-05 1.2724359992485473e-03 0.0000000000000000e+00  7.6822492454220486e-05 1.2966214666565667e-03 0.0000000000000000e+00  8.1178889976382467e-05 1.3211028733267852e-03 0.0000000000000000e+00  8.5406441815075222e-05 1.3458629819568489e-03 0.0000000000000000e+00  8.9512890545184870e-05 1.3708816372645348e-03 0.0000000000000000e+00  9.3504253293323833e-05 1.3961348515730040e-03 0.0000000000000000e+00  9.7385373408261387e-05 1.4215940893983064e-03 0.0000000000000000e+00  1.0116045704194928e-04 1.4472256449388869e-03 0.0000000000000000e+00  1.0483341983501786e-04 1.4729900977906549e-03 0.0000000000000000e+00  1.0840788267180105e-04 1.4988419222057732e-03 0.0000000000000000e+00  1.1188669993521338e-04 1.5247293969512421e-03 0.0000000000000000e+00  1.1527098486682629e-04 1.5505950718907012e-03 0.0000000000000000e+00  1.8645414954365453e-05 1.0775567051712405e-03 0.0000000000000000e+00  2.5358354471570931e-05 1.0988472557772379e-03 0.0000000000000000e+00  3.1803989284320309e-05 1.1206915666071909e-03 0.0000000000000000e+00  3.7978720846971138e-05 1.1430337344747082e-03 0.0000000000000000e+00  4.3892579610238303e-05 1.1658222537900673e-03 0.0000000000000000e+00  4.9563131150006179e-05 1.1890148707966129e-03 0.0000000000000000e+00  5.5010715544328843e-05 1.2125794763714346e-03 0.0000000000000000e+00  6.0255300742171121e-05 1.2364926448828340e-03 0.0000000000000000e+00  6.5314704911742399e-05 1.2607370201457165e-03 0.0000000000000000e+00  7.0203792944129877e-05 1.2852983855762765e-03 0.0000000000000000e+00  7.4934302636915458e-05 1.3101629754084950e-03 0.0000000000000000e+00  7.9515065728755148e-05 1.3353153152282182e-03 0.0000000000000000e+00  8.3952473591519407e-05 1.3607366459013595e-03 0.0000000000000000e+00  8.8251072526435303e-05 1.3864038397857503e-03 0.0000000000000000e+00  9.2414174558922153e-05 1.4122886794919237e-03 0.0000000000000000e+00  9.6444364015940112e-05 1.4383573979692590e-03 0.0000000000000000e+00  1.0034378350640881e-04 1.4645704419628458e-03 0.0000000000000000e+00  1.0411410466287587e-04 1.4908824852499075e-03 0.0000000000000000e+00  1.0775613223274834e-04 1.5172427694122770e-03 0.0000000000000000e+00  1.1126906092591497e-04 1.5435958982836812e-03 0.0000000000000000e+00  1.1464951711542174e-04 1.5698832104062243e-03 0.0000000000000000e+00  1.5191167008716356e-05 1.0841664309176079e-03 0.0000000000000000e+00  2.2126190104629163e-05 1.1063434906365907e-03 0.0000000000000000e+00  2.8759632624207469e-05 1.1290520425941844e-03 0.0000000000000000e+00  3.5104594644485387e-05 1.1522211403575192e-03 0.0000000000000000e+00  4.1183165709190390e-05 1.1757981502956317e-03 0.0000000000000000e+00  4.7019874655240228e-05 1.1997470867163038e-03 0.0000000000000000e+00  5.2637644842794387e-05 1.2240446805636700e-03 0.0000000000000000e+00  5.8055737896057088e-05 1.2486758602944135e-03 0.0000000000000000e+00  6.3289067407967957e-05 1.2736295141295253e-03 0.0000000000000000e+00  6.8348355305376921e-05 1.2988949751413625e-03 0.0000000000000000e+00  7.3240742942450016e-05 1.3244593840350746e-03 0.0000000000000000e+00  7.7970598236213199e-05 1.3503058800153774e-03 0.0000000000000000e+00  8.2540351898377102e-05 1.3764124658664147e-03 0.0000000000000000e+00  8.6951246886929643e-05 1.4027513816108981e-03 0.0000000000000000e+00  9.1203911038794915e-05 1.4292888597213550e-03 0.0000000000000000e+00  9.5298680202439182e-05 1.4559851924227398e-03 0.0000000000000000e+00  9.9235621607915038e-05 1.4827950930276039e-03 0.0000000000000000e+00  1.0301424246187369e-04 1.5096683670041469e-03 0.0000000000000000e+00  1.0663292222727716e-04 1.5365509222726222e-03 0.0000000000000000e+00  1.1008818169884075e-04 1.5633861157770251e-03 0.0000000000000000e+00  1.1337398154827437e-04 1.5901163200364935e-03 0.0000000000000000e+00  1.2621324704714186e-05 1.0915223636550281e-03 0.0000000000000000e+00  1.9635531671198770e-05 1.1146404132420314e-03 0.0000000000000000e+00  2.6335505085550479e-05 1.1382234787849878e-03 0.0000000000000000e+00  3.2750643953251233e-05 1.1622092420050458e-03 0.0000000000000000e+00  3.8910951601513407e-05 1.1865600621345199e-03 0.0000000000000000e+00  4.4842533608010820e-05 1.2112554990325629e-03 0.0000000000000000e+00  5.0565692981379855e-05 1.2362852888870542e-03 0.0000000000000000e+00  5.6094681463757970e-05 1.2616434833080390e-03 0.0000000000000000e+00  6.1438388896527818e-05 1.2873239938675045e-03 0.0000000000000000e+00  6.6601458063264045e-05 1.3133175069408353e-03 0.0000000000000000e+00  7.1585497235452479e-05 1.3396095495352407e-03 0.0000000000000000e+00  7.6390204762666897e-05 1.3661794272498454e-03 0.0000000000000000e+00  8.1014306007337465e-05 1.3929997930796814e-03 0.0000000000000000e+00  8.5456245972937022e-05 1.4200366761441471e-03 0.0000000000000000e+00  8.9714601542162370e-05 1.4472498689141525e-03 0.0000000000000000e+00  9.3788193273082208e-05 1.4745936203537854e-03 0.0000000000000000e+00  9.7675899560158773e-05 1.5020176043349489e-03 0.0000000000000000e+00  1.0137621085960614e-04 1.5294681273395907e-03 0.0000000000000000e+00  1.0488660776978696e-04 1.5568894971360941e-03 0.0000000000000000e+00  1.0820289176224686e-04 1.5842253868380591e-03 0.0000000000000000e+00  1.1131861817345636e-04 1.6114199158742287e-03 0.0000000000000000e+00  1.0607088242948383e-05 1.0998487479918005e-03 0.0000000000000000e+00  1.7586701416688146e-05 1.1238801305535745e-03 0.0000000000000000e+00  2.4268163026029761e-05 1.1482958249889323e-03 0.0000000000000000e+00  3.0688354272540186e-05 1.1730609215211346e-03 0.0000000000000000e+00  3.6876616289774717e-05 1.1981619386235919e-03 0.0000000000000000e+00  4.2853606960523479e-05 1.2235968128687577e-03 0.0000000000000000e+00  4.8631915762723332e-05 1.2493672576159034e-03 0.0000000000000000e+00  5.4217553318338697e-05 1.2754733982319297e-03 0.0000000000000000e+00  5.9611713633169840e-05 1.3019103832871061e-03 0.0000000000000000e+00  6.4812455998414378e-05 1.3286665050966035e-03 0.0000000000000000e+00  6.9816144787518777e-05 1.3557223688947207e-03 0.0000000000000000e+00  7.4618591832486281e-05 1.3830507705989137e-03 0.0000000000000000e+00  7.9215889759138810e-05 1.4106170661716631e-03 0.0000000000000000e+00  8.3604935406785891e-05 1.4383799098963545e-03 0.0000000000000000e+00  8.7783644347392306e-05 1.4662922909477309e-03 0.0000000000000000e+00  9.1750864941648626e-05 1.4943028105583237e-03 0.0000000000000000e+00  9.5506017890203482e-05 1.5223571242198712e-03 0.0000000000000000e+00  9.9048512265889488e-05 1.5503994271613005e-03 0.0000000000000000e+00  1.0237701311134434e-04 1.5783737907220327e-03 0.0000000000000000e+00  1.0548864997855263e-04 1.6062250815324865e-03 0.0000000000000000e+00  1.0837825644326343e-04 1.6338991742873648e-03 0.0000000000000000e+00  8.8481713294292550e-06 1.1092452532586170e-03 0.0000000000000000e+00  1.5728550211067472e-05 1.1341069320482439e-03 0.0000000000000000e+00  2.2348596242357645e-05 1.1592918265766927e-03 0.0000000000000000e+00  2.8740392333663173e-05 1.1847992326505213e-03 0.0000000000000000e+00  3.4923806613688600e-05 1.2106395980204716e-03 0.0000000000000000e+00  4.0908433730947326e-05 1.2368251832787849e-03 0.0000000000000000e+00  4.6696156461048180e-05 1.2633640114273880e-03 0.0000000000000000e+00  5.2283682008081148e-05 1.2902564772414274e-03 0.0000000000000000e+00  5.7664725198953313e-05 1.3174938048533889e-03 0.0000000000000000e+00  6.2831754135262940e-05 1.3450576544971884e-03 0.0000000000000000e+00  6.7777322956598108e-05 1.3729204385038005e-03 0.0000000000000000e+00  7.2495040463249548e-05 1.4010461014401349e-03 0.0000000000000000e+00  7.6980209124561755e-05 1.4293912455547206e-03 0.0000000000000000e+00  8.1230148796748719e-05 1.4579065366212354e-03 0.0000000000000000e+00  8.5244210027137404e-05 1.4865383259321354e-03 0.0000000000000000e+00  8.9023484924462271e-05 1.5152303938955553e-03 0.0000000000000000e+00  9.2570233386957455e-05 1.5439256704648532e-03 0.0000000000000000e+00  9.5887051549485518e-05 1.5725677240839449e-03 0.0000000000000000e+00  9.8975817317264114e-05 1.6011017427397616e-03 0.0000000000000000e+00  1.0183645532180052e-04 1.6294747080661180e-03 0.0000000000000000e+00  1.0446561809262194e-04 1.6576344642500393e-03 0.0000000000000000e+00  7.1164408433008036e-06 1.1196921814476584e-03 0.0000000000000000e+00  1.3882431578547663e-05 1.1452933220922794e-03 0.0000000000000000e+00  2.0430540029158048e-05 1.1711996673929778e-03 0.0000000000000000e+00  2.6778179156309759e-05 1.1974392661425032e-03 0.0000000000000000e+00  3.2930337082332653e-05 1.2240380197589911e-03 0.0000000000000000e+00  3.8883421394595420e-05 1.2510133940485037e-03 0.0000000000000000e+00  4.4628636506542135e-05 1.2783715269702913e-03 0.0000000000000000e+00  5.0154639377275477e-05 1.3061064284034484e-03 0.0000000000000000e+00  5.5449533081760806e-05 1.3342002750992010e-03 0.0000000000000000e+00  6.0502342789311765e-05 1.3626242974247131e-03 0.0000000000000000e+00  6.5304097106558495e-05 1.3913400288050827e-03 0.0000000000000000e+00  6.9848581197964389e-05 1.4203008457167516e-03 0.0000000000000000e+00  7.4132778661634345e-05 1.4494537697035859e-03 0.0000000000000000e+