<?xml version="1.0"?>
<VTKFile type="UnstructuredGrid"  version="0.1"  >
<UnstructuredGrid>
<Piece  NumberOfPoints="640" NumberOfCells="1175">
<Points>
<DataArray  type="Float64"  NumberOfComponents="3"  format="ascii">2.577391304347826 0 0  2.593913043478261 0 0  2.593913043478261 0.01666666666666667 0  2.577391304347826 0.01666666666666667 0  2.610434782608696 0 0  2.610434782608696 0.01666666666666667 0  2.62695652173913 0 0  2.62695652173913 0.01666666666666667 0  2.643478260869565 0 0  2.643478260869565 0.01666666666666667 0  2.66 0 0  2.66 0.01666666666666667 0  2.676521739130435 0 0  2.676521739130435 0.01666666666666667 0  2.693043478260869 0 0  2.693043478260869 0.01666666666666667 0  2.709565217391304 0 0  2.709565217391304 0.01666666666666667 0  2.726086956521739 0 0  2.726086956521739 0.01666666666666667 0  2.742608695652174 0 0  2.742608695652174 0.01666666666666667 0  2.759130434782609 0 0  2.759130434782609 0.01666666666666667 0  2.775652173913044 0 0  2.775652173913044 0.01666666666666667 0  2.792173913043478 0 0  2.792173913043478 0.01666666666666667 0  2.808695652173913 0 0  2.808695652173913 0.01666666666666667 0  2.825217391304347 0 0  2.825217391304347 0.01666666666666667 0  2.841739130434783 0 0  2.841739130434783 0.01666666666666667 0  2.858260869565217 0 0  2.858260869565217 0.01666666666666667 0  2.874782608695652 0 0  2.874782608695652 0.01666666666666667 0  2.891304347826087 0 0  2.891304347826087 0.01666666666666667 0  2.907826086956522 0 0  2.907826086956522 0.01666666666666667 0  2.924347826086957 0 0  2.924347826086957 0.01666666666666667 0  2.940869565217391 0 0  2.940869565217391 0.01666666666666667 0  2.957391304347826 0 0  2.957391304347826 0.01666666666666667 0  2.973913043478261 0 0  2.973913043478261 0.01666666666666667 0  2.593913043478261 0.03333333333333333 0  2.610434782608696 0.03333333333333333 0  2.62695652173913 0.03333333333333333 0  2.643478260869565 0.03333333333333333 0  2.66 0.03333333333333333 0  2.676521739130435 0.03333333333333333 0  2.693043478260869 0.03333333333333333 0  2.709565217391304 0.03333333333333333 0  2.726086956521739 0.03333333333333333 0  2.742608695652174 0.03333333333333333 0  2.759130434782609 0.03333333333333333 0  2.775652173913044 0.03333333333333333 0  2.792173913043478 0.03333333333333333 0  2.808695652173913 0.03333333333333333 0  2.825217391304347 0.03333333333333333 0  2.841739130434783 0.03333333333333333 0  2.858260869565217 0.03333333333333333 0  2.874782608695652 0.03333333333333333 0  2.891304347826087 0.03333333333333333 0  2.907826086956522 0.03333333333333333 0  2.924347826086957 0.03333333333333333 0  2.940869565217391 0.03333333333333333 0  2.957391304347826 0.03333333333333333 0  2.973913043478261 0.03333333333333333 0  2.610434782608696 0.05 0  2.62695652173913 0.05 0  2.643478260869565 0.05 0  2.66 0.05 0  2.676521739130435 0.05 0  2.693043478260869 0.05 0  2.709565217391304 0.05 0  2.726086956521739 0.05 0  2.742608695652174 0.05 0  2.759130434782609 0.05 0  2.775652173913044 0.05 0  2.792173913043478 0.05 0  2.808695652173913 0.05 0  2.825217391304347 0.05 0  2.841739130434783 0.05 0  2.858260869565217 0.05 0  2.874782608695652 0.05 0  2.891304347826087 0.05 0  2.907826086956522 0.05 0  2.924347826086957 0.05 0  2.940869565217391 0.05 0  2.957391304347826 0.05 0  2.973913043478261 0.05 0  2.990434782608696 0.05 0  2.62695652173913 0.06666666666666667 0  2.643478260869565 0.06666666666666667 0  2.66 0.06666666666666667 0  2.676521739130435 0.06666666666666667 0  2.693043478260869 0.06666666666666667 0  2.709565217391304 0.06666666666666667 0  2.726086956521739 0.06666666666666667 0  2.742608695652174 0.06666666666666667 0  2.759130434782609 0.06666666666666667 0  2.775652173913044 0.06666666666666667 0  2.792173913043478 0.06666666666666667 0  2.808695652173913 0.06666666666666667 0  2.825217391304347 0.06666666666666667 0  2.841739130434783 0.06666666666666667 0  2.858260869565217 0.06666666666666667 0  2.874782608695652 0.06666666666666667 0  2.891304347826087 0.06666666666666667 0  2.907826086956522 0.06666666666666667 0  2.924347826086957 0.06666666666666667 0  2.940869565217391 0.06666666666666667 0  2.957391304347826 0.06666666666666667 0  2.973913043478261 0.06666666666666667 0  2.990434782608696 0.06666666666666667 0  2.643478260869565 0.08333333333333333 0  2.66 0.08333333333333333 0  2.676521739130435 0.08333333333333333 0  2.693043478260869 0.08333333333333333 0  2.709565217391304 0.08333333333333333 0  2.726086956521739 0.08333333333333333 0  2.742608695652174 0.08333333333333333 0  2.759130434782609 0.08333333333333333 0  2.775652173913044 0.08333333333333333 0  2.792173913043478 0.08333333333333333 0  2.808695652173913 0.08333333333333333 0  2.825217391304347 0.08333333333333333 0  2.841739130434783 0.08333333333333333 0  2.858260869565217 0.08333333333333333 0  2.874782608695652 0.08333333333333333 0  2.891304347826087 0.08333333333333333 0  2.907826086956522 0.08333333333333333 0  2.924347826086957 0.08333333333333333 0  2.940869565217391 0.08333333333333333 0  2.957391304347826 0.08333333333333333 0  2.973913043478261 0.08333333333333333 0  2.990434782608696 0.08333333333333333 0  3.006956521739131 0.08333333333333333 0  2.66 0.1 0  2.676521739130435 0.1 0  2.693043478260869 0.1 0  2.709565217391304 0.1 0  2.726086956521739 0.1 0  2.742608695652174 0.1 0  2.759130434782609 0.1 0  2.775652173913044 0.1 0  2.792173913043478 0.1 0  2.808695652173913 0.1 0  2.825217391304347 0.1 0  2.841739130434783 0.1 0  2.858260869565217 0.1 0  2.874782608695652 0.1 0  2.891304347826087 0.1 0  2.907826086956522 0.1 0  2.924347826086957 0.1 0  2.940869565217391 0.1 0  2.957391304347826 0.1 0  2.973913043478261 0.1 0  2.990434782608696 0.1 0  3.006956521739131 0.1 0  2.676521739130435 0.1166666666666667 0  2.693043478260869 0.1166666666666667 0  2.709565217391304 0.1166666666666667 0  2.726086956521739 0.1166666666666667 0  2.742608695652174 0.1166666666666667 0  2.759130434782609 0.1166666666666667 0  2.775652173913044 0.1166666666666667 0  2.792173913043478 0.1166666666666667 0  2.808695652173913 0.1166666666666667 0  2.825217391304347 0.1166666666666667 0  2.841739130434783 0.1166666666666667 0  2.858260869565217 0.1166666666666667 0  2.874782608695652 0.1166666666666667 0  2.891304347826087 0.1166666666666667 0  2.907826086956522 0.1166666666666667 0  2.924347826086957 0.1166666666666667 0  2.940869565217391 0.1166666666666667 0  2.957391304347826 0.1166666666666667 0  2.973913043478261 0.1166666666666667 0  2.990434782608696 0.1166666666666667 0  3.006956521739131 0.1166666666666667 0  3.023478260869565 0.1166666666666667 0  2.693043478260869 0.1333333333333333 0  2.709565217391304 0.1333333333333333 0  2.726086956521739 0.1333333333333333 0  2.742608695652174 0.1333333333333333 0  2.759130434782609 0.1333333333333333 0  2.775652173913044 0.1333333333333333 0  2.792173913043478 0.1333333333333333 0  2.808695652173913 0.1333333333333333 0  2.825217391304347 0.1333333333333333 0  2.841739130434783 0.1333333333333333 0  2.858260869565217 0.1333333333333333 0  2.874782608695652 0.1333333333333333 0  2.891304347826087 0.1333333333333333 0  2.907826086956522 0.1333333333333333 0  2.924347826086957 0.1333333333333333 0  2.940869565217391 0.1333333333333333 0  2.957391304347826 0.1333333333333333 0  2.973913043478261 0.1333333333333333 0  2.990434782608696 0.1333333333333333 0  3.006956521739131 0.1333333333333333 0  3.023478260869565 0.1333333333333333 0  2.726086956521739 0.15 0  2.742608695652174 0.15 0  2.759130434782609 0.15 0  2.775652173913044 0.15 0  2.792173913043478 0.15 0  2.808695652173913 0.15 0  2.825217391304347 0.15 0  2.841739130434783 0.15 0  2.858260869565217 0.15 0  2.874782608695652 0.15 0  2.891304347826087 0.15 0  2.907826086956522 0.15 0  2.924347826086957 0.15 0  2.940869565217391 0.15 0  2.957391304347826 0.15 0  2.973913043478261 0.15 0  2.990434782608696 0.15 0  3.006956521739131 0.15 0  3.023478260869565 0.15 0  3.04 0.15 0  2.742608695652174 0.1666666666666667 0  2.759130434782609 0.1666666666666667 0  2.775652173913044 0.1666666666666667 0  2.792173913043478 0.1666666666666667 0  2.808695652173913 0.1666666666666667 0  2.825217391304347 0.1666666666666667 0  2.841739130434783 0.1666666666666667 0  2.858260869565217 0.1666666666666667 0  2.874782608695652 0.1666666666666667 0  2.891304347826087 0.1666666666666667 0  2.907826086956522 0.1666666666666667 0  2.924347826086957 0.1666666666666667 0  2.940869565217391 0.1666666666666667 0  2.957391304347826 0.1666666666666667 0  2.973913043478261 0.1666666666666667 0  2.990434782608696 0.1666666666666667 0  3.006956521739131 0.1666666666666667 0  3.023478260869565 0.1666666666666667 0  3.04 0.1666666666666667 0  3.056521739130435 0.1666666666666667 0  2.759130434782609 0.1833333333333333 0  2.775652173913044 0.1833333333333333 0  2.792173913043478 0.1833333333333333 0  2.808695652173913 0.1833333333333333 0  2.825217391304347 0.1833333333333333 0  2.841739130434783 0.1833333333333333 0  2.858260869565217 0.1833333333333333 0  2.874782608695652 0.1833333333333333 0  2.891304347826087 0.1833333333333333 0  2.907826086956522 0.1833333333333333 0  2.924347826086957 0.1833333333333333 0  2.940869565217391 0.1833333333333333 0  2.957391304347826 0.1833333333333333 0  2.973913043478261 0.1833333333333333 0  2.990434782608696 0.1833333333333333 0  3.006956521739131 0.1833333333333333 0  3.023478260869565 0.1833333333333333 0  3.04 0.1833333333333333 0  3.056521739130435 0.1833333333333333 0  3.073043478260869 0.1833333333333333 0  2.775652173913044 0.2 0  2.792173913043478 0.2 0  2.808695652173913 0.2 0  2.825217391304347 0.2 0  2.841739130434783 0.2 0  2.858260869565217 0.2 0  2.874782608695652 0.2 0  2.891304347826087 0.2 0  2.907826086956522 0.2 0  2.924347826086957 0.2 0  2.940869565217391 0.2 0  2.957391304347826 0.2 0  2.973913043478261 0.2 0  2.990434782608696 0.2 0  3.006956521739131 0.2 0  3.023478260869565 0.2 0  3.04 0.2 0  3.056521739130435 0.
[...]
<PointData  Vectors="Displacement"> 
<DataArray  type="Float64"  Name="Displacement"  NumberOfComponents="3" format="ascii">2.7397178933878669e-04 3.2113814407802969e-03 0.0000000000000000e+00  2.7476531192316341e-04 3.2442046835055617e-03 0.0000000000000000e+00  2.4184705433973717e-04 3.2438881046411060e-03 0.0000000000000000e+00  2.4074734988809799e-04 3.2110603677232260e-03 0.0000000000000000e+00  2.7553447963261067e-04 3.2767106228607976e-03 0.0000000000000000e+00  2.4294583598617221e-04 3.2763981649993070e-03 0.0000000000000000e+00  2.7628010523387457e-04 3.3088789835378617e-03 0.0000000000000000e+00  2.4404286120455716e-04 3.3085701122606099e-03 0.0000000000000000e+00  2.7700186768795726e-04 3.3406902135072647e-03 0.0000000000000000e+00  2.4513879068414576e-04 3.3403844191009246e-03 0.0000000000000000e+00  2.7769820005619296e-04 3.3721219988922095e-03 0.0000000000000000e+00  2.4623591753064660e-04 3.3718190128291712e-03 0.0000000000000000e+00  2.7836665256819934e-04 3.4031459870420473e-03 0.0000000000000000e+00  2.4733765458106950e-04 3.4028458093707265e-03 0.0000000000000000e+00  2.7900453777272041e-04 3.4337263970446986e-03 0.0000000000000000e+00  2.4844763841933579e-04 3.4334292465487272e-03 0.0000000000000000e+00  2.7960955905318607e-04 3.4638205459463717e-03 0.0000000000000000e+00  2.4956890091962035e-04 3.4635268095634156e-03 0.0000000000000000e+00  2.8018027854918631e-04 3.4933806788333549e-03 0.0000000000000000e+00  2.5070328127780738e-04 3.4930909119858630e-03 0.0000000000000000e+00  2.8071647365523057e-04 3.5223565159220945e-03 0.0000000000000000e+00  2.5185100804530968e-04 3.5220714557153828e-03 0.0000000000000000e+00  2.8121948784459158e-04 3.5506984900573798e-03 0.0000000000000000e+00  2.5301030875194363e-04 3.5504189854345339e-03 0.0000000000000000e+00  2.8169255624913356e-04 3.5783620602365491e-03 0.0000000000000000e+00  2.5417706124750383e-04 3.5780887991979258e-03 0.0000000000000000e+00  2.8214070772169581e-04 3.6053130715532991e-03 0.0000000000000000e+00  2.5534486428968964e-04 3.6050463138003691e-03 0.0000000000000000e+00  2.8256987748678564e-04 3.6315319859848792e-03 0.0000000000000000e+00  2.5650601003378520e-04 3.6312717293951443e-03 0.0000000000000000e+00  2.8298582283637621e-04 3.6570142036769404e-03 0.0000000000000000e+00  2.5765286854465756e-04 3.6567605666255956e-03 0.0000000000000000e+00  2.8339379666046427e-04 3.6817677954010582e-03 0.0000000000000000e+00  2.5877843715550237e-04 3.6815209744062954e-03 0.0000000000000000e+00  2.8379880703396346e-04 3.7058127465196076e-03 0.0000000000000000e+00  2.5987599140410710e-04 3.7055724777607245e-03 0.0000000000000000e+00  2.8420537038206187e-04 3.7291824110404809e-03 0.0000000000000000e+00  2.6093931416209685e-04 3.7289473260883770e-03 0.0000000000000000e+00  2.8461599982819707e-04 3.7519231350024856e-03 0.0000000000000000e+00  2.6196490772537463e-04 3.7516904947020760e-03 0.0000000000000000e+00  2.8502879268237156e-04 3.7740866551704542e-03 0.0000000000000000e+00  2.6295599345698784e-04 3.7738527521750023e-03 0.0000000000000000e+00  2.8543537238653459e-04 3.7957138767544386e-03 0.0000000000000000e+00  2.6392585309985847e-04 3.7954747806729261e-03 0.0000000000000000e+00  2.8581945499216274e-04 3.8168140760913871e-03 0.0000000000000000e+00  2.6489823129428972e-04 3.8165675665140968e-03 0.0000000000000000e+00  2.8615640877746492e-04 3.8373402899539700e-03 0.0000000000000000e+00  2.6590399991883741e-04 3.8370908101785792e-03 0.0000000000000000e+00  2.8642085489564376e-04 3.8571652810582059e-03 0.0000000000000000e+00  2.6697014383958711e-04 3.8569257436521353e-03 0.0000000000000000e+00  2.0884146989600685e-04 3.2435026040865799e-03 0.0000000000000000e+00  2.1027029255144946e-04 3.2760106672283023e-03 0.0000000000000000e+00  2.1171451679573826e-04 3.3081807670418137e-03 0.0000000000000000e+00  2.1317321627311748e-04 3.3399926942927912e-03 0.0000000000000000e+00  2.1465225458303647e-04 3.3714238413349983e-03 0.0000000000000000e+00  2.1616353772036068e-04 3.4024459879619337e-03 0.0000000000000000e+00  2.1772040541992842e-04 3.4330236912024615e-03 0.0000000000000000e+00  2.1933434618099084e-04 3.4631147081866094e-03 0.0000000000000000e+00  2.2101327625360481e-04 3.4926717987901535e-03 0.0000000000000000e+00  2.2276098532682069e-04 3.5216452958149276e-03 0.0000000000000000e+00  2.2457626740143356e-04 3.5499863082269832e-03 0.0000000000000000e+00  2.2645084360474593e-04 3.5776508930185570e-03 0.0000000000000000e+00  2.2836628763019538e-04 3.6046052429576105e-03 0.0000000000000000e+00  2.3029561262684378e-04 3.6308299590599715e-03 0.0000000000000000e+00  2.3221255947902965e-04 3.6563206154065610e-03 0.0000000000000000e+00  2.3409738424284726e-04 3.6810856348449888e-03 0.0000000000000000e+00  2.3593131746876491e-04 3.7051451873086477e-03 0.0000000000000000e+00  2.3769013140867337e-04 3.7285316578140990e-03 0.0000000000000000e+00  2.3934893724346604e-04 3.7512878876865209e-03 0.0000000000000000e+00  2.4090037841571405e-04 3.7734595729174520e-03 0.0000000000000000e+00  2.4237259773764535e-04 3.7950822714377867e-03 0.0000000000000000e+00  2.4382692245121065e-04 3.8161639471110845e-03 0.0000000000000000e+00  2.4535487426999812e-04 3.8366645940424013e-03 0.0000000000000000e+00  2.4709373832636265e-04 3.8564733559970357e-03 0.0000000000000000e+00  2.0101225103627147e-04 3.2705102242133470e-03 0.0000000000000000e+00  2.0246050988837754e-04 3.3029579677228789e-03 0.0000000000000000e+00  2.0390136622208690e-04 3.3350460076584281e-03 0.0000000000000000e+00  2.0533886621266126e-04 3.3667446144584889e-03 0.0000000000000000e+00  2.0678064501345657e-04 3.3980201879110191e-03 0.0000000000000000e+00  2.0823617303935451e-04 3.4288348309184590e-03 0.0000000000000000e+00  2.0971467962973040e-04 3.4591464994801913e-03 0.0000000000000000e+00  2.1122346850317218e-04 3.4889101694022583e-03 0.0000000000000000e+00  2.1276667321273133e-04 3.5180798914110100e-03 0.0000000000000000e+00  2.1434421307661982e-04 3.5466117128186330e-03 0.0000000000000000e+00  2.1595087839277013e-04 3.5744672932764730e-03 0.0000000000000000e+00  2.1757602161855922e-04 3.6016175975260097e-03 0.0000000000000000e+00  2.1920483103310767e-04 3.6280448463366227e-03 0.0000000000000000e+00  2.2082122084926634e-04 3.6537421543774901e-03 0.0000000000000000e+00  2.2241033548583403e-04 3.6787132629030831e-03 0.0000000000000000e+00  2.2395927095661449e-04 3.7029730647376588e-03 0.0000000000000000e+00  2.2545786522793013e-04 3.7265462675922525e-03 0.0000000000000000e+00  2.2690234854741238e-04 3.7494623093350561e-03 0.0000000000000000e+00  2.2830180885558359e-04 3.7717469483328028e-03 0.0000000000000000e+00  2.2968358202075768e-04 3.7934134748461570e-03 0.0000000000000000e+00  2.3109317811581217e-04 3.8144537913165589e-03 0.0000000000000000e+00  2.3258725891013186e-04 3.8348267629632385e-03 0.0000000000000000e+00  2.3421768186900906e-04 3.8544498144272112e-03 0.0000000000000000e+00  2.3599607354456029e-04 3.8732227423419197e-03 0.0000000000000000e+00  1.9264929939981996e-04 3.2978640186895176e-03 0.0000000000000000e+00  1.9406755833613500e-04 3.3302533848373001e-03 0.0000000000000000e+00  1.9545938375320555e-04 3.3622473215161792e-03 0.0000000000000000e+00  1.9683024191189945e-04 3.3938078445951252e-03 0.0000000000000000e+00  1.9818735125981131e-04 3.4248941524112203e-03 0.0000000000000000e+00  1.9953847813552816e-04 3.4554630545755470e-03 0.0000000000000000e+00  2.0089067800951586e-04 3.4854700430829015e-03 0.0000000000000000e+00  2.0224916838199389e-04 3.5148710797819555e-03 0.0000000000000000e+00  2.0361641340791695e-04 3.5436250495518035e-03 0.0000000000000000e+00  2.0499155506621629e-04 3.5716965868012739e-03 0.0000000000000000e+00  2.0637043522765195e-04 3.5990586227292280e-03 0.0000000000000000e+00  2.0774640341449227e-04 3.6256935988322695e-03 0.0000000000000000e+00  2.0911167777791487e-04 3.6515932433155850e-03 0.0000000000000000e+00  2.1045878131245601e-04 3.6767582594915927e-03 0.0000000000000000e+00  2.1178203967363597e-04 3.7011980486872033e-03 0.0000000000000000e+00  2.1307954107698646e-04 3.7249286623053891e-03 0.0000000000000000e+00  2.1435565239494623e-04 3.7479680157138009e-03 0.0000000000000000e+00  2.1562348405970385e-04 3.7703294223126833e-03 0.0000000000000000e+00  2.1690566228178349e-04 3.7920163166238518e-03 0.0000000000000000e+00  2.1823229842964895e-04 3.8130172005317060e-03 0.0000000000000000e+00  2.1963376103152450e-04 3.8333022130937655e-03 0.0000000000000000e+00  2.2112622855300493e-04 3.8528249563637390e-03 0.0000000000000000e+00  2.2268846668834958e-04 3.8715498045731643e-03 0.0000000000000000e+00  1.8368822534143846e-04 3.3256192343151564e-03 0.0000000000000000e+00  1.8503208154157963e-04 3.3579368888879339e-03 0.0000000000000000e+00  1.8633201800878965e-04 3.3898128338953307e-03 0.0000000000000000e+00  1.8759407167729181e-04 3.4212030448882943e-03 0.0000000000000000e+00  1.8882542336011359e-04 3.4520622139274731e-03 0.0000000000000000e+00  1.9003356079637590e-04 3.4823448998449278e-03 0.0000000000000000e+00  1.9122542334295496e-04 3.5120072085938672e-03 0.0000000000000000e+00  1.9240663964136551e-04 3.5410089142640685e-03 0.0000000000000000e+00  1.9358099129994374e-04 3.5693157209263394e-03 0.0000000000000000e+00  1.9475024383742995e-04 3.5969011377085637e-03 0.0000000000000000e+00  1.9591443904689215e-04 3.6237473067365356e-03 0.0000000000000000e+00  1.9707259336970682e-04 3.6498447406522498e-03 0.0000000000000000e+00  1.9822369257565435e-04 3.6751916808421149e-03 0.0000000000000000e+00  1.9936801476820714e-04 3.6997930886182437e-03 0.0000000000000000e+00  2.0050869612596469e-04 3.7236583583925694e-03 0.0000000000000000e+00  2.0165303457658079e-04 3.7467974780728318e-03 0.0000000000000000e+00  2.0281303879147327e-04 3.7692164206248194e-03 0.0000000000000000e+00  2.0400449209678507e-04 3.7909149776543766e-03 0.0000000000000000e+00  2.0524600884600248e-04 3.8118837101792083e-03 0.0000000000000000e+00  2.0655435855729959e-04 3.8321063933933162e-03 0.0000000000000000e+00  2.0793411665889631e-04 3.8515667440654966e-03 0.0000000000000000e+00  2.0935215082028345e-04 3.8702807569021736e-03 0.0000000000000000e+00  2.1075600611391440e-04 3.8882514656545341e-03 0.0000000000000000e+00  1.7406835560275635e-04 3.3538166824637269e-03 0.0000000000000000e+00  1.7529806173034561e-04 3.3860379150410379e-03 0.0000000000000000e+00  1.7646854165496558e-04 3.4177627036183155e-03 0.0000000000000000e+00  1.7758705095917451e-04 3.4489427055107245e-03 0.0000000000000000e+00  1.7866212158219695e-04 3.4795302193255640e-03 0.0000000000000000e+00  1.7970296791034615e-04 3.5094798901527361e-03 0.0000000000000000e+00  1.8071883331566364e-04 3.5387507143086819e-03 0.0000000000000000e+00  1.8171834255663135e-04 3.5673080504349860e-03 0.0000000000000000e+00  1.8270894231866365e-04 3.5951251914114460e-03 0.0000000000000000e+00  1.8369659779270977e-04 3.6221839100257476e-03 0.0000000000000000e+00  1.8468595556846612e-04 3.6484738760022106e-03 0.0000000000000000e+00  1.8568106682075662e-04 3.6739915529322435e-03 0.0000000000000000e+00  1.8668659624748423e-04 3.6987387524636500e-03 0.0000000000000000e+00  1.8770905417203352e-04 3.7227205110374243e-03 0.0000000000000000e+00  1.8875706533753230e-04 3.7459423920885760e-03 0.0000000000000000e+00  1.8984032226676464e-04 3.7684071512305850e-03 0.0000000000000000e+00  1.9096623438774970e-04 3.7901148285718845e-03 0.0000000000000000e+00  1.9214228063817344e-04 3.8110569280977624e-03 0.0000000000000000e+00  1.9337959219736052e-04 3.8312262908727864e-03 0.0000000000000000e+00  1.9468599635087450e-04 3.8506275703602292e-03 0.0000000000000000e+00  1.9602411441725783e-04 3.8693437888744470e-03 0.0000000000000000e+00  1.9733758464673154e-04 3.8873600810941183e-03 0.0000000000000000e+00  1.6373341843745805e-04 3.3824854373842184e-03 0.0000000000000000e+00  1.6481551415256637e-04 3.4145746525767128e-03 0.0000000000000000e+00  1.6582712516266992e-04 3.4461045927818798e-03 0.0000000000000000e+00  1.6677827371466597e-04 3.4770239678849810e-03 0.0000000000000000e+00  1.6768092272745184e-04 3.5072844160423554e-03 0.0000000000000000e+00  1.6854840514347920e-04 3.5368426368972564e-03 0.0000000000000000e+00  1.6939457999407603e-04 3.5656624998299173e-03 0.0000000000000000e+00  1.7023271237631894e-04 3.5937166828223471e-03 0.0000000000000000e+00  1.7107438180207103e-04 3.6209869980591480e-03 0.0000000000000000e+00  1.7192898086858680e-04 3.6474631222427885e-03 0.0000000000000000e+00  1.7280418726904078e-04 3.6731406884893069e-03 0.0000000000000000e+00  1.7370750211532140e-04 3.6980193821501955e-03 0.0000000000000000e+00  1.7464805791313724e-04 3.7221012954180678e-03 0.0000000000000000e+00  1.7563664113878999e-04 3.7453901913194654e-03 0.0000000000000000e+00  1.7668271944239726e-04 3.7678894330825854e-03 0.0000000000000000e+00  1.7778562288861226e-04 3.7896065388517749e-03 0.0000000000000000e+00  1.7893517073709717e-04 3.8105295930565869e-03 0.0000000000000000e+00  1.8013056759228602e-04 3.8306429692459574e-03 0.0000000000000000e+00  1.8140384387660074e-04 3.8499621151120572e-03 0.0000000000000000e+00  1.8269552716085514e-04 3.8686751778438727e-03 0.0000000000000000e+00  1.8400021770060947e-04 3.8867645936408201e-03 0.0000000000000000e+00  1.8515366035129778e-04 3.9041375810877094e-03 0.0000000000000000e+00  1.5263269693141212e-04 3.4116411801624431e-03 0.0000000000000000e+00  1.5354212284013498e-04 3.4435496689319100e-03 0.0000000000000000e+00  1.5437643178180463e-04 3.4748269670636604e-03 0.0000000000000000e+00  1.5515071824541874e-04 3.5054200473054525e-03 0.0000000000000000e+00  1.5588296493229253e-04 3.5352817108324297e-03 0.0000000000000000e+00  1.5659297239838183e-04 3.5643732192176306e-03 0.0000000000000000e+00  1.5730047168684640e-04 3.5926665268896183e-03 0.0000000000000000e+00  1.5802291713253296e-04 3.6201445133463850e-03 0.0000000000000000e+00  1.5877400610340059e-04 3.6467985291141454e-03 0.0000000000000000e+00  1.5956355921354411e-04 3.6726249222071923e-03 0.0000000000000000e+00  1.6039966798411974e-04 3.6976217449648844e-03 0.0000000000000000e+00  1.6129304708106855e-04 3.7217875103866373e-03 0.0000000000000000e+00  1.6225892042156986e-04 3.7451241904923236e-03 0.0000000000000000e+00  1.6331373001653594e-04 3.7676389599525695e-03 0.0000000000000000e+00  1.6445198589826979e-04 3.7893603052792015e-03 0.0000000000000000e+00  1.6565029662536540e-04 3.8102852519762789e-03 0.0000000000000000e+00  1.6685140483988206e-04 3.8303562397696295e-03 0.0000000000000000e+00  1.6808956723395459e-04 3.8495251944878758e-03 0.0000000000000000e+00  1.6934902956745101e-04 3.8682966300965390e-03 0.0000000000000000e+00  1.7046921767445224e-04 3.8863676270445261e-03 0.0000000000000000e+00  1.7176772333040113e-04 3.9043197545086204e-03 0.0000000000000000e+00  1.4144403138414451e-04 3.4729432049206365e-03 0.0000000000000000e+00  1.4209668759258975e-04 3.5038903637483756e-03 0.0000000000000000e+00  1.4270285792379302e-04 3.5340701151473789e-03 0.0000000000000000e+00  1.4328937156532029e-04 3.5634396799041463e-03 0.0000000000000000e+00  1.4388369968953453e-04 3.5919703213283297e-03 0.0000000000000000e+00  1.4451017962759601e-04 3.6196477673566536e-03 0.0000000000000000e+00  1.4518716686075402e-04 3.6464679101235751e-03 0.0000000000000000e+00  1.4592569060785523e-04 3.6724310432593972e-03 0.0000000000000000e+00  1.4673092791926370e-04 3.6975345410108665e-03 0.0000000000000000e+00  1.4761064854399968e-04 3.7217688824649616e-03 0.0000000000000000e+00  1.4858637347827671e-04 3.7451287511042438e-03 0.0000000000000000e+00  1.4969260453450944e-04 3.7676203725919943e-03 0.0000000000000000e+00  1.5093719458861193e-04 3.7893248453306169e-03 0.0000000000000000e+00  1.5228118453507436e-04 3.8102442813253228e-03 0.0000000000000000e+00  1.5369513493128457e-04 3.8303890226629167e-03 0.0000000000000000e+00  1.5489178984634441e-04 3.8493652068999039e-03 0.0000000000000000e+00  1.5576474840727625e-04 3.8681058572232170e-03 0.0000000000000000e+00  1.5706922726622228e-04 3.8867785136288998e-03 0.0000000000000000e+00  1.5626454277192049e-04 3.9040772153606943e-03 0.0000000000000000e+00  1.5591959548460541e-04 3.9206757469572974e-03 0.0000000000000000e+00  1.2849658639291667e-04 3.5027036921776592e-03 0.0000000000000000e+00  1.2898170221528122e-04 3.5332157907171603e-03 0.0000000000000000e+00  1.2945257428316004e-04 3.5628672806331681e-03 0.0000000000000000e+00  1.2994635075605135e-04 3.5916286914157948e-03 0.0000000000000000e+00  1.3049603275268952e-04 3.6194911885432499e-03 0.0000000000000000e+00  1.3112614838082669e-04 3.6464594241298908e-03 0.0000000000000000e+00  1.3184940481759079e-04 3.6725433247983643e-03 0.0000000000000000e+00  1.3266659105180129e-04 3.6977455527551781e-03 0.0000000000000000e+00  1.3357146566478787e-04 3.7220423496289175e-03 0.0000000000000000e+00  1.3457878286779782e-04 3.7453987158410002e-03 0.0000000000000000e+00  1.3576634416759083e-04 3.7678058336650484e-03 0.0000000000000000e+00  1.3715119349452185e-04 3.7894184427730454e-03 0.0000000000000000e+00  1.3880195923133277e-04 3.8103240548464376e-03 0.0000000000000000e+00  1.4049761387399703e-04 3.8303720302669294e-03 0.0000000000000000e+00  1.4281749580186430e-04 3.8499749137424783e-03 0.0000000000000000e+00  1.4167660714922147e-04 3.8687683093792543e-03 0.0000000000000000e+00  1.4089291936199627e-04 3.8866657955694108e-03 0.0000000000000000e+00  1.4047294990981313e-04 3.9038804641692341e-03 0.0000000000000000e+00  1.4015126561765442e-04 3.9205554382431909e-03 0.0000000000000000e+00  1.3992099342995278e-04 3.9368572621294364e-03 0.0000000000000000e+00  1.1468702879429275e-04 3.5327332916473097e-03 0.0000000000000000e+00  1.1504509303713012e-04 3.5626684538253681e-03 0.0000000000000000e+00  1.1544539254569020e-04 3.5916484248016902e-03 0.0000000000000000e+00  1.1593188667520832e-04 3.6196734499131015e-03 0.0000000000000000e+00  1.1653748217896377e-04 3.6467619227362569e-03 0.0000000000000000e+00  1.1727925086717699e-04 3.6729421428942687e-03 0.0000000000000000e+00  1.1815352788252220e-04 3.6982318843144864e-03 0.0000000000000000e+00  1.1914586524123063e-04 3.7226120820409254e-03 0.0000000000000000e+00  1.2020056616844919e-04 3.7459811297266415e-03 0.0000000000000000e+00  1.2138978472794403e-04 3.7682150729989690e-03 0.0000000000000000e+00  1.2283364305178300e-04 3.7897633732134352e-03 0.0000000000000000e+00  1.2431339490513361e-04 3.8104849740165994e-03 0.0000000000000000e+00  1.2633201358322111e-04 3.8314186700678216e-03 0.0000000000000000e+00  1.2565148607945398e-04 3.8501913526128883e-03 0.0000000000000000e+00  1.2502305691867261e-04 3.8686186472695078e-03 0.0000000000000000e+00  1.2454186225318187e-04 3.8864905765119816e-03 0.0000000000000000e+00  1.2419684581555884e-04 3.9037475394020607e-03 0.0000000000000000e+00  1.2397942619167559e-04 3.9205153151915485e-03 0.0000000000000000e+00  1.2386665920659964e-04 3.9368652630772877e-03 0.0000000000000000e+00  1.2382987399916676e-04 3.9528558796997175e-03 0.0000000000000000e+00  1.0002483573390340e-04 3.5628638629405570e-03 0.0000000000000000e+00  1.0033339626920451e-04 3.5920440389040145e-03 0.0000000000000000e+00  1.0076329481224784e-04 3.6201992769272161e-03 0.0000000000000000e+00  1.0135965427007628e-04 3.6473675749638529e-03 0.0000000000000000e+00  1.0214523970862444e-04 3.6736028518165086e-03 0.0000000000000000e+00  1.0312525596140824e-04 3.6989574134262404e-03 0.0000000000000000e+00  1.0427178778888152e-04 3.7234064830906641e-03 0.0000000000000000e+00  1.0559689552888736e-04 3.7469508449739187e-03 0.0000000000000000e+00  1.0673771402921331e-04 3.7689891675285075e-03 0.0000000000000000e+00  1.0778900595326961e-04 3.7902132595850056e-03 0.0000000000000000e+00  1.0973705818675379e-04 3.8116164553256421e-03 0.0000000000000000e+00  1.0881752491805162e-04 3.8311869576542383e-03 0.0000000000000000e+00  1.0839862046527583e-04 3.8500055289066807e-03 0.0000000000000000e+00  1.0792431030128814e-04 3.8684889532381020e-03 0.0000000000000000e+00  1.0759717810420606e-04 3.8863862276104712e-03 0.0000000000000000e+