<?xml version="1.0"?>
<VTKFile type="UnstructuredGrid"  version="0.1"  >
<UnstructuredGrid>
<Piece  NumberOfPoints="40501" NumberOfCells="80000">
<Points>
<DataArray  type="Float64"  NumberOfComponents="3"  format="ascii">0 0 0  0.0095 0 0  0.019 0 0  0.0285 0 0  0.038 0 0  0.0475 0 0  0.057 0 0  0.06649999999999999 0 0  0.076 0 0  0.08549999999999999 0 0  0.095 0 0  0.1045 0 0  0.114 0 0  0.1235 0 0  0.133 0 0  0.1425 0 0  0.152 0 0  0.1615 0 0  0.171 0 0  0.1805 0 0  0.19 0 0  0.1995 0 0  0.209 0 0  0.2185 0 0  0.228 0 0  0.2375 0 0  0.247 0 0  0.2565 0 0  0.266 0 0  0.2755 0 0  0.285 0 0  0.2945 0 0  0.304 0 0  0.3135 0 0  0.323 0 0  0.3325 0 0  0.342 0 0  0.3515 0 0  0.361 0 0  0.3705 0 0  0.38 0 0  0.3895 0 0  0.399 0 0  0.4085 0 0  0.418 0 0  0.4275 0 0  0.4369999999999999 0 0  0.4465 0 0  0.456 0 0  0.4655 0 0  0.475 0 0  0.4844999999999999 0 0  0.494 0 0  0.5034999999999999 0 0  0.513 0 0  0.5225 0 0  0.5319999999999999 0 0  0.5415 0 0  0.5509999999999999 0 0  0.5605 0 0  0.57 0 0  0.5794999999999999 0 0  0.589 0 0  0.5984999999999999 0 0  0.608 0 0  0.6175 0 0  0.627 0 0  0.6365 0 0  0.6459999999999999 0 0  0.6555 0 0  0.665 0 0  0.6745 0 0  0.6839999999999999 0 0  0.6934999999999999 0 0  0.703 0 0  0.7125 0 0  0.722 0 0  0.7314999999999999 0 0  0.741 0 0  0.7504999999999999 0 0  0.76 0 0  0.7695000000000001 0 0  0.7789999999999999 0 0  0.7885 0 0  0.7979999999999999 0 0  0.8075 0 0  0.8170000000000001 0 0  0.8264999999999999 0 0  0.836 0 0  0.8454999999999999 0 0  0.855 0 0  0.8645 0 0  0.8739999999999999 0 0  0.8835 0 0  0.893 0 0  0.9025 0 0  0.9119999999999999 0 0  0.9214999999999999 0 0  0.9309999999999999 0 0  0.9405 0 0  0.95 0 0  0.9594999999999999 0 0  0.9689999999999999 0 0  0.9784999999999999 0 0  0.988 0 0  0.9975000000000001 0 0  1.007 0 0  1.0165 0 0  1.026 0 0  1.0355 0 0  1.045 0 0  1.0545 0 0  1.064 0 0  1.0735 0 0  1.083 0 0  1.0925 0 0  1.102 0 0  1.1115 0 0  1.121 0 0  1.1305 0 0  1.14 0 0  1.1495 0 0  1.159 0 0  1.1685 0 0  1.178 0 0  1.1875 0 0  1.197 0 0  1.2065 0 0  1.216 0 0  1.2255 0 0  1.235 0 0  1.2445 0 0  1.254 0 0  1.2635 0 0  1.273 0 0  1.2825 0 0  1.292 0 0  1.3015 0 0  1.311 0 0  1.3205 0 0  1.33 0 0  1.3395 0 0  1.349 0 0  1.3585 0 0  1.368 0 0  1.3775 0 0  1.387 0 0  1.3965 0 0  1.406 0 0  1.4155 0 0  1.425 0 0  1.4345 0 0  1.444 0 0  1.4535 0 0  1.463 0 0  1.4725 0 0  1.482 0 0  1.4915 0 0  1.501 0 0  1.5105 0 0  1.52 0 0  1.5295 0 0  1.539 0 0  1.5485 0 0  1.558 0 0  1.5675 0 0  1.577 0 0  1.5865 0 0  1.596 0 0  1.6055 0 0  1.615 0 0  1.6245 0 0  1.634 0 0  1.6435 0 0  1.653 0 0  1.6625 0 0  1.672 0 0  1.6815 0 0  1.691 0 0  1.7005 0 0  1.71 0 0  1.7195 0 0  1.729 0 0  1.7385 0 0  1.748 0 0  1.7575 0 0  1.767 0 0  1.7765 0 0  1.786 0 0  1.7955 0 0  1.805 0 0  1.8145 0 0  1.824 0 0  1.8335 0 0  1.843 0 0  1.8525 0 0  1.862 0 0  1.8715 0 0  1.881 0 0  1.8905 0 0  1.9 0 0  1.9095 0 0  1.919 0 0  1.9285 0 0  1.938 0 0  1.9475 0 0  1.957 0 0  1.9665 0 0  1.976 0 0  1.9855 0 0  1.995 0 0  2.0045 0 0  2.014 0 0  2.0235 0 0  2.033 0 0  2.0425 0 0  2.052 0 0  2.0615 0 0  2.071 0 0  2.0805 0 0  2.09 0 0  2.0995 0 0  2.109 0 0  2.1185 0 0  2.128 0 0  2.1375 0 0  2.147 0 0  2.1565 0 0  2.166 0 0  2.1755 0 0  2.185 0 0  2.1945 0 0  2.204 0 0  2.2135 0 0  2.223 0 0  2.2325 0 0  2.242 0 0  2.2515 0 0  2.261 0 0  2.2705 0 0  2.28 0 0  2.2895 0 0  2.299 0 0  2.3085 0 0  2.318 0 0  2.3275 0 0  2.337 0 0  2.3465 0 0  2.356 0 0  2.3655 0 0  2.375 0 0  2.3845 0 0  2.394 0 0  2.4035 0 0  2.413 0 0  2.4225 0 0  2.432 0 0  2.4415 0 0  2.451 0 0  2.4605 0 0  2.47 0 0  2.4795 0 0  2.489 0 0  2.4985 0 0  2.508 0 0  2.5175 0 0  2.527 0 0  2.5365 0 0  2.546 0 0  2.5555 0 0  2.565 0 0  2.5745 0 0  2.584 0 0  2.5935 0 0  2.603 0 0  2.6125 0 0  2.622 0 0  2.6315 0 0  2.641 0 0  2.6505 0 0  2.66 0 0  2.6695 0 0  2.679 0 0  2.688499999999999 0 0  2.698 0 0  2.7075 0 0  2.717 0 0  2.7265 0 0  2.736 0 0  2.7455 0 0  2.755 0 0  2.7645 0 0  2.774 0 0  2.7835 0 0  2.793 0 0  2.8025 0 0  2.812 0 0  2.8215 0 0  2.831 0 0  2.8405 0 0  2.85 0 0  2.8595 0 0  2.869 0 0  2.8785 0 0  2.888 0 0  2.8975 0 0  2.907 0 0  2.9165 0 0  2.926 0 0  2.9355 0 0  2.945 0 0  2.9545 0 0  2.964 0 0  2.9735 0 0  2.983 0 0  2.9925 0 0  3.002 0 0  3.0115 0 0  3.020999999999999 0 0  3.0305 0 0  3.04 0 0  3.0495 0 0  3.059 0 0  3.0685 0 0  3.078 0 0  3.0875 0 0  3.097 0 0  3.1065 0 0  3.116 0 0  3.1255 0 0  3.135 0 0  3.1445 0 0  3.154 0 0  3.1635 0 0  3.173 0 0  3.1825 0 0  3.192 0 0  3.2015 0 0  3.211 0 0  3.2205 0 0  3.23 0 0  3.2395 0 0  3.249 0 0  3.2585 0 0  3.268 0 0  3.2775 0 0  3.287 0 0  3.2965 0 0  3.306 0 0  3.3155 0 0  3.325 0 0  3.3345 0 0  3.344 0 0  3.353499999999999 0 0  3.363 0 0  3.3725 0 0  3.382 0 0  3.3915 0 0  3.401 0 0  3.4105 0 0  3.42 0 0  3.4295 0 0  3.439 0 0  3.4485 0 0  3.458 0 0  3.4675 0 0  3.477 0 0  3.4865 0 0  3.496 0 0  3.5055 0 0  3.515 0 0  3.5245 0 0  3.534 0 0  3.5435 0 0  3.553 0 0  3.5625 0 0  3.572 0 0  3.5815 0 0  3.591 0 0  3.6005 0 0  3.61 0 0  3.6195 0 0  3.629 0 0  3.6385 0 0  3.648 0 0  3.6575 0 0  3.667 0 0  3.6765 0 0  3.685999999999999 0 0  3.6955 0 0  3.705 0 0  3.7145 0 0  3.724 0 0  3.7335 0 0  3.742999999999999 0 0  3.7525 0 0  3.762 0 0  3.7715 0 0  3.781 0 0  3.7905 0 0  3.8 0 0  0 0.005 0  0.0095 0.005 0  0.019 0.005 0  0.0285 0.005 0  0.038 0.005 0  0.0475 0.005 0  0.057 0.005 0  0.06649999999999999 0.005 0  0.076 0.005 0  0.08549999999999999 0.005 0  0.095 0.005 0  0.1045 0.005 0  0.114 0.005 0  0.1235 0.005 0  0.133 0.005 0  0.1425 0.005 0  0.152 0.005 0  0.1615 0.005 0  0.171 0.005 0  0.1805 0.005 0  0.19 0.005 0  0.1995 0.005 0  0.209 0.005 0  0.2185 0.005 0  0.228 0.005 0  0.2375 0.005 0  0.247 0.005 0  0.2565 0.005 0  0.266 0.005 0  0.2755 0.005 0  0.285 0.005 0  0.2945 0.005 0  0.304 0.005 0  0.3135 0.005 0  0.323 0.005 0  0.3325 0.005 0  0.342 0.005 0  0.3515 0.005 0  0.361 0.005 0  0.3705 0.005 0  0.38 0.005 0  0.3895 0.005 0  0.399 0.005 0  0.4085 0.005 0  0.418 0.005 0  0.4275 0.005 0  0.4369999999999999 0.005 0  0.4465 0.005 0  0.456 0.005 0  0.4655 0.005 0  0.475 0.005 0  0.4844999999999999 0.005 0  0.494 0.005 0  0.5034999999999999 0.005 0  0.513 0.005 0  0.5225 0.005 0  0.5319999999999999 0.005 0  0.5415 0.005 0  0.5509999999999999 0.005 0  0.5605 0.005 0  0.57 0.005 0  0.5794999999999999 0.005 0  0.589 0.005 0  0.5984999999999999 0.005 0  0.608 0.005 0  0.6175 0.005 0  0.627 0.005 0  0.6365 0.005 0  0.6459999999999999 0.005 0  0.6555 0.005 0  0.665 0.005 0  0.6745 0.005 0  0.6839999999999999 0.005 0  0.6934999999999999 0.005 0  0.703 0.005 0  0.7125 0.005 0  0.722 0.005 0  0.7314999999999999 0.005 0  0.741 0.005 0  0.7504999999999999 0.005 0  0.76 0.005 0  0.7695000000000001 0.005 0  0.7789999999999999 0.005 0  0.7885 0.005 0  0.7979999999999999 0.005 0  0.8075 0.005 0  0.8170000000000001 0.005 0  0.8264999999999999 0.005 0  0.836 0.005 0  0.8454999999999999 0.005 0  0.855 0.005 0  0.8645 0.005 0  0.8739999999999999 0.005 0  0.8835 0.005 0  0.893 0.005 0  0.9025 0.005 0  0.9119999999999999 0.005 0  0.9214999999999999 0.005 0  0.9309999999999999 0.005 0  0.9405 0.005 0  0.95 0.005 0  0.9594999999999999 0.005 0  0.9689999999999999 0.005 0  0.9784999999999999 0.005 0  0.988 0.005 0  0.9975000000000001 0.005 0  1.007 0.005 0  1.0165 0.005 0  1.026 0.005 0  1.0355 0.005 0  1.045 0.005 0  1.0545 0.005 0  1.064 0.005 0  1.0735 0.005 0  1.083 0.005 0  1.0925 0.005 0  1.102 0.005 0  1.1115 0.005 0  1.121 0.005 0  1.1305 0.005 0  1.14 0.005 0  1.1495 0.005 0  1.159 0.005 0  1.1685 0.005 0  1.178 0.005 0  1.1875 0.005 0  1.197 0.005 0  1.2065 0.005 0  1.216 0.005 0  1.2255 0.005 0  1.235 0.005 0  1.2445 0.005 0  1.254 0.005 0  1.2635 0.005 0  1.273 0.005 0  1.2825 0.005 0  1.292 0.005 0  1.3015 0.005 0  1.311 0.005 0  1.3205 0.005 0  1.33 0.005 0  1.3395 0.005 0  1.349 0.005 0  1.3585 0.005 0  1.368 0.005 0  1.3775 0.005 0  1.387 0.005 0  1.3965 0.005 0  1.406 0.005 0  1.4155 0.005 0  1.425 0.005 0  1.4345 0.005 0  1.444 0.005 0  1.4535 0.005 0  1.463 0.005 0  1.4725 0.005 0  1.482 0.005 0  1.4915 0.005 0  1.501 0.005 0  1.5105 0.005 0  1.52 0.005 0  1.5295 0.005 0  1.539 0.005 0  1.5485 0.005 0  1.558 0.005 0  1.5675 0.005 0  1.577 0.005 0  1.5865 0.005 0  1.596 0.005 0  1.6055 0.005 0  1.615 0.005 0  1.6245 0.005 0  1.634 0.005 0  1.6435 0.005 0  1.653 0.005 0  1.6625 0.005 0  1.672 0.005 0  1.6815 0.005 0  1.691 0.005 0  1.7005 0.005 0  1.71 0.005 0  1.7195 0.005 0  1.729 0.005 0  1.7385 0.005 0  1.748 0.005 0  1.7575 0.005 0  1.767 0.005 0  1.7765 0.005 0  1.786 0.005 0  1.7955 0.005 0  1.805 0.005 0  1.8145 0.005 0  1.824 0.005 0  1.8335 0.005 0  1.843 0.005 0  1.8525 0.005 0  1.862 0.005 0  1.8715 0.005 0  1.881 0.005 0  1.8905 0.005 0  1.9 0.005 0  1.9095 0.005 0  1.919 0.005 0  1.9285 0.005 0  1.938 0.005 0  1.9475 0.005 0  1.957 0.005 0  1.9665 0.005 0  1.976 0.005 0  1.9855 0.005 0  1.995 0.005 0  2.0045 0.005 0  2.014 0.005 0  2.0235 0.005 0  2.033 0.005 0  2.0425 0.005 0  2.052 0.005 0  2.0615 0.005 0  2.071 0.005 0  2.0805 0.005 0  2.09 0.005 0  2.0995 0.005 0  2.109 0.005 0  2.1185 0.005 0  2.128 0.005 0  2.1375 0.005 0  2.147 0.005 0  2.1565 0.005 0  2.166 0.005 0  2.1755 0.005 0  2.185 0.005 0  2.1945 0.005 0  2.204 0.005 0  2.2135 0.005 0  2.223 0.005 0  2.2325 0.005 0  2.242 0.005 0  2.2515 0.005 0  2.261 0.005 0  2.2705 0.005 0  2.28 0.005 0  2.2895 0.005 0  2.299 0.005 0  2.3085 0.005 0  2.318 0.005 0  2.3275 0.005 0  2.337 0.005 0  2.3465 0.005 0  2.356 0.005 0  2.3655 0.005 0  2.375 0.005 0  2.3845 0.005 0  2.394 0.005 0  2.4035 0.005 0  2.413 0.005 0  2.4225 0.005 0  2.432 0.005 0  2.4415 0.005 0  2.451 0.005 0  2.4605 0.005 0  2.47 0.005 0  2.4795 0.005 0  2.489 0.005 0  2.4985 0.005 0  2.508 0.005 0  2.5175 0.005 0  2.527 0.005 0  2.5365 0.005 0  2.546 0.005 0  2.5555 0.005 0  2.565 0.005 0  2.5745 0.005 0  2.584 0.005 0  2.5935 0.005 0  2.603 0.005 0  2.6125 0.005 0  2.622 0.005 0  2.6315 0.005 0  2.641 0.005 0  2.6505 0.005 0  2.66 0.005 0  2.6695 0.005 0  2.679 0.005 0  2.688499999999999 0.005 0  2.698 0.005 0  2.7075 0.005 0  2.717 0.00
[...]
<PointData  Scalars="rho_bar"> 
<DataArray  type="Float64"  Name="rho_bar"  format="ascii">9.6723509992166323e-01  9.6699972889302277e-01  9.6664437583118401e-01  9.6610453692984477e-01  9.6536410979837328e-01  9.6441384251504347e-01  9.6324546134050082e-01  9.6185032108607260e-01  9.6021916726004042e-01  9.5834200138644554e-01  9.5620824390483927e-01  9.5380684658713644e-01  9.5112665161481813e-01  9.4815676663074955e-01  9.4488725017259523e-01  9.4130989814118915e-01  9.3741954274563022e-01  9.3321567777478887e-01  9.2870491828412760e-01  9.2390391867452859e-01  9.1884286772831525e-01  9.1356895571576480e-01  9.0815004540241306e-01  9.0267742402624362e-01  8.9726640644057398e-01  8.9205371101176734e-01  8.8719150972266736e-01  8.8283920442307773e-01  8.7915416514698863e-01  8.7628229685350167e-01  8.7435124203791836e-01  8.7346495728332008e-01  8.7369618107029867e-01  8.7507867821461760e-01  8.7760163945537206e-01  8.8120655656915192e-01  8.8578743925495995e-01  8.9119450974784686e-01  8.9724187546826528e-01  9.0371923840209678e-01  9.1040642742222844e-01  9.1708557685161574e-01  9.2355253770566159e-01  9.2962665747613349e-01  9.3515754694547548e-01  9.4002735444517793e-01  9.4414855881244764e-01  9.4745769339153374e-01  9.4990711736309807e-01  9.5145623647512179e-01  9.5206385716085562e-01  9.5168264014455595e-01  9.5025528744526655e-01  9.4770865501413348e-01  9.4394827769090073e-01  9.3886284567077116e-01  9.3234323059035351e-01  9.2431378795950958e-01  9.1476812488120418e-01  9.0380045945639620e-01  8.9162455762331450e-01  8.7857244117862343e-01  8.6506993600349280e-01  8.5159228858581770e-01  8.3861022339870672e-01  8.2653892346740965e-01  8.1570209722262099e-01  8.0631696444137158e-01  7.9849520244832484e-01  7.9225105657735440e-01  7.8751857327427477e-01  7.8417394884624214e-01  7.8205562912090332e-01  7.8097883992492123e-01  7.8075103789898626e-01  7.8118653744997324e-01  7.8211555987539150e-01  7.8338668587536131e-01  7.8486895955202007e-01  7.8645234130011854e-01  7.8804717459573281e-01  7.8958339236322062e-01  7.9101096680175242e-01  7.9230176661969043e-01  7.9344872253192866e-01  7.9445750710589613e-01  7.9534220484962703e-01  7.9612211110817543e-01  7.9681826907533937e-01  7.9745012083938038e-01  7.9803358617479514e-01  7.9858029261754060e-01  7.9909801289893923e-01  7.9959129440111387e-01  8.0006224112550717e-01  8.0051087126040565e-01  8.0093567624110173e-01  8.0133422422069434e-01  8.0170410902141576e-01  8.0204340417668041e-01  8.0235085978513443e-01  8.0262542478305166e-01  8.0286571332587275e-01  8.0306916189114796e-01  8.0323152124291897e-01  8.0334640489737841e-01  8.0340542141895210e-01  8.0339846446755259e-01  8.0331453629484706e-01  8.0314259086221274e-01  8.0287267775491300e-01  8.0249678741649411e-01  8.0200977682241881e-01  8.0140987237009553e-01  8.0069918162522213e-01  7.9988369075318699e-01  7.9897311406339999e-01  7.9798005310531650e-01  7.9691893961858906e-01  7.9580458537167820e-01  7.9465075978975475e-01  7.9346840410937458e-01  7.9226844397030283e-01  7.9106935202166806e-01  7.8989131391920664e-01  7.8874219215608099e-01  7.8760108971003473e-01  7.8640947272735351e-01  7.8508903321430890e-01  7.8357366199913314e-01  7.8183805486669766e-01  7.7992116154436231e-01  7.7793381070107948e-01  7.7605497179689042e-01  7.7452140059071239e-01  7.7361201168582483e-01  7.7363051228275448e-01  7.7488652719548023e-01  7.7766638129338783e-01  7.8219690115558937e-01  7.8860833739580760e-01  7.9690053758243617e-01  8.0691820558554961e-01  8.1836532675933360e-01  8.3086071559788544e-01  8.4397406719686119e-01  8.5725567667148428e-01  8.7026943644036192e-01  8.8262583435633102e-01  8.9400831094415756e-01  9.0418797674698537e-01  9.1302439925884604e-01  9.2045466360956696e-01  9.2647503992169955e-01  9.3112097095253599e-01  9.3445125559287934e-01  9.3653643821419474e-01  9.3744405629035910e-01  9.3722847654779851e-01  9.3592680543426610e-01  9.3355923405645302e-01  9.3013183463782401e-01  9.2564125274383335e-01  9.2008072467520863e-01  9.1344712168020525e-01  9.0574822122852061e-01  8.9701053526457086e-01  8.8728636860920773e-01  8.7666041811160555e-01  8.6525535584248414e-01  8.5323641449843668e-01  8.4081451155131182e-01  8.2824806932163864e-01  8.1584230994472995e-01  8.0394530511091078e-01  7.9293911739617751e-01  7.8322410538804887e-01  7.7519041473159933e-01  7.6917770003785269e-01  7.6544589690213238e-01  7.6415572124221176e-01  7.6535556338661559e-01  7.6897518254706498e-01  7.7482319471676675e-01  7.8259283952435055e-01  7.9187887260090828e-01  8.0220631134538778e-01  8.1306812598509570e-01  8.2396619659642256e-01  8.3444816707893399e-01  8.4413519316442931e-01  8.5273453469097582e-01  8.6003743983068581e-01  8.6591093594276347e-01  8.7028660939505997e-01  8.7314868686809199e-01  8.7452457883126855e-01  8.7448306577973578e-01  8.7314154558251778e-01  8.7066572446795010e-01  8.6726489455865563e-01  8.6318472191349516e-01  8.5869845132300682e-01  8.5409549446680122e-01  8.4965551422380325e-01  8.4560160879170032e-01  8.4207181588143887e-01  8.3911179182303186e-01  8.3668047043616722e-01  8.3466555012758159e-01  8.3290439500383451e-01  8.3120441724018523e-01  8.2936038205603768e-01  8.2717208296108424e-01  8.2446015561128838e-01  8.2107084495564941e-01  8.1687565545222829e-01  8.1177112003240193e-01  8.0568231511916300e-01  7.9856740862819664e-01  7.9042299679951533e-01  7.8129004900840360e-01  7.7125983628353711e-01  7.6047787218150631e-01  7.4914214371190824e-01  7.3749365857367633e-01  7.2580238242318396e-01  7.1435310783335682e-01  7.0343628249313372e-01  6.9334501791897607e-01  6.8437606558059871e-01  6.7682800450236591e-01  6.7098842828040617e-01  6.6709602900872944e-01  6.6528688670391867e-01  6.6558419111966605e-01  6.6791453745769536e-01  6.7213010949226937e-01  6.7802959868727919e-01  6.8537261607333566e-01  6.9388323943506458e-01  7.0324354228510033e-01  7.1308912729687357e-01  7.2301876168992774e-01  7.3261734026901992e-01  7.4148116224893368e-01  7.4923411340643820e-01  7.5552995153432312e-01  7.6005040924393519e-01  7.6251295492628890e-01  7.6269246342863484e-01  7.6045109262283306e-01  7.5574775833981112e-01  7.4861152508885687e-01  7.3913779531178936e-01  7.2750445569232713e-01  7.1399152816953315e-01  6.9899197519861500e-01  6.8300997585417345e-01  6.6664839549521471e-01  6.5058885224842378e-01  6.3553713079109608e-01  6.2210408938677852e-01  6.1071656818600495e-01  6.0157971032419932e-01  5.9469344237231492e-01  5.8990706086630085e-01  5.8697719177876695e-01  5.8562481383627263e-01  5.8557333516573429e-01  5.8655816742295752e-01  5.8836113924634958e-01  5.9076703186875035e-01  5.9354273367052768e-01  5.9647869716564927e-01  5.9940095579682273e-01  6.0217478970335270e-01  6.0470853140890146e-01  6.0695180950312722e-01  6.0888881444325793e-01  6.1052977211917703e-01  6.1190226099500677e-01  6.1304358127307756e-01  6.1399452077873173e-01  6.1479561284917572e-01  6.1548600482896665e-01  6.1610385826715253e-01  6.1668573072604183e-01  6.1726464321131536e-01  6.1786707632890991e-01  6.1850956674646940e-01  6.1919522813602734e-01  6.1991116652571143e-01  6.2062675825266878e-01  6.2129388529882246e-01  6.2185045034409459e-01  6.2222741961661177e-01  6.2235690057872006e-01  6.2217975158380312e-01  6.2164984374567211e-01  6.2073169797162131e-01  6.1939509847026397e-01  6.1761554765641247e-01  6.1537730845056049e-01  6.1267872008751412e-01  6.0954450294694229e-01  6.0603923923876801e-01  6.0227580905020661e-01  5.9841284020951713e-01  5.9465015435371849e-01  5.9122662960632166e-01  5.8840406005749912e-01  5.8644573945238621e-01  5.8558941588972424e-01  5.8600516229282262e-01  5.8771189517488687e-01  5.9048408523058060e-01  5.9386781246990450e-01  5.9732461252584756e-01  6.0027328652139123e-01  6.0214909553126306e-01  6.0249240302557938e-01  6.0093918204230412e-01  5.9709624514440884e-01  5.9055593410707929e-01  5.8099279995554176e-01  5.6836872451062115e-01  5.5285160979923165e-01  5.3436363727832903e-01  5.1252888634256744e-01  4.8687157027587252e-01  4.5700945229846140e-01  4.2284188890285962e-01  3.8479628523803483e-01  3.4397406508999961e-01  3.0198530817687508e-01  2.6062096817880609e-01  2.2158556212992314e-01  1.8626177297226940e-01  1.5536582873709551e-01  1.2898712703589180e-01  1.0683123725137360e-01  8.8425438238493914e-02  7.3244871350809870e-02  6.0780699897970553e-02  5.0571549994555313e-02  4.2213878197843106e-02  3.5364422122952224e-02  2.9738533697526780e-02  2.5103303654833174e-02  2.1270084317294751e-02  1.8087173024274619e-02  1.5433020642325015e-02  1.3210338931931985e-02  1.1341186832656789e-02  9.7629860715799429e-03  8.4253284723992457e-03  7.2874558042239704e-03  6.3162660859960272e-03  5.4847548671887085e-03  4.7707846664575412e-03  4.1561228373582833e-03  3.6256786732192597e-03  3.1669067775918513e-03  2.7693272513406538e-03  2.4241503148985945e-03  2.1239715960775776e-03  1.8625308086001491e-03  1.6345143875290320e-03  1.4353992835948351e-03  1.2613212268559103e-03  1.1089713909587199e-03  9.7550822805991691e-04  8.5848658491667672e-04  7.5579722455307720e-04  6.6561853306994635e-04  5.8637332946864340e-04  5.1669528547399965e-04  4.5539848271840277e-04  4.0145299199143963e-04  3.5396293735685878e-04  3.1214914375787904e-04  2.7533266642782941e-04  2.4292229057381280e-04  2.1440261013567222e-04  1.8932452625913243e-04  1.6729645304805593e-04  1.4797751756923951e-04  1.3107073057674846e-04  1.1631816336249693e-04  1.0349599900891786e-04  9.2410878692426252e-05  8.2896323472758196e-05  7.4810205019743882e-05  6.8032100172276969e-05  6.2461659860321112e-05  5.8016986343910717e-05  5.4633865743177997e-05  5.2265960476052264e-05  5.0890168096542866e-05  5.0546716037171077e-05  9.6682290920885505e-01  9.6665573868111287e-01  9.6630440746396196e-01  9.6575925708856381e-01  9.6500973050045069e-01  9.6404727661052336e-01  9.6286364553218129e-01  9.6145010294409705e-01  9.5979723275492435e-01  9.5789487667341233e-01  9.5573225380687277e-01  9.5329813194931989e-01  9.5058114199791011e-01  9.4757021748363590e-01  9.4425523015062207e-01  9.4062785973122232e-01  9.3668283362533444e-01  9.3241965027845053e-01  9.2784502131616042e-01  9.2297595584315573e-01  9.1784326957008588e-01  9.1249520849123267e-01  9.0700103612399063e-01  9.0145387075656058e-01  8.9597109083965365e-01  8.9069166083265550e-01  8.8576996930272778e-01  8.8136757704089319e-01  8.7764371435335953e-01  8.7474588091119876e-01  8.7280290836139618e-01  8.7191948187797952e-01  8.7216862437553910e-01  8.7358404063412443e-01  8.7615434072211917e-01  8.7981999928122356e-01  8.8447344993846244e-01  8.8996293885546063e-01  8.9610021281551655e-01  9.0267234205080238e-01  9.0945627166915877e-01  9.1623131161951332e-01  9.2279058961760352e-01  9.2895109294661871e-01  9.3456049626939763e-01  9.3949960131254462e-01  9.4368003886178897e-01  9.4703796526157169e-01  9.4952560109210449e-01  9.5110231918937560e-01  9.5172673458451140e-01  9.5135098649231353e-01  9.4991657030942445e-01  9.4734860104637830e-01  9.4355046400056575e-01  9.3840849874942889e-01  9.3181114498510698e-01  9.2368061820201686e-01  9.1400993397471197e-01  9.0289521230225345e-01  8.9055460813873399e-01  8.7732660394389617e-01  8.6364455650760574e-01  8.4999134117810360e-01  8.3684433266854885e-01  8.2462382392637690e-01  8.1365658003979868e-01  8.0416090775198956e-01  7.9624828083362897e-01  7.8993216322413895e-01  7.8514504423804043e-01  7.8176091116249602e-01  7.7961589852636959e-01  7.7852315036122177e-01  7.7828780946099518e-01  7.7872170816909936e-01  7.7965291421057192e-01  7.8092849338893400e-01  7.8241625581335028e-01  7.8400531141385832e-01  7.8560527293496785e-01  7.8714559931526029e-01  7.8857575740861530e-01  7.8986704828235144e-01  7.9101205997754109e-01  7.9201686745592481e-01  7.9289612023105993e-01  7.9366989674177491e-01  7.9435991958184793e-01  7.9498623345350006e-01  7.9556506491492829e-01  7.9610824793513268e-01  7.9662354880558728e-01  7.9711554123323081e-01  7.9758624118289789e-01  7.9803561337300655e-01  7.9846195396833985e-01  7.9886267694325563e-01  7.9923515029814207e-01  7.9957736632250753e-01  7.9988796057578049e-01  8.0016588677766731e-01  8.0040969558979724e-01  8.0061683485585566e-01  8.0078294209827261e-01  8.0090156436461268e-01  8.0096411540785240e-01  8.0096033876512629e-01  8.0087899442878807e-01  8.0070888809421115e-01  8.0043987332129463e-01  8.0006389534757261e-01  7.9957574587375535e-01  7.9897373659376114e-01  7.9826004777959192e-01  7.9744089174128741e-01  7.9652617763387279e-01  7.9552882449404472e-01  7.9446345792923811e-01  7.9334505355986551e-01  7.9218743404873104e-01  7.9100190863086561e-01  7.8979963693992883e-01  7.8859930707194759e-01  7.8742146237466792e-01  7.8627444967310145e-01  7.8513780192966387e-01  7.8395223567375283e-01  7.8263623208264321e-01  7.8112064393599878e-01  7.7937813047321669e-01  7.7744702440223667e-01  7.7543920979787306e-01  7.7353622091690621e-01  7.7197827596700386e-01  7.7104855078585444e-01  7.7105505658365470e-01  7.7231155182800870e-01  7.7510838499835721e-01  7.7967633128485170e-01  7.8614876614494245e-01  7.9452771431747626e-01  8.0465852553242634e-01  8.1624240208280896e-01  8.2889283207195830e-01  8.4217381414565073e-01  8.5562941060113584e-01  8.6881701662842448e-01  8.8134065854383603e-01  8.9287809882031410e-01  9.0319598845737825e-01  9.1215105535664853e-01  9.1967899284010657e-01  9.2577600821740680e-01  9.3047836654877680e-01  9.3384606825785887e-01  9.3595094307878224e-01  9.3686176170472835e-01  9.3663372863154459e-01  9.3530443200839386e-01  9.3289416004494841e-01  9.2940888811615296e-01  9.2484503036243415e-01  9.1919568511783334e-01  9.1245775310165289e-01  9.0463945888491282e-01  8.9576818314513362e-01  8.8589774663564913e-01  8.7511499256102188e-01  8.6354549209543907e-01  8.5135794375902052e-01  8.3876732978865631e-01  8.2603650873203516e-01  8.1347554155864710e-01  8.0143742890090874e-01  7.9030910050513326e-01  7.8049474341540115e-01  7.7238712522448938e-01  7.6632765343573295e-01  7.6257708468813756e-01  7.6129619298567441e-01  7.6253296695276163e-01  7.6621607801045166e-01  7.7215266823524165e-01  7.8003368717487931e-01  7.8945065387220148e-01  7.9992404217151680e-01  8.1094116738619315e-01  8.2199729543916400e-01  8.3263338730722569e-01  8.4246440674771172e-01  8.5119268192251296e-01  8.5860575166473496e-01  8.6456812281576589e-01  8.6900976338558955e-01  8.7191426431671881e-01  8.7330936905111189e-01  8.7326493415713946e-01  8.7189997172527300e-01  8.6938289264773039e-01  8.6592647583219329e-01  8.6178047746901165e-01  8.5722230925004683e-01  8.5254535887785798e-01  8.4803340354578671e-01  8.4391340976930340e-01  8.4032552652609449e-01  8.3731612087278795e-01  8.3484340714136085e-01  8.3279337228448069e-01  8.3100097411460971e-01  8.2927116617481977e-01  8.2739628770377738e-01  8.2517349290474262e-01  8.2242094438601621e-01  8.1898303951345353e-01  8.1472983252006903e-01  8.0955673628363300e-01  8.0338776245395760e-01  7.9618058502642308e-01  7.8793185777497798e-01  7.7868348295517342e-01  7.6852852957576379e-01  7.5761547380577032e-01  7.4614614805581647e-01  7.3436597041646923e-01  7.2254893508509876e-01  7.1098290316088586e-01  6.9996022349399512e-01  6.8977543629888427e-01  6.8072677486444988e-01  6.7311506855807079e-01  6.6723004472651215e-01  6.6331215826196699e-01  6.6149778876321974e-01  6.6180899517219671e-01  6.6417065978964751e-01  6.6843349163983534e-01  6.7439511743624303e-01  6.8181510517960286e-01  6.9041819485169165e-01  6.9988671653583268e-01  7.0985433277530841e-01  7.1991565454029838e-01  7.2964987296558803e-01  7.3864752030859804e-01  7.4652738143222386e-01  7.5293874317879861e-01  7.5755844722467613e-01  7.6009898263842923e-01  7.6033066147257566e-01  7.5811238390489277e-01  7.5340177408835052e-01  7.4622872056232825e-01  7.3668982140333117e-01  7.2496510487512444e-01  7.1133811917917777e-01  6.9620689576181605e-01  6.8008162614744738e-01  6.6357121358214766e-01  6.4736077437668926e-01  6.3215966484953023e-01  6.1858549817097674e-01  6.0707098913709046e-01  5.9782396711198726e-01  5.9084381674066044e-01  5.8597790923347837e-01  5.8298125815221791e-01  5.8157243724003060e-01  5.8147335223634888e-01  5.8241667162658739e-01  5.8418118658166962e-01  5.8655571570419840e-01  5.8930829975775134e-01  5.9222754548585554e-01  5.9513743990318868e-01  5.9790118360933331e-01  6.0042591536093237e-01  6.0266065998814933e-01  6.0458956218736348e-01  6.0622292160514146e-01  6.0758862292406612e-01  6.0872418545095897e-01  6.0967063766066143e-01  6.1046843701235554e-01  6.1115668916866206e-01  6.1177352978517130e-01  6.1235577126763585e-01  6.1293669012344409e-01  6.1354319114673839e-01  6.1419209075573589e-01  6.1488679033822169e-01  6.1561440294519842e-01  6.1634417436028077e-01  6.1702735699221023e-01  6.1760101264964751e-01  6.1799510754843212e-01  6.1814103811139420e-01  6.1797924993280462e-01  6.1746411028438786e-01  6.1656103621107405e-01  6.1524041846760891e-01  6.1347807564029488e-01  6.1125871581520141e-01  6.0858058344270471e-01  6.0546868278815780e-01  6.0198851922396779e-01  5.9825485195793182e-01  5.9442919300782715e-01  5.9071491930998199e-01  5.8735355447826787e-01  5.8460763261347171e-01  5.8274003674059904e-01  5.8198916363725151e-01  5.8252651603019701e-01  5.8437283286406205e-01  5.8730326428635204e-01  5.9085720376447282e-01  5.9448666521331972e-01  5.9761436475709373e-01  5.9967599340058308e-01  6.0020650841471623e-01  5.9883289270081397e-01  5.9516706797625885e-01  5.8881936824359782e-01  5.7948354235577237e-01  5.6710926264802997e-01  5.5184448183336809e-01  5.3361649164214120e-01  5.1205677208632627e-01  4.8669269282278088e-01  4.5714160608915239e-01  4.2329442173181170e-01  3.8555173844592716e-01  3.4498012320277782e-01  3.0316542273417002e-01  2.6188695863484063e-01  2.2284357728993304e-01  1.8743706919334904e-01  1.5641609192045494e-01  1.2989609543883601e-01  1.0759953652519776e-01  8.9063602168751241e-02  7.3768359134354020e-02  6.1206478991859180e-02  5.0916127238930291e-02  4.2492270178128899e-02  3.5589529777338397e-02  2.9921033886833464e-02  2.5251853377379625e-02  2.1391593354303691e-02  1.8187105567492503e-02  1.5515677695311390e-02  1.3279101303632952e-02  1.1398713830323794e-02  9.8113752351108117e-03  8.4662407093410077e-03  7.3222123419293189e-03  6.3459240427820368e-03  5.5101649120400838e-03  4.7926356296880933e-03  4.1749760359547682e-03  3.6419945804390666e-03  3.1810651011393246e-03  2.7816432610824273e-03  2.4348870127503218e-03  2.1333496650752675e-03  1.8707362879785243e-03  1.6417049642561052e-03  1.4417089648679706e-03  1.2668645133888819e-03  1.1138463064448048e-03  9.7979914094159059e-04  8.6226618471981929e-04  7.5912851830456927e-04  6.6855606629817816e-04  5.8896460329817594e-04  5.1898163340022296e-04  4.5741609521471061e-04  4.0323349896778530e-04  3.5553419333773099e-04  3.1353558680854960e-04  2.7655590161069224e-04  2.4400134953266928e-04  2.1535441822230665e-04  1.9016405503591215e-04  1.6803710344412545e-04  1.4863120101847450e-04  1.3164814716995707e-04  1.1682888441063578e-04  1.0394868872445709e-04  9.2813342409643818e-05  8.3255692870391068e-05  7.5132969685791378e-05  6.8324239917955083e-05  6.2728678557598484e-05  5.8264000478734419e-05  5.4865514051163274e-05  5.2485892195838290e-05  5.1096308698553631e-05  5.0682936625357324e-05  9.6576676779400783e-01  9.6562461908819475e-01  9.6527039494643063e-01  9.6470761258441051e-01  9.6393025615362071e-01  9.6293064469323952e-01  9.6170050537497620e-01  9.6023074005978037e-01  9.5851148589096480e-01  9.5653201985355218e-01  9.5428099700598557e-01  9.5174654300437578e-01  9.4891670306836318e-01  9.4577978749286129e-01  9.4232517526727511e-01  9.3854409726734866e-01  9.3443104164015833e-01  9.2998542155243624e-01  9.2521433428909761e-01  9.2013576577521095e-01  9.1478257710368127e-01  9.0920617523921887e-01  9.0348033212337331e-01  8.9770377322212525e-01  8.9200049651551050e-01  8.8651638186840975e-01  8.8141281467231325e-01  8.76857803728