<?xml version="1.0"?>
<VTKFile type="UnstructuredGrid"  version="0.1"  >
<UnstructuredGrid>
<Piece  NumberOfPoints="40501" NumberOfCells="80000">
<Points>
<DataArray  type="Float64"  NumberOfComponents="3"  format="ascii">0 0 0  0.0095 0 0  0.019 0 0  0.0285 0 0  0.038 0 0  0.0475 0 0  0.057 0 0  0.06649999999999999 0 0  0.076 0 0  0.08549999999999999 0 0  0.095 0 0  0.1045 0 0  0.114 0 0  0.1235 0 0  0.133 0 0  0.1425 0 0  0.152 0 0  0.1615 0 0  0.171 0 0  0.1805 0 0  0.19 0 0  0.1995 0 0  0.209 0 0  0.2185 0 0  0.228 0 0  0.2375 0 0  0.247 0 0  0.2565 0 0  0.266 0 0  0.2755 0 0  0.285 0 0  0.2945 0 0  0.304 0 0  0.3135 0 0  0.323 0 0  0.3325 0 0  0.342 0 0  0.3515 0 0  0.361 0 0  0.3705 0 0  0.38 0 0  0.3895 0 0  0.399 0 0  0.4085 0 0  0.418 0 0  0.4275 0 0  0.4369999999999999 0 0  0.4465 0 0  0.456 0 0  0.4655 0 0  0.475 0 0  0.4844999999999999 0 0  0.494 0 0  0.5034999999999999 0 0  0.513 0 0  0.5225 0 0  0.5319999999999999 0 0  0.5415 0 0  0.5509999999999999 0 0  0.5605 0 0  0.57 0 0  0.5794999999999999 0 0  0.589 0 0  0.5984999999999999 0 0  0.608 0 0  0.6175 0 0  0.627 0 0  0.6365 0 0  0.6459999999999999 0 0  0.6555 0 0  0.665 0 0  0.6745 0 0  0.6839999999999999 0 0  0.6934999999999999 0 0  0.703 0 0  0.7125 0 0  0.722 0 0  0.7314999999999999 0 0  0.741 0 0  0.7504999999999999 0 0  0.76 0 0  0.7695000000000001 0 0  0.7789999999999999 0 0  0.7885 0 0  0.7979999999999999 0 0  0.8075 0 0  0.8170000000000001 0 0  0.8264999999999999 0 0  0.836 0 0  0.8454999999999999 0 0  0.855 0 0  0.8645 0 0  0.8739999999999999 0 0  0.8835 0 0  0.893 0 0  0.9025 0 0  0.9119999999999999 0 0  0.9214999999999999 0 0  0.9309999999999999 0 0  0.9405 0 0  0.95 0 0  0.9594999999999999 0 0  0.9689999999999999 0 0  0.9784999999999999 0 0  0.988 0 0  0.9975000000000001 0 0  1.007 0 0  1.0165 0 0  1.026 0 0  1.0355 0 0  1.045 0 0  1.0545 0 0  1.064 0 0  1.0735 0 0  1.083 0 0  1.0925 0 0  1.102 0 0  1.1115 0 0  1.121 0 0  1.1305 0 0  1.14 0 0  1.1495 0 0  1.159 0 0  1.1685 0 0  1.178 0 0  1.1875 0 0  1.197 0 0  1.2065 0 0  1.216 0 0  1.2255 0 0  1.235 0 0  1.2445 0 0  1.254 0 0  1.2635 0 0  1.273 0 0  1.2825 0 0  1.292 0 0  1.3015 0 0  1.311 0 0  1.3205 0 0  1.33 0 0  1.3395 0 0  1.349 0 0  1.3585 0 0  1.368 0 0  1.3775 0 0  1.387 0 0  1.3965 0 0  1.406 0 0  1.4155 0 0  1.425 0 0  1.4345 0 0  1.444 0 0  1.4535 0 0  1.463 0 0  1.4725 0 0  1.482 0 0  1.4915 0 0  1.501 0 0  1.5105 0 0  1.52 0 0  1.5295 0 0  1.539 0 0  1.5485 0 0  1.558 0 0  1.5675 0 0  1.577 0 0  1.5865 0 0  1.596 0 0  1.6055 0 0  1.615 0 0  1.6245 0 0  1.634 0 0  1.6435 0 0  1.653 0 0  1.6625 0 0  1.672 0 0  1.6815 0 0  1.691 0 0  1.7005 0 0  1.71 0 0  1.7195 0 0  1.729 0 0  1.7385 0 0  1.748 0 0  1.7575 0 0  1.767 0 0  1.7765 0 0  1.786 0 0  1.7955 0 0  1.805 0 0  1.8145 0 0  1.824 0 0  1.8335 0 0  1.843 0 0  1.8525 0 0  1.862 0 0  1.8715 0 0  1.881 0 0  1.8905 0 0  1.9 0 0  1.9095 0 0  1.919 0 0  1.9285 0 0  1.938 0 0  1.9475 0 0  1.957 0 0  1.9665 0 0  1.976 0 0  1.9855 0 0  1.995 0 0  2.0045 0 0  2.014 0 0  2.0235 0 0  2.033 0 0  2.0425 0 0  2.052 0 0  2.0615 0 0  2.071 0 0  2.0805 0 0  2.09 0 0  2.0995 0 0  2.109 0 0  2.1185 0 0  2.128 0 0  2.1375 0 0  2.147 0 0  2.1565 0 0  2.166 0 0  2.1755 0 0  2.185 0 0  2.1945 0 0  2.204 0 0  2.2135 0 0  2.223 0 0  2.2325 0 0  2.242 0 0  2.2515 0 0  2.261 0 0  2.2705 0 0  2.28 0 0  2.2895 0 0  2.299 0 0  2.3085 0 0  2.318 0 0  2.3275 0 0  2.337 0 0  2.3465 0 0  2.356 0 0  2.3655 0 0  2.375 0 0  2.3845 0 0  2.394 0 0  2.4035 0 0  2.413 0 0  2.4225 0 0  2.432 0 0  2.4415 0 0  2.451 0 0  2.4605 0 0  2.47 0 0  2.4795 0 0  2.489 0 0  2.4985 0 0  2.508 0 0  2.5175 0 0  2.527 0 0  2.5365 0 0  2.546 0 0  2.5555 0 0  2.565 0 0  2.5745 0 0  2.584 0 0  2.5935 0 0  2.603 0 0  2.6125 0 0  2.622 0 0  2.6315 0 0  2.641 0 0  2.6505 0 0  2.66 0 0  2.6695 0 0  2.679 0 0  2.688499999999999 0 0  2.698 0 0  2.7075 0 0  2.717 0 0  2.7265 0 0  2.736 0 0  2.7455 0 0  2.755 0 0  2.7645 0 0  2.774 0 0  2.7835 0 0  2.793 0 0  2.8025 0 0  2.812 0 0  2.8215 0 0  2.831 0 0  2.8405 0 0  2.85 0 0  2.8595 0 0  2.869 0 0  2.8785 0 0  2.888 0 0  2.8975 0 0  2.907 0 0  2.9165 0 0  2.926 0 0  2.9355 0 0  2.945 0 0  2.9545 0 0  2.964 0 0  2.9735 0 0  2.983 0 0  2.9925 0 0  3.002 0 0  3.0115 0 0  3.020999999999999 0 0  3.0305 0 0  3.04 0 0  3.0495 0 0  3.059 0 0  3.0685 0 0  3.078 0 0  3.0875 0 0  3.097 0 0  3.1065 0 0  3.116 0 0  3.1255 0 0  3.135 0 0  3.1445 0 0  3.154 0 0  3.1635 0 0  3.173 0 0  3.1825 0 0  3.192 0 0  3.2015 0 0  3.211 0 0  3.2205 0 0  3.23 0 0  3.2395 0 0  3.249 0 0  3.2585 0 0  3.268 0 0  3.2775 0 0  3.287 0 0  3.2965 0 0  3.306 0 0  3.3155 0 0  3.325 0 0  3.3345 0 0  3.344 0 0  3.353499999999999 0 0  3.363 0 0  3.3725 0 0  3.382 0 0  3.3915 0 0  3.401 0 0  3.4105 0 0  3.42 0 0  3.4295 0 0  3.439 0 0  3.4485 0 0  3.458 0 0  3.4675 0 0  3.477 0 0  3.4865 0 0  3.496 0 0  3.5055 0 0  3.515 0 0  3.5245 0 0  3.534 0 0  3.5435 0 0  3.553 0 0  3.5625 0 0  3.572 0 0  3.5815 0 0  3.591 0 0  3.6005 0 0  3.61 0 0  3.6195 0 0  3.629 0 0  3.6385 0 0  3.648 0 0  3.6575 0 0  3.667 0 0  3.6765 0 0  3.685999999999999 0 0  3.6955 0 0  3.705 0 0  3.7145 0 0  3.724 0 0  3.7335 0 0  3.742999999999999 0 0  3.7525 0 0  3.762 0 0  3.7715 0 0  3.781 0 0  3.7905 0 0  3.8 0 0  0 0.005 0  0.0095 0.005 0  0.019 0.005 0  0.0285 0.005 0  0.038 0.005 0  0.0475 0.005 0  0.057 0.005 0  0.06649999999999999 0.005 0  0.076 0.005 0  0.08549999999999999 0.005 0  0.095 0.005 0  0.1045 0.005 0  0.114 0.005 0  0.1235 0.005 0  0.133 0.005 0  0.1425 0.005 0  0.152 0.005 0  0.1615 0.005 0  0.171 0.005 0  0.1805 0.005 0  0.19 0.005 0  0.1995 0.005 0  0.209 0.005 0  0.2185 0.005 0  0.228 0.005 0  0.2375 0.005 0  0.247 0.005 0  0.2565 0.005 0  0.266 0.005 0  0.2755 0.005 0  0.285 0.005 0  0.2945 0.005 0  0.304 0.005 0  0.3135 0.005 0  0.323 0.005 0  0.3325 0.005 0  0.342 0.005 0  0.3515 0.005 0  0.361 0.005 0  0.3705 0.005 0  0.38 0.005 0  0.3895 0.005 0  0.399 0.005 0  0.4085 0.005 0  0.418 0.005 0  0.4275 0.005 0  0.4369999999999999 0.005 0  0.4465 0.005 0  0.456 0.005 0  0.4655 0.005 0  0.475 0.005 0  0.4844999999999999 0.005 0  0.494 0.005 0  0.5034999999999999 0.005 0  0.513 0.005 0  0.5225 0.005 0  0.5319999999999999 0.005 0  0.5415 0.005 0  0.5509999999999999 0.005 0  0.5605 0.005 0  0.57 0.005 0  0.5794999999999999 0.005 0  0.589 0.005 0  0.5984999999999999 0.005 0  0.608 0.005 0  0.6175 0.005 0  0.627 0.005 0  0.6365 0.005 0  0.6459999999999999 0.005 0  0.6555 0.005 0  0.665 0.005 0  0.6745 0.005 0  0.6839999999999999 0.005 0  0.6934999999999999 0.005 0  0.703 0.005 0  0.7125 0.005 0  0.722 0.005 0  0.7314999999999999 0.005 0  0.741 0.005 0  0.7504999999999999 0.005 0  0.76 0.005 0  0.7695000000000001 0.005 0  0.7789999999999999 0.005 0  0.7885 0.005 0  0.7979999999999999 0.005 0  0.8075 0.005 0  0.8170000000000001 0.005 0  0.8264999999999999 0.005 0  0.836 0.005 0  0.8454999999999999 0.005 0  0.855 0.005 0  0.8645 0.005 0  0.8739999999999999 0.005 0  0.8835 0.005 0  0.893 0.005 0  0.9025 0.005 0  0.9119999999999999 0.005 0  0.9214999999999999 0.005 0  0.9309999999999999 0.005 0  0.9405 0.005 0  0.95 0.005 0  0.9594999999999999 0.005 0  0.9689999999999999 0.005 0  0.9784999999999999 0.005 0  0.988 0.005 0  0.9975000000000001 0.005 0  1.007 0.005 0  1.0165 0.005 0  1.026 0.005 0  1.0355 0.005 0  1.045 0.005 0  1.0545 0.005 0  1.064 0.005 0  1.0735 0.005 0  1.083 0.005 0  1.0925 0.005 0  1.102 0.005 0  1.1115 0.005 0  1.121 0.005 0  1.1305 0.005 0  1.14 0.005 0  1.1495 0.005 0  1.159 0.005 0  1.1685 0.005 0  1.178 0.005 0  1.1875 0.005 0  1.197 0.005 0  1.2065 0.005 0  1.216 0.005 0  1.2255 0.005 0  1.235 0.005 0  1.2445 0.005 0  1.254 0.005 0  1.2635 0.005 0  1.273 0.005 0  1.2825 0.005 0  1.292 0.005 0  1.3015 0.005 0  1.311 0.005 0  1.3205 0.005 0  1.33 0.005 0  1.3395 0.005 0  1.349 0.005 0  1.3585 0.005 0  1.368 0.005 0  1.3775 0.005 0  1.387 0.005 0  1.3965 0.005 0  1.406 0.005 0  1.4155 0.005 0  1.425 0.005 0  1.4345 0.005 0  1.444 0.005 0  1.4535 0.005 0  1.463 0.005 0  1.4725 0.005 0  1.482 0.005 0  1.4915 0.005 0  1.501 0.005 0  1.5105 0.005 0  1.52 0.005 0  1.5295 0.005 0  1.539 0.005 0  1.5485 0.005 0  1.558 0.005 0  1.5675 0.005 0  1.577 0.005 0  1.5865 0.005 0  1.596 0.005 0  1.6055 0.005 0  1.615 0.005 0  1.6245 0.005 0  1.634 0.005 0  1.6435 0.005 0  1.653 0.005 0  1.6625 0.005 0  1.672 0.005 0  1.6815 0.005 0  1.691 0.005 0  1.7005 0.005 0  1.71 0.005 0  1.7195 0.005 0  1.729 0.005 0  1.7385 0.005 0  1.748 0.005 0  1.7575 0.005 0  1.767 0.005 0  1.7765 0.005 0  1.786 0.005 0  1.7955 0.005 0  1.805 0.005 0  1.8145 0.005 0  1.824 0.005 0  1.8335 0.005 0  1.843 0.005 0  1.8525 0.005 0  1.862 0.005 0  1.8715 0.005 0  1.881 0.005 0  1.8905 0.005 0  1.9 0.005 0  1.9095 0.005 0  1.919 0.005 0  1.9285 0.005 0  1.938 0.005 0  1.9475 0.005 0  1.957 0.005 0  1.9665 0.005 0  1.976 0.005 0  1.9855 0.005 0  1.995 0.005 0  2.0045 0.005 0  2.014 0.005 0  2.0235 0.005 0  2.033 0.005 0  2.0425 0.005 0  2.052 0.005 0  2.0615 0.005 0  2.071 0.005 0  2.0805 0.005 0  2.09 0.005 0  2.0995 0.005 0  2.109 0.005 0  2.1185 0.005 0  2.128 0.005 0  2.1375 0.005 0  2.147 0.005 0  2.1565 0.005 0  2.166 0.005 0  2.1755 0.005 0  2.185 0.005 0  2.1945 0.005 0  2.204 0.005 0  2.2135 0.005 0  2.223 0.005 0  2.2325 0.005 0  2.242 0.005 0  2.2515 0.005 0  2.261 0.005 0  2.2705 0.005 0  2.28 0.005 0  2.2895 0.005 0  2.299 0.005 0  2.3085 0.005 0  2.318 0.005 0  2.3275 0.005 0  2.337 0.005 0  2.3465 0.005 0  2.356 0.005 0  2.3655 0.005 0  2.375 0.005 0  2.3845 0.005 0  2.394 0.005 0  2.4035 0.005 0  2.413 0.005 0  2.4225 0.005 0  2.432 0.005 0  2.4415 0.005 0  2.451 0.005 0  2.4605 0.005 0  2.47 0.005 0  2.4795 0.005 0  2.489 0.005 0  2.4985 0.005 0  2.508 0.005 0  2.5175 0.005 0  2.527 0.005 0  2.5365 0.005 0  2.546 0.005 0  2.5555 0.005 0  2.565 0.005 0  2.5745 0.005 0  2.584 0.005 0  2.5935 0.005 0  2.603 0.005 0  2.6125 0.005 0  2.622 0.005 0  2.6315 0.005 0  2.641 0.005 0  2.6505 0.005 0  2.66 0.005 0  2.6695 0.005 0  2.679 0.005 0  2.688499999999999 0.005 0  2.698 0.005 0  2.7075 0.005 0  2.717 0.00
[...]
<PointData  Scalars="rho_bar"> 
<DataArray  type="Float64"  Name="rho_bar"  format="ascii">8.2340535373329327e-01  8.2301903058258230e-01  8.2270735505545844e-01  8.2232014624751704e-01  8.2183609797497670e-01  8.2124823496292110e-01  8.2056737088623055e-01  8.1979714522020686e-01  8.1895387223034188e-01  8.1805098266613263e-01  8.1710766391443179e-01  8.1613855111711442e-01  8.1516823727943177e-01  8.1421220780423564e-01  8.1329524207216330e-01  8.1243511944175262e-01  8.1165395871920987e-01  8.1096513038793683e-01  8.1039018237482330e-01  8.0993744635395704e-01  8.0962326307739030e-01  8.0945322867394276e-01  8.0943704820038809e-01  8.0957306472871193e-01  8.0986725460504005e-01  8.1031161729001400e-01  8.1090561647479098e-01  8.1163832056550944e-01  8.1250240122034179e-01  8.1347980809354647e-01  8.1456091981322432e-01  8.1572234972598023e-01  8.1694977028207527e-01  8.1821870202550762e-01  8.1951052285159520e-01  8.2079652372856204e-01  8.2205800626562164e-01  8.2326418972190185e-01  8.2439470088739675e-01  8.2542132264657897e-01  8.2632294782956761e-01  8.2707093030831180e-01  8.2764920769756045e-01  8.2803181913404122e-01  8.2820674476518630e-01  8.2815635032338852e-01  8.2787428603745350e-01  8.2734911896008745e-01  8.2658447268888158e-01  8.2557644212428760e-01  8.2433534413849396e-01  8.2286678627752474e-01  8.2118603044984084e-01  8.1930281456020571e-01  8.1724070660561443e-01  8.1501473329076424e-01  8.1265422569297163e-01  8.1018273662914098e-01  8.0763417680525551e-01  8.0503505510164208e-01  8.0242307287163872e-01  7.9982363375250842e-01  7.9727019599491356e-01  7.9478545653208310e-01  7.9239492052498117e-01  7.9011243024482125e-01  7.8795819087827856e-01  7.8593742842502989e-01  7.8406190499212358e-01  7.8233070831409446e-01  7.8074642400503114e-01  7.7929930438103101e-01  7.7798683001360647e-01  7.7679296837551692e-01  7.7570951526953369e-01  7.7471971964462638e-01  7.7381140373635515e-01  7.7296439518223126e-01  7.7216763535023603e-01  7.7139926160905525e-01  7.7064748113143244e-01  7.6989253621928622e-01  7.6912202249204253e-01  7.6831590337573308e-01  7.6746539210078946e-01  7.6655259800203390e-01  7.6557130739077739e-01  7.6451087735206325e-01  7.6336857953224779e-01  7.6213730708323169e-01  7.6082206571626354e-01  7.5942029350124696e-01  7.5794223619098500e-01  7.5639308021923657e-01  7.5478750095337543e-01  7.5313459746532785e-01  7.5145556800123980e-01  7.4976303022839685e-01  7.4808045898737396e-01  7.4642575761521368e-01  7.4482237561702225e-01  7.4328693872276830e-01  7.4184450683616221e-01  7.4050903640450072e-01  7.3930254694430808e-01  7.3823757669899392e-01  7.3733059067933626e-01  7.3658744173018342e-01  7.3602020286839853e-01  7.3562720368924561e-01  7.3541197200587383e-01  7.3536798895860089e-01  7.3548963871031026e-01  7.3576112675192240e-01  7.3617205551167586e-01  7.3669885315743844e-01  7.3732446558866183e-01  7.3802187491879567e-01  7.3876825151631864e-01  7.3953152333514849e-01  7.4028856392273579e-01  7.4100607540126884e-01  7.4166093142528278e-01  7.4222553864433671e-01  7.4267948091227765e-01  7.4299836177538570e-01  7.4316938186451076e-01  7.4317215763706412e-01  7.4299833969596418e-01  7.4263480332266874e-01  7.4207795043447322e-01  7.4132017786179938e-01  7.4036757152207922e-01  7.3922038746579721e-01  7.3789244469618809e-01  7.3639573748657305e-01  7.3475115468993468e-01  7.3297667494461671e-01  7.3110141794866601e-01  7.2914672687697624e-01  7.2714436017797179e-01  7.2511927288853906e-01  7.2310112235218582e-01  7.2110926573449241e-01  7.1916744163842350e-01  7.1728480693558816e-01  7.1547416454348889e-01  7.1373819225403046e-01  7.1208024446116747e-01  7.1049483468309216e-01  7.0898214618901478e-01  7.0753146184387661e-01  7.0613949811217191e-01  7.0479553522799598e-01  7.0349419877779773e-01  7.0222353570574669e-01  7.0098079310353700e-01  6.9975505996375775e-01  6.9854507404089516e-01  6.9734582188814720e-01  6.9615826460353958e-01  6.9497970195463210e-01  6.9381684076001415e-01  6.9266856263196108e-01  6.9154245742750597e-01  6.9043934558563480e-01  6.8936453507172890e-01  6.8831585185856259e-01  6.8729835372056647e-01  6.8630717299013244e-01  6.8534444140393280e-01  6.8440619234662325e-01  6.8349129449368429e-01  6.8259240081158012e-01  6.8170872956743944e-01  6.8083006320453499e-01  6.7995359534930522e-01  6.7906980654243521e-01  6.7817385692559262e-01  6.7725468950392731e-01  6.7630983091210695e-01  6.7532943362890807e-01  6.7431359279561465e-01  6.7326038976286195e-01  6.7217467642247575e-01  6.7105885248201991e-01  6.6992356225782668e-01  6.6877027215264961e-01  6.6760613423206749e-01  6.6642977749708254e-01  6.6524217266077013e-01  6.6403651180140555e-01  6.6281247368802709e-01  6.6156085501585304e-01  6.6028009050072767e-01  6.5896484366649422e-01  6.5761494548577559e-01  6.5622828558480628e-01  6.5481327986493398e-01  6.5337427716746088e-01  6.5192618744161313e-01  6.5047912541630304e-01  6.4904585547250748e-01  6.4763009154852458e-01  6.4623915103416174e-01  6.4486941159727695e-01  6.4352257729983431e-01  6.4219522283231611e-01  6.4088708239880199e-01  6.3959395510713568e-01  6.3831870467031526e-01  6.3705676819759749e-01  6.3581056030141603e-01  6.3457646027150849e-01  6.3335408204140542e-01  6.3213669136108686e-01  6.3092377955838763e-01  6.2970677201700864e-01  6.2848420733394872e-01  6.2725096888321119e-01  6.2600515191078954e-01  6.2474019248205570e-01  6.2345482855748835e-01  6.2214024994876982e-01  6.2079758571850197e-01  6.1942983706500732e-01  6.1805308682367854e-01  6.1668642290558717e-01  6.1535970412693697e-01  6.1409348536594899e-01  6.1290682013561959e-01  6.1180108835906877e-01  6.1076458924093613e-01  6.0976859383443138e-01  6.0878254791789377e-01  6.0776611622335663e-01  6.0668742665649078e-01  6.0551481445738986e-01  6.0422821142698546e-01  6.0281154392090364e-01  6.0126437166270530e-01  5.9958695430465869e-01  5.9779209321589877e-01  5.9589294901814127e-01  5.9390968376815390e-01  5.9186229655499878e-01  5.8977759902956939e-01  5.8767316644065304e-01  5.8557035668009494e-01  5.8348395365710737e-01  5.8143004167511292e-01  5.7941609175820896e-01  5.7745140630018421e-01  5.7553512080504932e-01  5.7367118048858678e-01  5.7186084285839400e-01  5.7011012574536613e-01  5.6842159621266164e-01  5.6679935985034458e-01  5.6523573706627983e-01  5.6372525175674260e-01  5.6225556090806839e-01  5.6081668835506149e-01  5.5939369342334999e-01  5.5797785509957776e-01  5.5655490526125295e-01  5.5511810091911340e-01  5.5365896577301543e-01  5.5217359791292031e-01  5.5065717306127104e-01  5.4911286385936242e-01  5.4753932439824127e-01  5.4594132880449409e-01  5.4431727967044219e-01  5.4266583240583954e-01  5.4097820426835497e-01  5.3924914358272347e-01  5.3746617621056547e-01  5.3562306505283719e-01  5.3371070251817054e-01  5.3172267955345953e-01  5.2964984480442745e-01  5.2748994619506218e-01  5.2523734969645564e-01  5.2289467031900361e-01  5.2046154529743494e-01  5.1794145809777470e-01  5.1533383716904213e-01  5.1264398791412114e-01  5.0987211199416405e-01  5.0702659372619507e-01  5.0411686624278274e-01  5.0115976059143141e-01  4.9816979634547587e-01  4.9516116564813895e-01  4.9213492019156374e-01  4.8909212676760810e-01  4.8602640771739525e-01  4.8293365910034181e-01  4.7980584511677404e-01  4.7664111653926966e-01  4.7343263391512092e-01  4.7018009419805962e-01  4.6688096764908610e-01  4.6353694523175454e-01  4.6014813604047095e-01  4.5672148747138097e-01  4.5325947484171358e-01  4.4976977233952464e-01  4.4625330756441195e-01  4.4271050774713677e-01  4.3913283787323842e-01  4.3551190813860230e-01  4.3182827102941701e-01  4.2806348036469832e-01  4.2419529234908598e-01  4.2020722183510295e-01  4.1607789376270038e-01  4.1178649324898847e-01  4.0730477385115249e-01  4.0260926498232080e-01  3.9767169221730597e-01  3.9247201947398985e-01  3.8700002224046398e-01  3.8127278506230422e-01  3.7532435269541953e-01  3.6920873897364098e-01  3.6296861422482218e-01  3.5661276699026456e-01  3.5011883765568114e-01  3.4346189401754551e-01  3.3661440339673038e-01  3.2955946972975630e-01  3.2227619912071215e-01  3.1473994493269802e-01  3.0691362904687058e-01  2.9875478709221609e-01  2.9020297292982938e-01  2.8118394667470559e-01  2.7160363490121470e-01  2.6136572673066177e-01  2.5038511738223268e-01  2.3862761147443895e-01  2.2614802463468278e-01  2.1314961733300031e-01  1.9997090490132657e-01  1.8696552171273570e-01  1.7437612066019109e-01  1.6234684800336077e-01  1.5095063615706461e-01  1.4021851581263411e-01  1.3014849107616835e-01  1.2072220876311006e-01  1.1190767092217048e-01  1.0366919271948032e-01  9.5967601463263510e-02  8.8766420648179731e-02  8.2029307570469154e-02  7.5725163536384255e-02  6.9824681218062568e-02  6.4303364918083764e-02  5.9138797407296148e-02  5.4312691503298705e-02  4.9807172078124691e-02  4.5607628403563416e-02  4.1699098654721219e-02  3.8068205806151133e-02  3.4701122127065269e-02  3.1585202345461291e-02  2.8706803990481585e-02  2.6053532309593740e-02  2.3612296712629797e-02  2.1370606871887469e-02  1.9315795120235284e-02  1.7435927254864484e-02  1.5718859863086410e-02  1.4153440463894692e-02  1.2728582277766035e-02  1.1433916771643888e-02  1.0259391417227525e-02  9.1957574743704758e-03  8.2340307256051851e-03  7.3661364093776686e-03  6.5843600469125876e-03  5.8816487992635422e-03  5.2513951669082414e-03  4.6876502137721526e-03  4.1847978996993121e-03  3.7379358951684285e-03  3.3424790692321146e-03  2.9943896551345417e-03  2.6899625113009683e-03  2.4260035522587287e-03  2.1995920182176850e-03  2.0083200768479981e-03  1.8500535399560065e-03  1.7230737297787113e-03  1.6259648752855761e-03  1.5577547901615431e-03  1.5179519556026261e-03  1.5077548311657057e-03  8.2236390405058291e-01  8.2214632522677922e-01  8.2185489023662661e-01  8.2146884851167390e-01  8.2098477478144805e-01  8.2039360545048678e-01  8.1971002230114365e-01  8.1893447464786084e-01  8.1808740494529508e-01  8.1717882246293871e-01  8.1623096037408149e-01  8.1525560436198674e-01  8.1428033478678308e-01  8.1331777707594444e-01  8.1239619336393987e-01  8.1153042454974622e-01  8.1074562205099299e-01  8.1005203514555535e-01  8.0947460604812405e-01  8.0901826321064008e-01  8.0870316276275545e-01  8.0853162438277437e-01  8.0851624697712321e-01  8.0865253082254851e-01  8.0894919113166619e-01  8.0939533661036622e-01  8.0999366345557444e-01  8.1073020126716400e-01  8.1160045348604470e-01  8.1258311002941930e-01  8.1367174170006551e-01  8.1483943678924176e-01  8.1607550841173604e-01  8.1735207046126357e-01  8.1865325178979964e-01  8.1994737642913329e-01  8.2121834899456225e-01  8.2243238926225559e-01  8.2357222957183374e-01  8.2460651632033666e-01  8.2551686763477505e-01  8.2627128309111753e-01  8.2685681389671806e-01  8.2724390177486906e-01  8.2742408751261198e-01  8.2737633372367914e-01  8.2709699269096326e-01  8.2657178522294561e-01  8.2580695959863293e-01  8.2479584611471557e-01  8.2355191428598051e-01  8.2207794203227846e-01  8.2039195898487416e-01  8.1850069615606402e-01  8.1643093516837040e-01  8.1419442317332413e-01  8.1182418870369277e-01  8.0934075463280042e-01  8.0678095390692306e-01  8.0416887385069580e-01  8.0154501801295819e-01  7.9893235357640480e-01  7.9636756623687355e-01  7.9387068579702902e-01  7.9146998473941899e-01  7.8917641680784600e-01  7.8701336084086104e-01  7.8498277784070836e-01  7.8310003092101754e-01  7.8136100351550763e-01  7.7977105013455095e-01  7.7831762377812330e-01  7.7700068308867831e-01  7.7580141344426046e-01  7.7471460886091070e-01  7.7372055739931767e-01  7.7280973914201823e-01  7.7195887049917600e-01  7.7115996151381083e-01  7.7038772552263968e-01  7.6963391369148415e-01  7.6887543498447997e-01  7.6810266846278186e-01  7.6729266756693759e-01  7.6643918603800454e-01  7.6552148655835617e-01  7.6453647306774808e-01  7.6347051848584979e-01  7.6232367666367373e-01  7.6108574882935176e-01  7.5976493932065847e-01  7.5835530035765819e-01  7.5687077730451380e-01  7.5531330264961605e-01  7.5370052290095990e-01  7.5203876526960034e-01  7.5035198434181161e-01  7.4865010033084367e-01  7.4695990263892842e-01  7.4529644037959353e-01  7.4368609611073788e-01  7.4214251687676525e-01  7.4069403720607241e-01  7.3935133506669637e-01  7.3814015349672601e-01  7.3706983929293213e-01  7.3615981814992859e-01  7.3541316795093503e-01  7.3484464019461671e-01  7.3444982782827162e-01  7.3423542514144624e-01  7.3419195686081429e-01  7.3431655899812542e-01  7.3459030897003330e-01  7.3500590296788260e-01  7.3553633608990787e-01  7.3616808825260449e-01  7.3687075935571078e-01  7.3762427120171936e-01  7.3839353986585432e-01  7.3915792182277573e-01  7.3988115480110350e-01  7.4054313502981062e-01  7.4111315781988485e-01  7.4157349461816069e-01  7.4189657183864710e-01  7.4207272204315344e-01  7.4207809962306226e-01  7.4190793075220196e-01  7.4154569750748045e-01  7.4099060453732934e-01  7.4023212399449922e-01  7.3927896361592527e-01  7.3812857549367128e-01  7.3679796812395160e-01  7.3529623831497204e-01  7.3364715510813694e-01  7.3186577982841328e-01  7.2998448991684817e-01  7.2802140739150556e-01  7.2601202169442158e-01  7.2397828209407022e-01  7.2195293222297929e-01  7.1995275887388399e-01  7.1800419540582372e-01  7.1611373692139668e-01  7.1429727539785681e-01  7.1255460248975255e-01  7.1089177193994801e-01  7.0930028532249922e-01  7.0778334477163785e-01  7.0632693873768548e-01  7.0493124754058811e-01  7.0358232902973605e-01  7.0227756726106061e-01  7.0100220664366120e-01  6.9975599835106195e-01  6.9852530295482440e-01  6.9731189895341772e-01  6.9610788116341071e-01  6.9491693523093445e-01  6.9373340483484924e-01  6.9256709200609434e-01  6.9141371467419388e-01  6.9028442823946534e-01  6.8917692633191452e-01  6.8809934542401574e-01  6.8704675936017501e-01  6.8602676701836729e-01  6.8503181378793687e-01  6.8406709667416621e-01  6.8312578145059655e-01  6.8220945809111566e-01  6.8130779935826291e-01  6.8042303552749306e-01  6.7954171016618170e-01  6.7866448079907737e-01  6.7777864263996901e-01  6.7688212258795666e-01  6.7596105677784790e-01  6.7501543763798422e-01  6.7403265138658586e-01  6.7301577016922576e-01  6.7195997313009637e-01  6.7087286057411200e-01  6.6975400180124245e-01  6.6861720271969383e-01  6.6746085001765887e-01  6.6629558112221121e-01  6.6511687100000216e-01  6.6392841964674643e-01  6.6272064302836542e-01  6.6149568289921101e-01  6.6024164792901896e-01  6.5895994516023604e-01  6.5764236125244702e-01  6.5629133741028145e-01  6.5490177975896613e-01  6.5348502150048338e-01  6.5204233152056978e-01  6.5059218859989376e-01  6.4914184847251910e-01  6.4770693996378703e-01  6.4628850610880539e-01  6.4489624484758645e-01  6.4352383272774727e-01  6.4217583407435375e-01  6.4084598844189811e-01  6.3953662991568505e-01  6.3824069920639026e-01  6.3696398565238554e-01  6.3569889621850040e-01  6.3445122192072045e-01  6.3321434492375694e-01  6.3199058193815372e-01  6.3077054317779802e-01  6.2955611285577884e-01  6.2833611942063583e-01  6.2711201308846165e-01  6.2587600358850104e-01  6.2462892753424426e-01  6.2336154972796487e-01  6.2207552000176991e-01  6.2075885320655633e-01  6.1941570012475378e-01  6.1804592695421079e-01  6.1666833221774575e-01  6.1529965239387874e-01  6.1397248671541260e-01  6.1270522260864291e-01  6.1152008786303058e-01  6.1041584446745334e-01  6.0938308377524508e-01  6.0838987904746977e-01  6.0740810546081658e-01  6.0639415510102002e-01  6.0531918043546118e-01  6.0414843042097677e-01  6.0286441810137925e-01  6.0144852439700247e-01  5.9990278153115795e-01  5.9822514947861771e-01  5.9643149952784924e-01  5.9453239703597316e-01  5.9255044374569188e-01  5.9050293738998283e-01  5.8841958908318370e-01  5.8631501084888760e-01  5.8421357407730912e-01  5.8212719400404089e-01  5.8007463370638590e-01  5.7806095405458424e-01  5.7609774014494886e-01  5.7418167658076213e-01  5.7231932819927400e-01  5.7050929168980935e-01  5.6876010071823946e-01  5.6707194053955901e-01  5.6545163081553573e-01  5.6388858704075817e-01  5.6238027915697253e-01  5.6091155683511573e-01  5.5947494051653202e-01  5.5805309347974186e-01  5.5663950904162163e-01  5.5521758866250337e-01  5.5378328078104577e-01  5.5232564410284002e-01  5.5084316825145951e-01  5.4932844555700922e-01  5.4778727382354853e-01  5.4621565454480725e-01  5.4462147908419067e-01  5.4300052883901495e-01  5.4135389741453699e-01  5.3967042370260465e-01  5.3794699403394153e-01  5.3616881085797574e-01  5.3433224179541594e-01  5.3242586457815821e-01  5.3044570955429282e-01  5.2838011098340865e-01  5.2622919805142276e-01  5.2398465783214188e-01  5.2165202397678356e-01  5.1922839637292761e-01  5.1671962739710398e-01  5.1412293612338666e-01  5.1144570785699472e-01  5.0868593778849980e-01  5.0585431389950430e-01  5.0295786427821743e-01  5.0001570032332399e-01  4.9704035212194514e-01  4.9404839856052074e-01  4.9103824694896214e-01  4.8801339247684505e-01  4.8496490409293591e-01  4.8189066536462954e-01  4.7878051849851422e-01  4.7563444374173131e-01  4.7244359907727879e-01  4.6920981904058134e-01  4.6592849595601216e-01  4.6260321320410597e-01  4.5923197068230881e-01  4.5582385414218712e-01  4.5237918971267121e-01  4.4890813340317326e-01  4.4540955843030383e-01  4.4188574502307837e-01  4.3832627680866953e-01  4.3472438296386001e-01  4.3105896474554639e-01  4.2731384060595823e-01  4.2346556462442869e-01  4.1949928259241698e-01  4.1539148147710087e-01  4.1112291255638428e-01  4.0666360957413900e-01  4.0199273861059293e-01  3.9708057349137232e-01  3.9190879538998291e-01  3.8646577053688480e-01  3.8077032476336276e-01  3.7485516764320209e-01  3.6877418658108263e-01  3.6256667750172034e-01  3.5624308798997145e-01  3.4978019192919352e-01  3.4315473421800452e-01  3.3633806243532127e-01  3.2931471001115520e-01  3.2206293197201752e-01  3.1455924489627191e-01  3.0676590036890050e-01  2.9864169980592470e-01  2.9012565742206486e-01  2.8114511560088695e-01  2.7160580921615635e-01  2.6141290171978304e-01  2.5048105989868785e-01  2.3877704450858087e-01  2.2635296613554973e-01  2.1340652744586838e-01  2.0026676713212482e-01  1.8728802622941948e-01  1.7471560417925996e-01  1.6269582799495391e-01  1.5130297803629456e-01  1.4056958689742347e-01  1.3049461071309232e-01  1.2106057131137496e-01  1.1223602932883861e-01  1.0398588392845010e-01  9.6271307788194871e-02  8.9056122482330843e-02  8.2304355650080513e-02  7.5985033652022083e-02  7.0069203787223047e-02  6.4532470884060403e-02  5.9352674791682519e-02  5.4511535794172672e-02  4.9991463716857122e-02  4.5777830858864173e-02  4.1855899105474430e-02  3.8212259182056320e-02  3.4833179738718412e-02  3.1705937287997810e-02  2.8816972371733692e-02  2.6153821929708856e-02  2.3703476440006411e-02  2.1453326128041048e-02  1.9390758189758113e-02  1.7503703558179845e-02  1.5780063988707415e-02  1.4208598396858691e-02  1.2778254885035657e-02  1.1478554933563640e-02  1.0299481848413890e-02  9.2316780965570871e-03  8.2661890807218565e-03  7.3948618113251147e-03  6.6100185366300733e-03  5.9045140380125458e-03  5.2717805273037373e-03  4.7057818965889993e-03  4.2009306126375790e-03  3.7522732558611621e-03  3.3552441020032239e-03  3.0057552470210544e-03  2.7001195259179567e-03  2.4350990912851626e-03  2.2077844116118162e-03  2.0157443018675096e-03  1.8568524551675868e-03  1.7293646238125326e-03  1.6318711456561163e-03  1.5633567254227426e-03  1.5231918495603707e-03  1.5111192158822776e-03  8.1970667350917736e-01  8.1956429389246577e-01  8.1929188010147846e-01  8.1891090134844458e-01  8.1842039866411398e-01  8.1782411859662341e-01  8.1712749163196940e-01  8.1634219854626799e-01  8.1547947927866582e-01  8.1455756126502077e-01  8.1359115428808593e-01  8.1260136849431230e-01  8.1160662388201743e-01  8.1062969147610264e-01  8.0969023949904539e-01  8.0881118833798049e-01  8.0801016192376041e-01  8.0730695241739991e-01  8.0671680361316866e-01  8.0625530299345072e-01  8.0593304843002833e-01  8.0576076533363494e-01  8.0574296830403103e-01  8.0588417474066831e-01  8.0618369668768497e-01  8.0664024006962209e-01  8.0724751961479380e-01  8.07999195466