<?xml version="1.0"?>
<VTKFile type="UnstructuredGrid"  version="0.1"  >
<UnstructuredGrid>
<Piece  NumberOfPoints="40501" NumberOfCells="80000">
<Points>
<DataArray  type="Float64"  NumberOfComponents="3"  format="ascii">0 0 0  0.0095 0 0  0.019 0 0  0.0285 0 0  0.038 0 0  0.0475 0 0  0.057 0 0  0.06649999999999999 0 0  0.076 0 0  0.08549999999999999 0 0  0.095 0 0  0.1045 0 0  0.114 0 0  0.1235 0 0  0.133 0 0  0.1425 0 0  0.152 0 0  0.1615 0 0  0.171 0 0  0.1805 0 0  0.19 0 0  0.1995 0 0  0.209 0 0  0.2185 0 0  0.228 0 0  0.2375 0 0  0.247 0 0  0.2565 0 0  0.266 0 0  0.2755 0 0  0.285 0 0  0.2945 0 0  0.304 0 0  0.3135 0 0  0.323 0 0  0.3325 0 0  0.342 0 0  0.3515 0 0  0.361 0 0  0.3705 0 0  0.38 0 0  0.3895 0 0  0.399 0 0  0.4085 0 0  0.418 0 0  0.4275 0 0  0.4369999999999999 0 0  0.4465 0 0  0.456 0 0  0.4655 0 0  0.475 0 0  0.4844999999999999 0 0  0.494 0 0  0.5034999999999999 0 0  0.513 0 0  0.5225 0 0  0.5319999999999999 0 0  0.5415 0 0  0.5509999999999999 0 0  0.5605 0 0  0.57 0 0  0.5794999999999999 0 0  0.589 0 0  0.5984999999999999 0 0  0.608 0 0  0.6175 0 0  0.627 0 0  0.6365 0 0  0.6459999999999999 0 0  0.6555 0 0  0.665 0 0  0.6745 0 0  0.6839999999999999 0 0  0.6934999999999999 0 0  0.703 0 0  0.7125 0 0  0.722 0 0  0.7314999999999999 0 0  0.741 0 0  0.7504999999999999 0 0  0.76 0 0  0.7695000000000001 0 0  0.7789999999999999 0 0  0.7885 0 0  0.7979999999999999 0 0  0.8075 0 0  0.8170000000000001 0 0  0.8264999999999999 0 0  0.836 0 0  0.8454999999999999 0 0  0.855 0 0  0.8645 0 0  0.8739999999999999 0 0  0.8835 0 0  0.893 0 0  0.9025 0 0  0.9119999999999999 0 0  0.9214999999999999 0 0  0.9309999999999999 0 0  0.9405 0 0  0.95 0 0  0.9594999999999999 0 0  0.9689999999999999 0 0  0.9784999999999999 0 0  0.988 0 0  0.9975000000000001 0 0  1.007 0 0  1.0165 0 0  1.026 0 0  1.0355 0 0  1.045 0 0  1.0545 0 0  1.064 0 0  1.0735 0 0  1.083 0 0  1.0925 0 0  1.102 0 0  1.1115 0 0  1.121 0 0  1.1305 0 0  1.14 0 0  1.1495 0 0  1.159 0 0  1.1685 0 0  1.178 0 0  1.1875 0 0  1.197 0 0  1.2065 0 0  1.216 0 0  1.2255 0 0  1.235 0 0  1.2445 0 0  1.254 0 0  1.2635 0 0  1.273 0 0  1.2825 0 0  1.292 0 0  1.3015 0 0  1.311 0 0  1.3205 0 0  1.33 0 0  1.3395 0 0  1.349 0 0  1.3585 0 0  1.368 0 0  1.3775 0 0  1.387 0 0  1.3965 0 0  1.406 0 0  1.4155 0 0  1.425 0 0  1.4345 0 0  1.444 0 0  1.4535 0 0  1.463 0 0  1.4725 0 0  1.482 0 0  1.4915 0 0  1.501 0 0  1.5105 0 0  1.52 0 0  1.5295 0 0  1.539 0 0  1.5485 0 0  1.558 0 0  1.5675 0 0  1.577 0 0  1.5865 0 0  1.596 0 0  1.6055 0 0  1.615 0 0  1.6245 0 0  1.634 0 0  1.6435 0 0  1.653 0 0  1.6625 0 0  1.672 0 0  1.6815 0 0  1.691 0 0  1.7005 0 0  1.71 0 0  1.7195 0 0  1.729 0 0  1.7385 0 0  1.748 0 0  1.7575 0 0  1.767 0 0  1.7765 0 0  1.786 0 0  1.7955 0 0  1.805 0 0  1.8145 0 0  1.824 0 0  1.8335 0 0  1.843 0 0  1.8525 0 0  1.862 0 0  1.8715 0 0  1.881 0 0  1.8905 0 0  1.9 0 0  1.9095 0 0  1.919 0 0  1.9285 0 0  1.938 0 0  1.9475 0 0  1.957 0 0  1.9665 0 0  1.976 0 0  1.9855 0 0  1.995 0 0  2.0045 0 0  2.014 0 0  2.0235 0 0  2.033 0 0  2.0425 0 0  2.052 0 0  2.0615 0 0  2.071 0 0  2.0805 0 0  2.09 0 0  2.0995 0 0  2.109 0 0  2.1185 0 0  2.128 0 0  2.1375 0 0  2.147 0 0  2.1565 0 0  2.166 0 0  2.1755 0 0  2.185 0 0  2.1945 0 0  2.204 0 0  2.2135 0 0  2.223 0 0  2.2325 0 0  2.242 0 0  2.2515 0 0  2.261 0 0  2.2705 0 0  2.28 0 0  2.2895 0 0  2.299 0 0  2.3085 0 0  2.318 0 0  2.3275 0 0  2.337 0 0  2.3465 0 0  2.356 0 0  2.3655 0 0  2.375 0 0  2.3845 0 0  2.394 0 0  2.4035 0 0  2.413 0 0  2.4225 0 0  2.432 0 0  2.4415 0 0  2.451 0 0  2.4605 0 0  2.47 0 0  2.4795 0 0  2.489 0 0  2.4985 0 0  2.508 0 0  2.5175 0 0  2.527 0 0  2.5365 0 0  2.546 0 0  2.5555 0 0  2.565 0 0  2.5745 0 0  2.584 0 0  2.5935 0 0  2.603 0 0  2.6125 0 0  2.622 0 0  2.6315 0 0  2.641 0 0  2.6505 0 0  2.66 0 0  2.6695 0 0  2.679 0 0  2.688499999999999 0 0  2.698 0 0  2.7075 0 0  2.717 0 0  2.7265 0 0  2.736 0 0  2.7455 0 0  2.755 0 0  2.7645 0 0  2.774 0 0  2.7835 0 0  2.793 0 0  2.8025 0 0  2.812 0 0  2.8215 0 0  2.831 0 0  2.8405 0 0  2.85 0 0  2.8595 0 0  2.869 0 0  2.8785 0 0  2.888 0 0  2.8975 0 0  2.907 0 0  2.9165 0 0  2.926 0 0  2.9355 0 0  2.945 0 0  2.9545 0 0  2.964 0 0  2.9735 0 0  2.983 0 0  2.9925 0 0  3.002 0 0  3.0115 0 0  3.020999999999999 0 0  3.0305 0 0  3.04 0 0  3.0495 0 0  3.059 0 0  3.0685 0 0  3.078 0 0  3.0875 0 0  3.097 0 0  3.1065 0 0  3.116 0 0  3.1255 0 0  3.135 0 0  3.1445 0 0  3.154 0 0  3.1635 0 0  3.173 0 0  3.1825 0 0  3.192 0 0  3.2015 0 0  3.211 0 0  3.2205 0 0  3.23 0 0  3.2395 0 0  3.249 0 0  3.2585 0 0  3.268 0 0  3.2775 0 0  3.287 0 0  3.2965 0 0  3.306 0 0  3.3155 0 0  3.325 0 0  3.3345 0 0  3.344 0 0  3.353499999999999 0 0  3.363 0 0  3.3725 0 0  3.382 0 0  3.3915 0 0  3.401 0 0  3.4105 0 0  3.42 0 0  3.4295 0 0  3.439 0 0  3.4485 0 0  3.458 0 0  3.4675 0 0  3.477 0 0  3.4865 0 0  3.496 0 0  3.5055 0 0  3.515 0 0  3.5245 0 0  3.534 0 0  3.5435 0 0  3.553 0 0  3.5625 0 0  3.572 0 0  3.5815 0 0  3.591 0 0  3.6005 0 0  3.61 0 0  3.6195 0 0  3.629 0 0  3.6385 0 0  3.648 0 0  3.6575 0 0  3.667 0 0  3.6765 0 0  3.685999999999999 0 0  3.6955 0 0  3.705 0 0  3.7145 0 0  3.724 0 0  3.7335 0 0  3.742999999999999 0 0  3.7525 0 0  3.762 0 0  3.7715 0 0  3.781 0 0  3.7905 0 0  3.8 0 0  0 0.005 0  0.0095 0.005 0  0.019 0.005 0  0.0285 0.005 0  0.038 0.005 0  0.0475 0.005 0  0.057 0.005 0  0.06649999999999999 0.005 0  0.076 0.005 0  0.08549999999999999 0.005 0  0.095 0.005 0  0.1045 0.005 0  0.114 0.005 0  0.1235 0.005 0  0.133 0.005 0  0.1425 0.005 0  0.152 0.005 0  0.1615 0.005 0  0.171 0.005 0  0.1805 0.005 0  0.19 0.005 0  0.1995 0.005 0  0.209 0.005 0  0.2185 0.005 0  0.228 0.005 0  0.2375 0.005 0  0.247 0.005 0  0.2565 0.005 0  0.266 0.005 0  0.2755 0.005 0  0.285 0.005 0  0.2945 0.005 0  0.304 0.005 0  0.3135 0.005 0  0.323 0.005 0  0.3325 0.005 0  0.342 0.005 0  0.3515 0.005 0  0.361 0.005 0  0.3705 0.005 0  0.38 0.005 0  0.3895 0.005 0  0.399 0.005 0  0.4085 0.005 0  0.418 0.005 0  0.4275 0.005 0  0.4369999999999999 0.005 0  0.4465 0.005 0  0.456 0.005 0  0.4655 0.005 0  0.475 0.005 0  0.4844999999999999 0.005 0  0.494 0.005 0  0.5034999999999999 0.005 0  0.513 0.005 0  0.5225 0.005 0  0.5319999999999999 0.005 0  0.5415 0.005 0  0.5509999999999999 0.005 0  0.5605 0.005 0  0.57 0.005 0  0.5794999999999999 0.005 0  0.589 0.005 0  0.5984999999999999 0.005 0  0.608 0.005 0  0.6175 0.005 0  0.627 0.005 0  0.6365 0.005 0  0.6459999999999999 0.005 0  0.6555 0.005 0  0.665 0.005 0  0.6745 0.005 0  0.6839999999999999 0.005 0  0.6934999999999999 0.005 0  0.703 0.005 0  0.7125 0.005 0  0.722 0.005 0  0.7314999999999999 0.005 0  0.741 0.005 0  0.7504999999999999 0.005 0  0.76 0.005 0  0.7695000000000001 0.005 0  0.7789999999999999 0.005 0  0.7885 0.005 0  0.7979999999999999 0.005 0  0.8075 0.005 0  0.8170000000000001 0.005 0  0.8264999999999999 0.005 0  0.836 0.005 0  0.8454999999999999 0.005 0  0.855 0.005 0  0.8645 0.005 0  0.8739999999999999 0.005 0  0.8835 0.005 0  0.893 0.005 0  0.9025 0.005 0  0.9119999999999999 0.005 0  0.9214999999999999 0.005 0  0.9309999999999999 0.005 0  0.9405 0.005 0  0.95 0.005 0  0.9594999999999999 0.005 0  0.9689999999999999 0.005 0  0.9784999999999999 0.005 0  0.988 0.005 0  0.9975000000000001 0.005 0  1.007 0.005 0  1.0165 0.005 0  1.026 0.005 0  1.0355 0.005 0  1.045 0.005 0  1.0545 0.005 0  1.064 0.005 0  1.0735 0.005 0  1.083 0.005 0  1.0925 0.005 0  1.102 0.005 0  1.1115 0.005 0  1.121 0.005 0  1.1305 0.005 0  1.14 0.005 0  1.1495 0.005 0  1.159 0.005 0  1.1685 0.005 0  1.178 0.005 0  1.1875 0.005 0  1.197 0.005 0  1.2065 0.005 0  1.216 0.005 0  1.2255 0.005 0  1.235 0.005 0  1.2445 0.005 0  1.254 0.005 0  1.2635 0.005 0  1.273 0.005 0  1.2825 0.005 0  1.292 0.005 0  1.3015 0.005 0  1.311 0.005 0  1.3205 0.005 0  1.33 0.005 0  1.3395 0.005 0  1.349 0.005 0  1.3585 0.005 0  1.368 0.005 0  1.3775 0.005 0  1.387 0.005 0  1.3965 0.005 0  1.406 0.005 0  1.4155 0.005 0  1.425 0.005 0  1.4345 0.005 0  1.444 0.005 0  1.4535 0.005 0  1.463 0.005 0  1.4725 0.005 0  1.482 0.005 0  1.4915 0.005 0  1.501 0.005 0  1.5105 0.005 0  1.52 0.005 0  1.5295 0.005 0  1.539 0.005 0  1.5485 0.005 0  1.558 0.005 0  1.5675 0.005 0  1.577 0.005 0  1.5865 0.005 0  1.596 0.005 0  1.6055 0.005 0  1.615 0.005 0  1.6245 0.005 0  1.634 0.005 0  1.6435 0.005 0  1.653 0.005 0  1.6625 0.005 0  1.672 0.005 0  1.6815 0.005 0  1.691 0.005 0  1.7005 0.005 0  1.71 0.005 0  1.7195 0.005 0  1.729 0.005 0  1.7385 0.005 0  1.748 0.005 0  1.7575 0.005 0  1.767 0.005 0  1.7765 0.005 0  1.786 0.005 0  1.7955 0.005 0  1.805 0.005 0  1.8145 0.005 0  1.824 0.005 0  1.8335 0.005 0  1.843 0.005 0  1.8525 0.005 0  1.862 0.005 0  1.8715 0.005 0  1.881 0.005 0  1.8905 0.005 0  1.9 0.005 0  1.9095 0.005 0  1.919 0.005 0  1.9285 0.005 0  1.938 0.005 0  1.9475 0.005 0  1.957 0.005 0  1.9665 0.005 0  1.976 0.005 0  1.9855 0.005 0  1.995 0.005 0  2.0045 0.005 0  2.014 0.005 0  2.0235 0.005 0  2.033 0.005 0  2.0425 0.005 0  2.052 0.005 0  2.0615 0.005 0  2.071 0.005 0  2.0805 0.005 0  2.09 0.005 0  2.0995 0.005 0  2.109 0.005 0  2.1185 0.005 0  2.128 0.005 0  2.1375 0.005 0  2.147 0.005 0  2.1565 0.005 0  2.166 0.005 0  2.1755 0.005 0  2.185 0.005 0  2.1945 0.005 0  2.204 0.005 0  2.2135 0.005 0  2.223 0.005 0  2.2325 0.005 0  2.242 0.005 0  2.2515 0.005 0  2.261 0.005 0  2.2705 0.005 0  2.28 0.005 0  2.2895 0.005 0  2.299 0.005 0  2.3085 0.005 0  2.318 0.005 0  2.3275 0.005 0  2.337 0.005 0  2.3465 0.005 0  2.356 0.005 0  2.3655 0.005 0  2.375 0.005 0  2.3845 0.005 0  2.394 0.005 0  2.4035 0.005 0  2.413 0.005 0  2.4225 0.005 0  2.432 0.005 0  2.4415 0.005 0  2.451 0.005 0  2.4605 0.005 0  2.47 0.005 0  2.4795 0.005 0  2.489 0.005 0  2.4985 0.005 0  2.508 0.005 0  2.5175 0.005 0  2.527 0.005 0  2.5365 0.005 0  2.546 0.005 0  2.5555 0.005 0  2.565 0.005 0  2.5745 0.005 0  2.584 0.005 0  2.5935 0.005 0  2.603 0.005 0  2.6125 0.005 0  2.622 0.005 0  2.6315 0.005 0  2.641 0.005 0  2.6505 0.005 0  2.66 0.005 0  2.6695 0.005 0  2.679 0.005 0  2.688499999999999 0.005 0  2.698 0.005 0  2.7075 0.005 0  2.717 0.00
[...]
<PointData  Scalars="rho"> 
<DataArray  type="Float64"  Name="rho"  format="ascii">1.0000000000000000e+00  1.0000000000000000e+00  1.0000000000000000e+00  1.0000000000000000e+00  1.0000000000000000e+00  1.0000000000000000e+00  1.0000000000000000e+00  1.0000000000000000e+00  1.0000000000000000e+00  1.0000000000000000e+00  1.0000000000000000e+00  1.0000000000000000e+00  1.0000000000000000e+00  1.0000000000000000e+00  1.0000000000000000e+00  1.0000000000000000e+00  1.0000000000000000e+00  1.0000000000000000e+00  1.0000000000000000e+00  1.0000000000000000e+00  1.0000000000000000e+00  1.0000000000000000e+00  1.0000000000000000e+00  1.0000000000000000e+00  1.0000000000000000e+00  1.0000000000000000e+00  1.0000000000000000e+00  1.0000000000000000e+00  1.0000000000000000e+00  1.0000000000000000e+00  1.0000000000000000e+00  1.0000000000000000e+00  1.0000000000000000e+00  1.0000000000000000e+00  1.0000000000000000e+00  1.0000000000000000e+00  1.0000000000000000e+00  1.0000000000000000e+00  1.0000000000000000e+00  1.0000000000000000e+00  1.0000000000000000e+00  1.0000000000000000e+00  1.0000000000000000e+00  1.0000000000000000e+00  1.0000000000000000e+00  1.0000000000000000e+00  1.0000000000000000e+00  1.0000000000000000e+00  1.0000000000000000e+00  1.0000000000000000e+00  1.0000000000000000e+00  1.0000000000000000e+00  1.0000000000000000e+00  1.0000000000000000e+00  1.0000000000000000e+00  1.0000000000000000e+00  1.0000000000000000e+00  1.0000000000000000e+00  1.0000000000000000e+00  1.0000000000000000e+00  1.0000000000000000e+00  1.0000000000000000e+00  1.0000000000000000e+00  1.0000000000000000e+00  1.0000000000000000e+00  1.0000000000000000e+00  1.0000000000000000e+00  1.0000000000000000e+00  1.0000000000000000e+00  1.0000000000000000e+00  1.0000000000000000e+00  1.0000000000000000e+00  1.0000000000000000e+00  1.0000000000000000e+00  1.0000000000000000e+00  1.0000000000000000e+00  1.0000000000000000e+00  1.0000000000000000e+00  1.0000000000000000e+00  1.0000000000000000e+00  1.0000000000000000e+00  1.0000000000000000e+00  1.0000000000000000e+00  1.0000000000000000e+00  1.0000000000000000e+00  1.0000000000000000e+00  1.0000000000000000e+00  1.0000000000000000e+00  1.0000000000000000e+00  1.0000000000000000e+00  1.0000000000000000e+00  1.0000000000000000e+00  1.0000000000000000e+00  1.0000000000000000e+00  1.0000000000000000e+00  1.0000000000000000e+00  1.0000000000000000e+00  1.0000000000000000e+00  1.0000000000000000e+00  1.0000000000000000e+00  1.0000000000000000e+00  1.0000000000000000e+00  1.0000000000000000e+00  1.0000000000000000e+00  1.0000000000000000e+00  1.0000000000000000e+00  1.0000000000000000e+00  1.0000000000000000e+00  1.0000000000000000e+00  1.0000000000000000e+00  1.0000000000000000e+00  1.0000000000000000e+00  1.0000000000000000e+00  1.0000000000000000e+00  1.0000000000000000e+00  1.0000000000000000e+00  1.0000000000000000e+00  1.0000000000000000e+00  1.0000000000000000e+00  1.0000000000000000e+00  1.0000000000000000e+00  1.0000000000000000e+00  1.0000000000000000e+00  1.0000000000000000e+00  1.0000000000000000e+00  1.0000000000000000e+00  1.0000000000000000e+00  1.0000000000000000e+00  1.0000000000000000e+00  1.0000000000000000e+00  1.0000000000000000e+00  1.0000000000000000e+00  1.0000000000000000e+00  1.0000000000000000e+00  1.0000000000000000e+00  1.0000000000000000e+00  1.0000000000000000e+00  1.0000000000000000e+00  1.0000000000000000e+00  1.0000000000000000e+00  1.0000000000000000e+00  1.0000000000000000e+00  1.0000000000000000e+00  1.0000000000000000e+00  1.0000000000000000e+00  1.0000000000000000e+00  1.0000000000000000e+00  1.0000000000000000e+00  1.0000000000000000e+00  1.0000000000000000e+00  1.0000000000000000e+00  1.0000000000000000e+00  1.0000000000000000e+00  1.0000000000000000e+00  1.0000000000000000e+00  1.0000000000000000e+00  1.0000000000000000e+00  1.0000000000000000e+00  1.0000000000000000e+00  1.0000000000000000e+00  1.0000000000000000e+00  1.0000000000000000e+00  1.0000000000000000e+00  1.0000000000000000e+00  1.0000000000000000e+00  1.0000000000000000e+00  1.0000000000000000e+00  1.0000000000000000e+00  1.0000000000000000e+00  1.0000000000000000e+00  1.0000000000000000e+00  1.0000000000000000e+00  1.0000000000000000e+00  1.0000000000000000e+00  1.0000000000000000e+00  1.0000000000000000e+00  1.0000000000000000e+00  1.0000000000000000e+00  1.0000000000000000e+00  1.0000000000000000e+00  1.0000000000000000e+00  1.0000000000000000e+00  1.0000000000000000e+00  1.0000000000000000e+00  1.0000000000000000e+00  1.0000000000000000e+00  1.0000000000000000e+00  1.0000000000000000e+00  1.0000000000000000e+00  1.0000000000000000e+00  1.0000000000000000e+00  1.0000000000000000e+00  1.0000000000000000e+00  1.0000000000000000e+00  1.0000000000000000e+00  1.0000000000000000e+00  1.0000000000000000e+00  1.0000000000000000e+00  1.0000000000000000e+00  1.0000000000000000e+00  1.0000000000000000e+00  1.0000000000000000e+00  1.0000000000000000e+00  1.0000000000000000e+00  1.0000000000000000e+00  1.0000000000000000e+00  1.0000000000000000e+00  1.0000000000000000e+00  1.0000000000000000e+00  1.0000000000000000e+00  1.0000000000000000e+00  1.0000000000000000e+00  1.0000000000000000e+00  1.0000000000000000e+00  1.0000000000000000e+00  1.0000000000000000e+00  1.0000000000000000e+00  1.0000000000000000e+00  1.0000000000000000e+00  1.0000000000000000e+00  1.0000000000000000e+00  1.0000000000000000e+00  1.0000000000000000e+00  1.0000000000000000e+00  1.0000000000000000e+00  1.0000000000000000e+00  1.0000000000000000e+00  1.0000000000000000e+00  1.0000000000000000e+00  1.0000000000000000e+00  1.0000000000000000e+00  1.0000000000000000e+00  1.0000000000000000e+00  1.0000000000000000e+00  1.0000000000000000e+00  1.0000000000000000e+00  1.0000000000000000e+00  1.0000000000000000e+00  1.0000000000000000e+00  1.0000000000000000e+00  1.0000000000000000e+00  1.0000000000000000e+00  1.0000000000000000e+00  9.9448426787243427e-01  9.8836114816244880e-01  9.8263193171624452e-01  9.7738971306240352e-01  9.7268203743885517e-01  9.6853517511452469e-01  9.6493589828542570e-01  9.6185560334910181e-01  9.5923827689086361e-01  9.5702509729404694e-01  9.5513871984623699e-01  9.5350856656914995e-01  9.5205323778590945e-01  9.5070115660831400e-01  9.4937813712295960e-01  9.4802884197728232e-01  9.4659706779050212e-01  9.4504844968942303e-01  9.4334769381528338e-01  9.4147734285838425e-01  9.3941900768421038e-01  9.3717160982808223e-01  9.3472906957051860e-01  9.3210001762129213e-01  9.2928483562592346e-01  9.2629180344948148e-01  9.2312078891874627e-01  9.1978173401659991e-01  9.1627365555357565e-01  9.1260712535753319e-01  9.0878223444840422e-01  9.0480840892958470e-01  9.0068685178637453e-01  8.9642989305984111e-01  8.9203999593382688e-01  8.8753049210417634e-01  8.8290351506241116e-01  8.7816717813654310e-01  8.7331939402361258e-01  8.6836666548519914e-01  8.6330248850763658e-01  8.5812947408155837e-01  8.5283627399439954e-01  8.4741768452951638e-01  8.4185641557755320e-01  8.3614371151401479e-01  8.3025882142258678e-01  8.2419183322058420e-01  8.1792274974138157e-01  8.1144212673927041e-01  8.0473637361727046e-01  7.9780993354257823e-01  7.9066372602051638e-01  7.8331776926613927e-01  7.7578550030708215e-01  7.6809299666438058e-01  7.6025671715021603e-01  7.5230286488721121e-01  7.4424331079902972e-01  7.3609721083535484e-01  7.2786708993766158e-01  7.1955964485895940e-01  7.1116875615297270e-01  7.0269990272627769e-01  6.9414954874753521e-01  6.8553254596512347e-01  6.7685904811402553e-01  6.6815900810047424e-01  6.5946012870581561e-01  6.5080946072159662e-01  6.4224569956643318e-01  6.4464229909663107e-01  6.3627899988207803e-01  6.2810016316562978e-01  6.1079542975324030e-01  6.0293219251620089e-01  5.9516601276737147e-01  5.8741216774893379e-01  5.7953833738702132e-01  5.7138874034159914e-01  5.6276206778753746e-01  5.5344081456740268e-01  5.4317243044997765e-01  4.7666061524194742e-01  4.6757527231487878e-01  4.5769272882738499e-01  4.4690260687104516e-01  4.3510669243806532e-01  4.1787747292562533e-01  4.0666830096232731e-01  3.9467166905443468e-01  3.8354437303293054e-01  3.7015566184176918e-01  3.5622361185699070e-01  3.4555623393190099e-01  3.3434663752710914e-01  3.2625669270234103e-01  3.1770064543821036e-01  3.0530942680522133e-01  2.9548843383803930e-01  2.6153644341726318e-01  4.0434623064665116e-02  0.0000000000000000e+00  0.0000000000000000e+00  0.0000000000000000e+00  0.0000000000000000e+00  0.0000000000000000e+00  0.0000000000000000e+00  0.0000000000000000e+00  0.0000000000000000e+00  0.0000000000000000e+00  0.0000000000000000e+00  0.0000000000000000e+00  0.0000000000000000e+00  0.0000000000000000e+00  0.0000000000000000e+00  0.0000000000000000e+00  0.0000000000000000e+00  0.0000000000000000e+00  0.0000000000000000e+00  0.0000000000000000e+00  0.0000000000000000e+00  0.0000000000000000e+00  0.0000000000000000e+00  0.0000000000000000e+00  0.0000000000000000e+00  0.0000000000000000e+00  0.0000000000000000e+00  0.0000000000000000e+00  0.0000000000000000e+00  0.0000000000000000e+00  0.0000000000000000e+00  0.0000000000000000e+00  0.0000000000000000e+00  0.0000000000000000e+00  0.0000000000000000e+00  0.0000000000000000e+00  0.0000000000000000e+00  0.0000000000000000e+00  0.0000000000000000e+00  0.0000000000000000e+00  0.0000000000000000e+00  0.0000000000000000e+00  0.0000000000000000e+00  0.0000000000000000e+00  0.0000000000000000e+00  0.0000000000000000e+00  0.0000000000000000e+00  0.0000000000000000e+00  0.0000000000000000e+00  0.0000000000000000e+00  0.0000000000000000e+00  0.0000000000000000e+00  0.0000000000000000e+00  0.0000000000000000e+00  0.0000000000000000e+00  0.0000000000000000e+00  0.0000000000000000e+00  1.0000000000000000e+00  1.0000000000000000e+00  1.0000000000000000e+00  1.0000000000000000e+00  1.0000000000000000e+00  1.0000000000000000e+00  1.0000000000000000e+00  1.0000000000000000e+00  1.0000000000000000e+00  1.0000000000000000e+00  1.0000000000000000e+00  1.0000000000000000e+00  1.0000000000000000e+00  1.0000000000000000e+00  1.0000000000000000e+00  1.0000000000000000e+00  1.0000000000000000e+00  1.0000000000000000e+00  1.0000000000000000e+00  1.0000000000000000e+00  1.0000000000000000e+00  1.0000000000000000e+00  1.0000000000000000e+00  1.0000000000000000e+00  1.0000000000000000e+00  1.0000000000000000e+00  1.0000000000000000e+00  1.0000000000000000e+00  1.0000000000000000e+00  1.0000000000000000e+00  1.0000000000000000e+00  1.0000000000000000e+00  1.0000000000000000e+00  1.0000000000000000e+00  1.0000000000000000e+00  1.0000000000000000e+00  1.0000000000000000e+00  1.0000000000000000e+00  1.0000000000000000e+00  1.0000000000000000e+00  1.0000000000000000e+00  1.0000000000000000e+00  1.0000000000000000e+00  1.0000000000000000e+00  1.0000000000000000e+00  1.0000000000000000e+00  1.0000000000000000e+00  1.0000000000000000e+00  1.0000000000000000e+00  1.0000000000000000e+00  1.0000000000000000e+00  1.0000000000000000e+00  1.0000000000000000e+00  1.0000000000000000e+00  1.0000000000000000e+00  1.0000000000000000e+00  1.0000000000000000e+00  1.0000000000000000e+00  1.0000000000000000e+00  1.0000000000000000e+00  1.0000000000000000e+00  1.0000000000000000e+00  1.0000000000000000e+00  1.0000000000000000e+00  1.0000000000000000e+00  1.0000000000000000e+00  1.0000000000000000e+00  1.0000000000000000e+00  1.0000000000000000e+00  1.0000000000000000e+00  1.0000000000000000e+00  1.0000000000000000e+00  1.0000000000000000e+00  1.0000000000000000e+00  1.0000000000000000e+00  1.0000000000000000e+00  1.0000000000000000e+00  1.0000000000000000e+00  1.0000000000000000e+00  1.0000000000000000e+00  1.0000000000000000e+00  1.0000000000000000e+00  1.0000000000000000e+00  1.0000000000000000e+00  1.0000000000000000e+00  1.0000000000000000e+00  1.0000000000000000e+00  1.0000000000000000e+00  1.0000000000000000e+00  1.0000000000000000e+00  1.0000000000000000e+00  1.0000000000000000e+00  1.0000000000000000e+00  1.0000000000000000e+00  1.0000000000000000e+00  1.0000000000000000e+00  1.0000000000000000e+00  1.0000000000000000e+00  1.0000000000000000e+00  1.0000000000000000e+00  1.0000000000000000e+00  1.0000000000000000e+00  1.0000000000000000e+00  1.0000000000000000e+00  1.0000000000000000e+00  1.0000000000000000e+00  1.0000000000000000e+00  1.0000000000000000e+00  1.0000000000000000e+00  1.0000000000000000e+00  1.0000000000000000e+00  1.0000000000000000e+00  1.0000000000000000e+00  1.0000000000000000e+00  1.0000000000000000e+00  1.0000000000000000e+00  1.0000000000000000e+00  1.0000000000000000e+00  1.0000000000000000e+00  1.0000000000000000e+00  1.0000000000000000e+00  1.0000000000000000e+00  1.0000000000000000e+00  1.0000000000000000e+00  1.0000000000000000e+00  1.0000000000000000e+00  1.0000000000000000e+00  1.0000000000000000e+00  1.0000000000000000e+00  1.0000000000000000e+00  1.0000000000000000e+00  1.0000000000000000e+00  1.0000000000000000e+00  1.0000000000000000e+00  1.0000000000000000e+00  1.0000000000000000e+00  1.0000000000000000e+00  1.0000000000000000e+00  1.0000000000000000e+00  1.0000000000000000e+00  1.0000000000000000e+00  1.0000000000000000e+00  1.0000000000000000e+00  1.0000000000000000e+00  1.0000000000000000e+00  1.0000000000000000e+00  1.0000000000000000e+00  1.0000000000000000e+00  1.0000000000000000e+00  1.0000000000000000e+00  1.0000000000000000e+00  1.0000000000000000e+00  1.0000000000000000e+00  1.0000000000000000e+00  1.0000000000000000e+00  1.0000000000000000e+00  1.0000000000000000e+00  1.0000000000000000e+00  1.0000000000000000e+00  1.0000000000000000e+00  1.0000000000000000e+00  1.0000000000000000e+00  1.0000000000000000e+00  1.0000000000000000e+00  1.0000000000000000e+00  1.0000000000000000e+00  1.0000000000000000e+00  1.0000000000000000e+00  1.0000000000000000e+00  1.0000000000000000e+00  1.0000000000000000e+00  1.0000000000000000e+00  1.0000000000000000e+00  1.0000000000000000e+00  1.0000000000000000e+00  1.0000000000000000e+00  1.0000000000000000e+00  1.0000000000000000e+00  1.0000000000000000e+00  1.0000000000000000e+00  1.0000000000000000e+00  1.0000000000000000e+00  1.0000000000000000e+00  1.0000000000000000e+00  1.0000000000000000e+00  1.0000000000000000e+00  1.0000000000000000e+00  1.0000000000000000e+00  1.0000000000000000e+00  1.0000000000000000e+00  1.0000000000000000e+00  1.0000000000000000e+00  1.0000000000000000e+00  1.0000000000000000e+00  1.0000000000000000e+00  1.0000000000000000e+00  1.0000000000000000e+00  1.0000000000000000e+00  1.0000000000000000e+00  1.0000000000000000e+00  1.0000000000000000e+00  1.0000000000000000e+00  1.0000000000000000e+00  1.0000000000000000e+00  1.0000000000000000e+00  1.0000000000000000e+00  1.0000000000000000e+00  1.0000000000000000e+00  1.0000000000000000e+00  1.0000000000000000e+00  1.0000000000000000e+00  1.0000000000000000e+00  1.0000000000000000e+00  1.0000000000000000e+00  1.0000000000000000e+00  1.0000000000000000e+00  1.0000000000000000e+00  1.0000000000000000e+00  1.0000000000000000e+00  1.0000000000000000e+00  1.0000000000000000e+00  1.0000000000000000e+00  1.0000000000000000e+00  1.0000000000000000e+00  1.0000000000000000e+00  1.0000000000000000e+00  1.0000000000000000e+00  1.0000000000000000e+00  1.0000000000000000e+00  1.0000000000000000e+00  1.0000000000000000e+00  1.0000000000000000e+00  1.0000000000000000e+00  1.0000000000000000e+00  1.0000000000000000e+00  1.0000000000000000e+00  1.0000000000000000e+00  1.0000000000000000e+00  1.0000000000000000e+00  1.0000000000000000e+00  1.0000000000000000e+00  1.0000000000000000e+00  1.0000000000000000e+00  1.0000000000000000e+00  1.0000000000000000e+00  1.0000000000000000e+00  1.0000000000000000e+00  1.0000000000000000e+00  1.0000000000000000e+00  1.0000000000000000e+00  1.0000000000000000e+00  1.0000000000000000e+00  1.0000000000000000e+00  1.0000000000000000e+00  1.0000000000000000e+00  1.0000000000000000e+00  1.0000000000000000e+00  1.0000000000000000e+00  1.0000000000000000e+00  1.0000000000000000e+00  1.0000000000000000e+00  1.0000000000000000e+00  1.0000000000000000e+00  1.0000000000000000e+00  1.0000000000000000e+00  1.0000000000000000e+00  1.0000000000000000e+00  9.9989436185740921e-01  9.9906241214545044e-01  9.9827438723368134e-01  9.9754134540744788e-01  9.9687111990943078e-01  9.9627342132691876e-01  9.9575551048844968e-01  9.9532662668533756e-01  9.9499419850347426e-01  9.9476799764070989e-01  9.9465564976403553e-01  9.9466637589578566e-01  9.9480653014005660e-01  9.9252465051008565e-01  9.8668930997885118e-01  9.8072546341010758e-01  9.7462292328547462e-01  9.6838706359240267e-01  9.6200230077916071e-01  9.5546431701148438e-01  9.4874944917965320e-01  9.4184836153571672e-01  9.3473344117169166e-01  9.2739301419337439e-01  9.1980044525276727e-01  9.1194516687446414e-01  9.0380628713258948e-01  8.9539044312485316e-01  8.8669522624900077e-01  8.7774666086920794e-01  8.6855983617981669e-01  8.5916977596415300e-01  8.4959621440853439e-01  8.3987514340767411e-01  8.3002203136268937e-01  8.2006403004724493e-01  8.1000553276877230e-01  7.9985876086848107e-01  7.8961483627227858e-01  7.7928352455391858e-01  7.6885800081766775e-01  7.5835768285358662e-01  7.4779263026013587e-01  7.3720064668307794e-01  7.2661346753659251e-01  7.1609082495473819e-01  7.0568049738987104e-01  7.0781470527000789e-01  6.9768546698792144e-01  6.7617847370281625e-01  6.6648960347412933e-01  6.5703120077255961e-01  6.4772632232866678e-01  6.3847709711653378e-01  6.2912329334880379e-01  6.1947687541460028e-01  6.0928864740412769e-01  5.9828944601408718e-01  5.8616153506634228e-01  4.9703168294905670e-01  4.8629997447103018e-01  4.7459730453605486e-01  4.6178044312129041e-01  4.4772132323560382e-01  4.3228940063594062e-01  4.1157803160613871e-01  3.9722059062018616e-01  3.8182695939031608e-01  3.6764806161789670e-01  3.5016644023949417e-01  3.3755100518510361e-01  3.2426734285658038e-01  3.1451997420621586e-01  3.0441184204254557e-01  2.8958238920656909e-01  2.7788175718569441e-01  2.3615154952662809e-01  1.4424953999074355e-01  0.0000000000000000e+00  0.0000000000000000e+00  0.0000000000000000e+00  0.0000000000000000e+00  0.0000000000000000e+00  0.0000000000000000e+00  0.0000000000000000e+00  0.0000000000000000e+00  0.0000000000000000e+00  0.0000000000000000e+00  0.0000000000000000e+00  0.0000000000000000e+00  0.0000000000000000e+00  0.0000000000000000e+00  0.0000000000000000e+00  0.0000000000000000e+00  0.0000000000000000e+00  0.0000000000000000e+00  0.0000000000000000e+00  0.0000000000000000e+00  0.0000000000000000e+00  0.0000000000000000e+00  0.0000000000000000e+00  0.0000000000000000e+00  0.0000000000000000e+00  0.0000000000000000e+00  0.0000000000000000e+00  0.0000000000000000e+00  0.0000000000000000e+00  0.0000000000000000e+00  0.0000000000000000e+00  0.0000000000000000e+00  0.0000000000000000e+00  0.0000000000000000e+00  0.0000000000000000e+00  0.0000000000000000e+00  0.0000000000000000e+00  0.0000000000000000e+00  0.0000000000000000e+00  0.0000000000000000e+00  0.0000000000000000e+00  0.0000000000000000e+00  0.0000000000000000e+00  0.0000000000000000e+00  0.0000000000000000e+00  0.0000000000000000e+00  0.0000000000000000e+00  0.0000000000000000e+00  0.0000000000000000e+00  0.0000000000000000e+00  0.0000000000000000e+00  0.0000000000000000e+00  0.0000000000000000e+00  0.0000000000000000e+00  0.0000000000000000e+00  0.0000000000000000e+00  1.0000000000000000e+00  1.0000000000000000e+00  1.0000000000000000e+00  1.0000000000000000e+00  1.0000000000000000e+00  1.0000000000000000e+00  1.0000000000000000e+00  1.0000000000000000e+00  1.0000000000000000e+00  1.0000000000000000e+00  1.0000000000000000e+00  1.0000000000000000e+00  1.0000000000000000e+00  1.0000000000000000e+00  1.0000000000000000e+00  1.0000000000000000e+00  1.0000000000000000e+00  1.0000000000000000e+00  1.0000000000000000e+00  1.0000000000000000e+00  1.0000000000000000e+00  1.0000000000000000e+00  1.0000000000000000e+00  1.0000000000000000e+00  1.0000000000000000e+00  1.0000000000000000e+00  1.0000000000000000e+00  1.0000000000000000e+0